Title
81329
    1CHL1    C3    1   2.660   3.914  10.259 -0.1351 -0.2420  0.1636
    1CHL1    H3    2   2.676   3.806  10.278 -0.4403 -0.1434  1.0572
    1CHL1    O3    3   2.646   3.988  10.378 -0.0678  0.3996 -0.1734
    1CHL1   H3'    4   2.570   3.944  10.417 -1.1333  2.0186 -0.3035
    1CHL1    C4    5   2.772   3.973  10.176  0.3156  0.0445 -0.2660
    1CHL1   H4A    6   2.777   4.082  10.197  2.1413 -0.3062  1.3540
    1CHL1   H4B    7   2.864   3.942  10.231  0.3561  1.0446  0.2545
    1CHL1    C5    8   2.766   3.930  10.032 -0.2783 -0.5095 -0.1502
    1CHL1    C6    9   2.877   3.898   9.965  0.0045  0.4449  0.3643
    1CHL1    H6   10   2.973   3.888  10.016  0.7562 -1.3206 -1.2830
    1CHL1    C7   11   2.883   3.877   9.819  0.7027  0.0659 -0.1741
    1CHL1   H7A   12   2.983   3.910   9.783  0.2422  3.3098  1.1818
    1CHL1   H7B   13   2.900   3.768   9.806  2.6028  0.3709 -0.4768
    1CHL1    C8   14   2.762   3.921   9.737 -0.4187  0.8212 -0.3610
    1CHL1    H8   15   2.770   4.031   9.723  0.0128  0.7245 -0.9216
    1CHL1   C14   16   2.763   3.849   9.601  0.3196 -0.6319  0.0540
    1CHL1   H14   17   2.749   3.744   9.633 -0.3506 -0.9156 -1.1466
    1CHL1   C15   18   2.892   3.854   9.515 -0.0748 -0.3408  0.5696
    1CHL1  H15A   19   2.923   3.958   9.490  0.1352 -0.3835  0.6451
    1CHL1  H15B   20   2.977   3.800   9.563 -2.1438 -1.8968  2.6927
    1CHL1   C16   21   2.835   3.786   9.387 -0.2334  0.4049 -0.0805
    1CHL1  H16A   22   2.856   3.840   9.293  1.2276 -1.5862 -0.9871
    1CHL1  H16B   23   2.865   3.679   9.383  1.0663  0.7585 -0.5186
    1CHL1   C17   24   2.676   3.798   9.389 -0.6711  0.1954  0.5589
    1CHL1   H17   25   2.653   3.693   9.418  2.9346 -1.1977 -1.1059
    1CHL1   C13   26   2.644   3.883   9.513 -0.0026 -0.2485  0.0502
    1CHL1   C18   27   2.642   4.035   9.481 -0.7040  0.1258  0.1993
    1CHL1  H18A   28   2.548   4.063   9.427 -0.0541 -0.7797 -1.4829
    1CHL1  H18B   29   2.631   4.103   9.568 -0.0615 -0.0311  0.4037
    1CHL1  H18C   30   2.731   4.069   9.423 -1.9301  1.1755 -1.1786
    1CHL1   C12   31   2.522   3.833   9.593 -0.1715  0.3396 -0.1379
    1CHL1  H12A   32   2.434   3.864   9.534 -1.1331 -1.6939  0.1709
    1CHL1  H12B   33   2.524   3.723   9.604  1.4178  0.5369  2.5266
    1CHL1   C11   34   2.511   3.906   9.730  0.1503  0.1339  0.1091
    1CHL1  H11A   35   2.499   4.014   9.707  0.7205  0.2485  0.3368
    1CHL1  H11B   36   2.421   3.867   9.782  0.4893 -2.0831 -0.8742
    1CHL1    C9   37   2.637   3.879   9.814 -0.3969 -0.2044  0.3492
    1CHL1    H9   38   2.648   3.769   9.827 -0.1691 -0.0720  1.3659
    1CHL1   C10   39   2.636   3.942   9.959 -0.6190 -0.1906  0.2188
    1CHL1   C19   40   2.602   4.093   9.945 -0.5818  0.0502  0.3053
    1CHL1  H19A   41   2.498   4.104   9.908 -0.8253 -0.9238  0.6540
    1CHL1  H19B   42   2.623   4.142  10.042 -0.4029 -2.7915  1.8276
    1CHL1  H19C   43   2.664   4.144   9.868  0.3557 -0.7742  0.4869
    1CHL1    C1   44   2.525   3.873  10.045 -0.3665 -0.5979 -0.2677
    1CHL1   H1A   45   2.422   3.892  10.008 -0.7100  0.5749  1.1852
    1CHL1   H1B   46   2.539   3.763  10.045  0.1854 -0.6142 -3.0053
    1CHL1    C2   47   2.519   3.921  10.189  0.2454 -0.2080  0.3299
    1CHL1   H2A   48   2.447   3.858  10.246 -0.9794 -0.6702 -1.6046
    1CHL1   H2B   49   2.479   4.025  10.186  1.7440  0.3796 -0.1311
    1CHL1   C20   50   2.613   3.826   9.254  0.2264 -0.0502  0.8286
    1CHL1   H20   51   2.640   3.930   9.224 -0.7721 -0.0069  0.0242
    1CHL1   C21   52   2.464   3.813   9.259 -0.3190  0.2287  0.0263
    1CHL1  H21A   53   2.419   3.832   9.159  0.1394  1.6026  0.0547
    1CHL1  H21B   54   2.417   3.891   9.323  0.8400  1.1452 -0.1908
    1CHL1  H21C   55   2.435   3.711   9.291  0.3987 -0.5677 -1.7635
    1CHL1   C22   56   2.653   3.734   9.138  0.2821  0.4091  0.5352
    1CHL1  H22A   57   2.758   3.699   9.135 -0.0203 -0.4785  0.0099
    1CHL1  H22B   58   2.582   3.649   9.133 -0.2579  0.9221 -2.6825
    1CHL1   C23   59   2.647   3.815   9.008 -0.1836 -0.7707  0.6355
    1CHL1  H23A   60   2.556   3.878   9.015 -0.5717 -1.2019 -0.3889
    1CHL1  H23B   61   2.737   3.876   8.983  0.1906 -2.5807 -3.2073
    1CHL1   C24   62   2.626   3.720   8.888  0.4777  0.3801 -0.0829
    1CHL1  H24A   63   2.656   3.762   8.790  0.5479 -0.1047 -0.2728
    1CHL1  H24B   64   2.695   3.634   8.900 -1.4652 -1.5682 -1.8611
    1CHL1   C25   65   2.473   3.674   8.873  0.0046  0.0290 -0.7086
    1CHL1   H25   66   2.426   3.665   8.973 -2.2149  0.5135 -1.6557
    1CHL1   C26   67   2.402   3.784   8.800 -0.0457 -0.5318 -0.3314
    1CHL1  H26A   68   2.438   3.883   8.835  0.4434 -1.2406  1.2769
    1CHL1  H26B   69   2.433   3.781   8.693  2.5354 -1.8724  0.3680
    1CHL1  H26C   70   2.292   3.789   8.811 -0.0225  0.6848 -0.5268
    1CHL1   C27   71   2.455   3.531   8.811  0.2575 -0.1559  0.2454
    1CHL1  H27A   72   2.500   3.456   8.879 -2.5770 -1.3148  1.0031
    1CHL1  H27B   73   2.349   3.507   8.791  0.5634 -0.6922 -0.7834
    1CHL1  H27C   74   2.515   3.526   8.718  1.4720  1.4563  0.8897
    2CHL1    C3   75   2.766   2.950  10.076  0.1784  0.0761 -0.0545
    2CHL1    H3   76   2.801   3.051  10.046 -0.7243 -0.0812 -1.7877
    2CHL1    O3   77   2.749   2.959  10.216 -0.5463 -0.1943 -0.1103
    2CHL1   H3'   78   2.716   2.871  10.234  0.9836 -0.9861 -1.0054
    2CHL1    C4   79   2.629   2.928  10.007 -0.7729  0.4899  0.7670
    2CHL1   H4A   80   2.598   2.835  10.060  0.5935 -0.1782  0.4384
    2CHL1   H4B   81   2.552   3.005  10.028 -1.5212  0.7246 -2.4500
    2CHL1    C5   82   2.641   2.906   9.859  0.5789  0.7110  0.3936
    2CHL1    C6   83   2.569   2.979   9.768 -0.1554 -0.1935  0.2361
    2CHL1    H6   84   2.501   3.051   9.816  1.3683  1.2764  0.2811
    2CHL1    C7   85   2.569   2.967   9.619  0.0565 -0.5836  0.7661
    2CHL1   H7A   86   2.461   2.957   9.592 -0.1259  1.1303  0.7439
    2CHL1   H7B   87   2.603   3.059   9.567 -0.0056 -1.4756 -0.9641
    2CHL1    C8   88   2.646   2.846   9.566 -0.8619 -0.4418 -0.1688
    2CHL1    H8   89   2.580   2.757   9.579 -1.2963 -0.5279 -2.5264
    2CHL1   C14   90   2.675   2.864   9.421  0.1971 -0.5302 -0.0954
    2CHL1   H14   91   2.739   2.955   9.424 -1.4145  0.6803  2.8179
    2CHL1   C15   92   2.551   2.900   9.339 -0.0943  0.0735 -0.5177
    2CHL1  H15A   93   2.476   2.824   9.369 -1.0313  1.3725  0.5505
    2CHL1  H15B   94   2.521   3.006   9.355  2.4890  1.0291 -1.4334
    2CHL1   C16   95   2.615   2.881   9.197  0.5331  0.0077 -0.3797
    2CHL1  H16A   96   2.560   2.814   9.128  1.6779  0.3875 -1.7138
    2CHL1  H16B   97   2.630   2.981   9.152  1.2856 -0.8086 -2.0047
    2CHL1   C17   98   2.759   2.816   9.208 -0.2055 -0.4238 -1.3615
    2CHL1   H17   99   2.840   2.891   9.211  0.2177 -0.8945  0.3751
    2CHL1   C13  100   2.751   2.748   9.355  0.5168 -0.0397 -0.4198
    2CHL1   C18  101   2.667   2.611   9.357  0.0516 -0.1255 -0.2876
    2CHL1  H18A  102   2.628   2.595   9.460  1.4173 -0.0355  0.2650
    2CHL1  H18B  103   2.579   2.621   9.291 -0.4071  1.3741  0.4962
    2CHL1  H18C  104   2.729   2.531   9.312 -1.2147 -1.1222 -0.2832
    2CHL1   C12  105   2.877   2.722   9.439 -0.1800 -1.2463  1.2856
    2CHL1  H12A  106   2.920   2.626   9.402 -0.3102 -0.8536  0.0634
    2CHL1  H12B  107   2.950   2.805   9.429 -0.1950 -1.3919 -0.3939
    2CHL1   C11  108   2.856   2.702   9.585 -0.3234 -0.5262 -0.4310
    2CHL1  H11A  109   2.795   2.611   9.603 -0.0177 -0.1220  3.5281
    2CHL1  H11B  110   2.947   2.673   9.643  0.1566 -2.1760 -1.9355
    2CHL1    C9  111   2.777   2.820   9.653  0.0965 -0.3814 -0.1378
    2CHL1    H9  112   2.838   2.912   9.646  1.4070 -0.8864  3.0791
    2CHL1   C10  113   2.748   2.807   9.811  0.6629  0.6051 -0.7413
    2CHL1   C19  114   2.700   2.661   9.833 -0.3520  0.0809 -0.5497
    2CHL1  H19A  115   2.782   2.587   9.816 -1.7253 -1.3231 -1.3891
    2CHL1  H19B  116   2.662   2.654   9.937 -0.1979  2.4517 -0.2795
    2CHL1  H19C  117   2.621   2.624   9.765  0.5295 -1.2008 -0.9229
    2CHL1    C1  118   2.881   2.835   9.887 -0.0254  0.1151  0.8434
    2CHL1   H1A  119   2.946   2.748   9.865 -0.0314  0.7770 -2.2708
    2CHL1   H1B  120   2.935   2.922   9.843  0.1706  0.0712  0.9931
    2CHL1    C2  121   2.866   2.842  10.042  0.0671  0.5313  0.3339
    2CHL1   H2A  122   2.969   2.860  10.080  1.3877 -1.9376 -1.8351
    2CHL1   H2B  123   2.828   2.743  10.075 -2.2334  1.4361  0.5863
    2CHL1   C20  124   2.800   2.719   9.101 -0.0434 -0.3249 -0.6651
    2CHL1   H20  125   2.727   2.636   9.092 -1.6002  0.9935 -0.5483
    2CHL1   C21  126   2.940   2.661   9.121 -0.3306  0.4522 -0.7654
    2CHL1  H21A  127   3.007   2.745   9.149 -0.3076  0.7092 -1.5485
    2CHL1  H21B  128   2.977   2.610   9.029  1.2510  1.5059 -0.7494
    2CHL1  H21C  129   2.945   2.580   9.196  0.1312  2.2435  1.2212
    2CHL1   C22  130   2.787   2.781   8.961  0.2831  0.2549  0.0526
    2CHL1  H22A  131   2.682   2.813   8.946  0.1468 -0.0721  0.3096
    2CHL1  H22B  132   2.851   2.871   8.959  1.8284 -0.7117  2.1246
    2CHL1   C23  133   2.826   2.697   8.828  0.2546 -0.0953 -0.9454
    2CHL1  H23A  134   2.797   2.768   8.747 -1.8767  1.7155  1.2518
    2CHL1  H23B  135   2.933   2.668   8.836 -0.1028 -0.9797  1.1066
    2CHL1   C24  136   2.731   2.572   8.825  0.1546  0.6035 -0.5495
    2CHL1  H24A  137   2.775   2.493   8.889  0.8577  1.0724 -0.4431
    2CHL1  H24B  138   2.632   2.604   8.862  0.8693  1.9962  0.2531
    2CHL1   C25  139   2.727   2.513   8.687  0.3577  1.0212 -0.5595
    2CHL1   H25  140   2.665   2.578   8.622  0.5629 -0.8387 -2.7534
    2CHL1   C26  141   2.868   2.502   8.636 -0.5454  0.1716  0.6465
    2CHL1  H26A  142   2.925   2.595   8.619 -0.2251  0.6481  3.7528
    2CHL1  H26B  143   2.924   2.430   8.699  1.6967  1.7120  0.5227
    2CHL1  H26C  144   2.877   2.441   8.543  1.9723 -2.2315  2.3071
    2CHL1   C27  145   2.673   2.365   8.680 -0.6351  0.6480 -0.1123
    2CHL1  H27A  146   2.734   2.289   8.733 -1.0012  0.2693 -0.2299
    2CHL1  H27B  147   2.572   2.353   8.725 -0.0819 -0.0969  0.9879
    2CHL1  H27C  148   2.677   2.339   8.572  0.2260  2.0892 -0.4677
    3CHL1    C3  149   2.196   2.577  10.423  0.4838  0.1100 -0.3414
    3CHL1    H3  150   2.120   2.496  10.424 -0.9708  1.3666  1.9819
    3CHL1    O3  151   2.213   2.611  10.562 -0.6913 -0.2917  0.3354
    3CHL1   H3'  152   2.146   2.677  10.581 -0.4852  0.8488 -2.3383
    3CHL1    C4  153   2.328   2.535  10.362 -0.0133  0.7665 -0.7421
    3CHL1   H4A  154   2.397   2.621  10.372 -1.8469  2.1495  0.7776
    3CHL1   H4B  155   2.358   2.449  10.425 -1.7952  0.1854 -0.6419
    3CHL1    C5  156   2.311   2.499  10.217 -0.0333 -0.0567  0.3432
    3CHL1    C6  157   2.356   2.382  10.172  0.3913  0.0873  0.4669
    3CHL1    H6  158   2.401   2.312  10.244  0.7963  0.1749  0.3004
    3CHL1    C7  159   2.339   2.336  10.030  0.4183 -0.0608  0.4600
    3CHL1   H7A  160   2.423   2.272   9.995  1.0609  0.6285  0.7288
    3CHL1   H7B  161   2.253   2.265  10.030  1.3292 -1.3226 -2.0447
    3CHL1    C8  162   2.306   2.451   9.934  0.3474 -0.0077 -0.4060
    3CHL1    H8  163   2.403   2.503   9.919  0.7171  0.8710  3.6777
    3CHL1   C14  164   2.264   2.395   9.800 -0.5390 -0.3210  0.4351
    3CHL1   H14  165   2.171   2.339   9.824 -0.6470 -0.9001 -1.2322
    3CHL1   C15  166   2.359   2.297   9.738  0.6729 -0.0323  0.0356
    3CHL1  H15A  167   2.462   2.334   9.751  1.2256 -2.1937  2.7592
    3CHL1  H15B  168   2.356   2.197   9.787  2.3693  0.1163  0.4955
    3CHL1   C16  169   2.313   2.294   9.594  0.1968  0.0131  0.5063
    3CHL1  H16A  170   2.400   2.325   9.531  2.7940 -0.1109  3.7493
    3CHL1  H16B  171   2.279   2.194   9.558  0.9834 -0.6371  1.5148
    3CHL1   C17  172   2.206   2.406   9.579 -0.6042  0.3670  0.0856
    3CHL1   H17  173   2.118   2.341   9.600  0.5119 -0.7270  1.6259
    3CHL1   C13  174   2.226   2.499   9.698  0.6433  0.0744 -0.4618
    3CHL1   C18  175   2.342   2.599   9.673 -0.7697  0.0428  0.7614
    3CHL1  H18A  176   2.430   2.546   9.629 -2.4252 -0.2327 -2.4281
    3CHL1  H18B  177   2.304   2.680   9.609  2.0118  1.1063  0.3043
    3CHL1  H18C  178   2.378   2.643   9.769  0.9430 -0.7269  0.5113
    3CHL1   C12  179   2.094   2.573   9.753 -0.2167  0.4395  0.0008
    3CHL1  H12A  180   2.061   2.645   9.674 -3.6790  0.8630  1.6218
    3CHL1  H12B  181   2.013   2.500   9.774  1.0909 -1.8187 -2.3926
    3CHL1   C11  182   2.126   2.639   9.887 -0.3621  0.2615 -0.2983
    3CHL1  H11A  183   2.201   2.719   9.869 -1.0007  0.8236 -0.4882
    3CHL1  H11B  184   2.040   2.693   9.931 -0.1559  1.7727 -1.6442
    3CHL1    C9  185   2.198   2.540   9.998  0.5391 -0.9324  0.2633
    3CHL1    H9  186   2.110   2.475  10.020 -0.3550 -0.7535 -2.4208
    3CHL1   C10  187   2.241   2.606  10.129 -0.0750 -0.3056 -0.5965
    3CHL1   C19  188   2.339   2.716  10.103  0.3492 -0.2497  0.2412
    3CHL1  H19A  189   2.383   2.756  10.197  0.9461 -2.1851  0.8480
    3CHL1  H19B  190   2.416   2.710  10.022  0.9076  1.4343  0.5966
    3CHL1  H19C  191   2.273   2.796  10.064  0.0398 -0.9753 -0.7934
    3CHL1    C1  192   2.120   2.663  10.202  0.2220 -0.2744  0.6779
    3CHL1   H1A  193   2.095   2.755  10.144  0.3606  0.0098  1.0617
    3CHL1   H1B  194   2.037   2.591  10.185  0.9857 -1.0264  0.0397
    3CHL1    C2  195   2.139   2.698  10.351 -0.2035  0.0298  0.5468
    3CHL1   H2A  196   2.042   2.732  10.393 -2.4818 -2.8556 -1.9421
    3CHL1   H2B  197   2.209   2.782  10.369  0.6117 -0.7826  1.2605
    3CHL1   C20  198   2.202   2.461   9.440 -0.6466 -0.2105  0.5409
    3CHL1   H20  199   2.301   2.498   9.404 -0.1534 -1.4496  0.5800
    3CHL1   C21  200   2.098   2.574   9.426 -0.2380 -0.4716 -0.0399
    3CHL1  H21A  201   1.993   2.547   9.447 -0.7775  1.8385  0.4240
    3CHL1  H21B  202   2.109   2.627   9.329  1.0303 -0.0336  0.3184
    3CHL1  H21C  203   2.115   2.662   9.491 -0.0947 -2.0681  2.2122
    3CHL1   C22  204   2.160   2.346   9.343 -0.0080 -0.1693  0.8239
    3CHL1  H22A  205   2.226   2.257   9.349  1.6175  0.7507 -1.8640
    3CHL1  H22B  206   2.061   2.303   9.370  0.6206 -2.8092 -0.7886
    3CHL1   C23  207   2.160   2.385   9.195 -0.3674 -0.0221  0.0708
    3CHL1  H23A  208   2.133   2.292   9.140  1.4742 -0.3210 -0.4022
    3CHL1  H23B  209   2.084   2.465   9.183 -0.1822  0.3290  1.1227
    3CHL1   C24  210   2.294   2.431   9.137 -0.1957 -0.3940  0.3521
    3CHL1  H24A  211   2.281   2.487   9.042 -0.5537  1.5856  1.5016
    3CHL1  H24B  212   2.333   2.506   9.209 -1.0358 -1.8493  2.4295
    3CHL1   C25  213   2.396   2.318   9.104  0.2332  0.2740  0.4312
    3CHL1   H25  214   2.417   2.262   9.198 -0.1476 -2.1757 -0.8447
    3CHL1   C26  215   2.333   2.217   8.997  0.0864 -0.2763 -0.4532
    3CHL1  H26A  216   2.279   2.284   8.927  1.7019  1.3703 -0.1991
    3CHL1  H26B  217   2.414   2.156   8.952 -0.2354 -1.8425  1.0029
    3CHL1  H26C  218   2.264   2.145   9.047  1.4454 -2.6049 -1.7702
    3CHL1   C27  219   2.535   2.368   9.043  0.3676  0.0893  0.2229
    3CHL1  H27A  220   2.583   2.437   9.116  2.0774  0.0047 -0.7767
    3CHL1  H27B  221   2.593   2.274   9.035  0.4365  0.1742 -0.3247
    3CHL1  H27C  222   2.522   2.411   8.942 -0.3672 -0.6401  0.0001
    4CHL1    C3  223   3.618   3.347  10.612 -0.3313 -0.0799 -0.4067
    4CHL1    H3  224   3.618   3.237  10.593 -0.3445  0.2431 -2.4502
    4CHL1    O3  225   3.593   3.381  10.747 -0.4208 -0.2576 -0.0874
    4CHL1   H3'  226   3.620   3.474  10.744 -0.9394 -0.1173 -1.2720
    4CHL1    C4  227   3.766   3.385  10.571  0.3784  1.3036 -0.3058
    4CHL1   H4A  228   3.786   3.494  10.580 -0.0360  1.2881  0.9996
    4CHL1   H4B  229   3.823   3.321  10.642 -1.5805 -1.0839 -0.7539
    4CHL1    C5  230   3.785   3.336  10.429 -0.1452  0.2252  0.5451
    4CHL1    C6  231   3.895   3.262  10.387  0.1000  0.6103 -0.4334
    4CHL1    H6  232   3.960   3.224  10.467 -0.2789 -0.7860 -0.7561
    4CHL1    C7  233   3.927   3.220  10.244  0.1965 -0.0449 -0.3742
    4CHL1   H7A  234   4.037   3.224  10.229  0.6424 -1.2837  2.1073
    4CHL1   H7B  235   3.926   3.109  10.231  0.3590  0.0217 -1.0255
    4CHL1    C8  236   3.834   3.292  10.140  0.2665  0.1118 -0.5088
    4CHL1    H8  237   3.869   3.396  10.127  2.0178 -0.1333  1.6172
    4CHL1   C14  238   3.832   3.221  10.008  0.3169  0.0651  0.6702
    4CHL1   H14  239   3.771   3.131  10.032 -0.0745 -0.2835 -1.3909
    4CHL1   C15  240   3.962   3.162   9.942 -0.0950  0.5423  0.4881
    4CHL1  H15A  241   4.049   3.231   9.941 -0.0846  0.5506  1.1751
    4CHL1  H15B  242   3.982   3.073  10.005 -0.1108 -1.1342 -1.7407
    4CHL1   C16  243   3.926   3.120   9.801 -0.1459  0.1864 -0.2145
    4CHL1  H16A  244   3.984   3.166   9.718  0.4884 -0.3309 -0.0617
    4CHL1  H16B  245   3.941   3.010   9.799  1.9591  0.2759  3.3539
    4CHL1   C17  246   3.772   3.166   9.781 -0.0194  0.7621  0.0447
    4CHL1   H17  247   3.716   3.075   9.810 -0.5570  1.2066  0.4235
    4CHL1   C13  248   3.750   3.271   9.889  0.3218  0.7635 -0.3235
    4CHL1   C18  249   3.799   3.403   9.838 -0.2426 -0.8146  1.0085
    4CHL1  H18A  250   3.775   3.481   9.913  0.7201  0.1834  0.3155
    4CHL1  H18B  251   3.909   3.399   9.818 -0.5852 -0.7305 -1.0472
    4CHL1  H18C  252   3.745   3.429   9.745  0.4391 -2.0183  0.2428
    4CHL1   C12  253   3.608   3.286   9.947  0.3050  0.1299 -0.0210
    4CHL1  H12A  254   3.534   3.334   9.880 -0.4397  0.6702  1.1504
    4CHL1  H12B  255   3.562   3.186   9.960 -2.7823  1.7169  3.0846
    4CHL1   C11  256   3.591   3.357  10.083  0.0901 -0.4717  0.1112
    4CHL1  H11A  257   3.608   3.464  10.058  0.4630 -1.3920 -4.5487
    4CHL1  H11B  258   3.485   3.342  10.112  0.2814  0.7664  1.5385
    4CHL1    C9  259   3.692   3.308  10.193 -0.1056  0.0671  0.0050
    4CHL1    H9  260   3.650   3.207  10.213  0.0461  0.0032  0.0024
    4CHL1   C10  261   3.687   3.385  10.326  0.1007  0.1812  0.4506
    4CHL1   C19  262   3.727   3.538  10.308 -0.1165  0.4861  0.1609
    4CHL1  H19A  263   3.694   3.601  10.393 -0.3072 -1.2477  1.4188
    4CHL1  H19B  264   3.836   3.556  10.297  0.1556 -0.8931  0.4065
    4CHL1  H19C  265   3.684   3.584  10.217  1.0312 -1.7019 -1.5820
    4CHL1    C1  266   3.538   3.381  10.376  0.0046 -0.4835 -0.2941
    4CHL1   H1A  267   3.470   3.449  10.320  1.7768 -0.1324 -2.1433
    4CHL1   H1B  268   3.501   3.277  10.359 -2.6911  0.2429  0.5562
    4CHL1    C2  269   3.516   3.419  10.523  0.0289  0.3088  0.1021
    4CHL1   H2A  270   3.412   3.394  10.555  0.1604  0.2359  0.4828
    4CHL1   H2B  271   3.523   3.529  10.533 -1.7275  0.4061  0.5039
    4CHL1   C20  272   3.746   3.190   9.635 -0.2171 -0.5488 -0.8227
    4CHL1   H20  273   3.791   3.287   9.603 -1.1449  0.0519 -0.3847
    4CHL1   C21  274   3.597   3.216   9.630  0.0070  0.5244 -0.3195
    4CHL1  H21A  275   3.542   3.216   9.533  0.4987  1.5320 -0.6118
    4CHL1  H21B  276   3.571   3.313   9.678 -1.3450  0.2888 -0.5401
    4CHL1  H21C  277   3.540   3.138   9.685 -1.1575  2.6694  1.7003
    4CHL1   C22  278   3.788   3.072   9.545 -0.0559 -0.0543 -0.4995
    4CHL1  H22A  279   3.895   3.044   9.555 -0.4866 -2.6063 -2.1109
    4CHL1  H22B  280   3.730   2.984   9.578  2.0984 -1.6199 -0.6811
    4CHL1   C23  281   3.756   3.092   9.396 -0.6717  0.5652 -0.7450
    4CHL1  H23A  282   3.653   3.122   9.369  0.1139  2.1313 -2.2260
    4CHL1  H23B  283   3.814   3.179   9.359 -0.8131  1.5773  1.3029
    4CHL1   C24  284   3.802   2.966   9.317  0.5208  0.1592 -0.6463
    4CHL1  H24A  285   3.911   2.953   9.331  0.1781 -1.1860  1.0768
    4CHL1  H24B  286   3.748   2.882   9.366 -0.1187  0.9997  0.1177
    4CHL1   C25  287   3.756   2.950   9.165 -0.5062  0.0584  0.1454
    4CHL1   H25  288   3.809   2.860   9.126 -0.5018  0.0812  0.0978
    4CHL1   C26  289   3.612   2.910   9.166 -0.2369  0.7353 -0.3638
    4CHL1  H26A  290   3.616   2.806   9.204 -1.9601 -0.0521 -2.1764
    4CHL1  H26B  291   3.548   2.969   9.235  2.3467  2.2920  0.8514
    4CHL1  H26C  292   3.560   2.917   9.068 -0.9472 -0.1254 -0.0666
    4CHL1   C27  293   3.778   3.081   9.082  0.4745  0.7245  0.2798
    4CHL1  H27A  294   3.720   3.160   9.134  0.0227 -0.5900  1.8612
    4CHL1  H27B  295   3.885   3.111   9.075 -0.0001  2.4006 -0.2973
    4CHL1  H27C  296   3.742   3.072   8.977  1.8531  0.0122 -0.1628
    5CHL1    C3  297   3.543   0.423  10.236  0.2217 -0.2500  0.3444
    5CHL1    H3  298   3.482   0.331  10.247 -0.2441 -0.0805 -0.6884
    5CHL1    O3  299   3.586   0.481  10.353  0.0480 -0.1470 -0.0928
    5CHL1   H3'  300   3.607   0.574  10.345  1.1157 -0.4201 -0.7068
    5CHL1    C4  301   3.671   0.390  10.153  0.2786  0.3848 -0.5054
    5CHL1   H4A  302   3.748   0.470  10.151 -0.5407  1.2242  0.1781
    5CHL1   H4B  303   3.718   0.311  10.215 -0.1344  0.9274  0.5307
    5CHL1    C5  304   3.640   0.352  10.010  0.5053  0.4911  0.2957
    5CHL1    C6  305   3.683   0.233   9.962  0.4561 -0.1365  0.1804
    5CHL1    H6  306   3.755   0.169  10.015 -0.2016 -1.1614 -0.1444
    5CHL1    C7  307   3.653   0.189   9.822 -0.9271 -0.2427 -0.2176
    5CHL1   H7A  308   3.741   0.131   9.785 -0.2690 -0.4075  1.5038
    5CHL1   H7B  309   3.564   0.124   9.809 -1.1602  0.3887 -2.0625
    5CHL1    C8  310   3.617   0.312   9.725  0.2498  0.3927  0.1122
    5CHL1    H8  311   3.709   0.373   9.715 -0.1637  0.7428 -1.8465
    5CHL1   C14  312   3.572   0.264   9.590 -1.0788  0.2022 -0.2399
    5CHL1   H14  313   3.485   0.198   9.609  0.3919 -1.3903  1.3618
    5CHL1   C15  314   3.679   0.185   9.514  0.0243  0.2552  0.3439
    5CHL1  H15A  315   3.776   0.238   9.512 -0.2089  0.6728 -0.4472
    5CHL1  H15B  316   3.695   0.082   9.553  1.0463  1.0040  1.9669
    5CHL1   C16  317   3.617   0.175   9.371  0.3886  0.5294  0.4090
    5CHL1  H16A  318   3.689   0.204   9.291  2.9273 -1.3567  1.8654
    5CHL1  H16B  319   3.578   0.072   9.362 -0.9772  1.0064  0.7006
    5CHL1   C17  320   3.507   0.281   9.364  0.5429 -0.3772  0.1337
    5CHL1   H17  321   3.412   0.227   9.378 -0.2516 -0.0529 -3.1411
    5CHL1   C13  322   3.519   0.370   9.491 -0.1881  0.1655 -0.1248
    5CHL1   C18  323   3.621   0.476   9.468  0.5600  0.2464 -0.1547
    5CHL1  H18A  324   3.591   0.542   9.383 -0.8196 -0.4153 -0.2104
    5CHL1  H18B  325   3.644   0.536   9.559 -1.0581 -0.7730  0.9772
    5CHL1  H18C  326   3.714   0.435   9.425 -0.4757 -1.0779 -1.2085
    5CHL1   C12  327   3.388   0.439   9.555  0.3337  0.1871  0.9671
    5CHL1  H12A  328   3.331   0.520   9.503 -0.0417 -1.7987 -1.9759
    5CHL1  H12B  329   3.320   0.354   9.573 -1.5487  1.0486 -1.3854
    5CHL1   C11  330   3.429   0.493   9.693  0.6347  0.0369 -0.4539
    5CHL1  H11A  331   3.474   0.595   9.685  0.4581  0.2019  0.5545
    5CHL1  H11B  332   3.334   0.517   9.746  0.4809 -0.9774 -0.2609
    5CHL1    C9  333   3.508   0.395   9.791 -0.4617 -0.5712 -0.4320
    5CHL1    H9  334   3.425   0.325   9.815 -1.8239  0.8795 -0.7444
    5CHL1   C10  335   3.549   0.448   9.927  0.6286  0.3945  0.1942
    5CHL1   C19  336   3.631   0.575   9.905 -0.0805  0.9523 -0.2525
    5CHL1  H19A  337   3.563   0.656   9.872 -1.6319 -0.4882 -0.7221
    5CHL1  H19B  338   3.684   0.613   9.995  0.9900  2.0923 -1.3174
    5CHL1  H19C  339   3.707   0.558   9.825  0.9776  1.0840  0.6954
    5CHL1    C1  340   3.417   0.485  10.014 -0.1633  0.3001 -0.1910
    5CHL1   H1A  341   3.366   0.573   9.968 -2.2814  0.2962  1.9376
    5CHL1   H1B  342   3.352   0.396  10.012  0.8915 -0.5207  0.7431
    5CHL1    C2  343   3.455   0.522  10.161  0.5121  0.2842  0.0177
    5CHL1   H2A  344   3.356   0.534  10.210  1.5256  1.1211  1.9458
    5CHL1   H2B  345   3.510   0.619  10.163  0.8300  0.1021  0.1772
    5CHL1   C20  346   3.486   0.347   9.222 -0.3018 -0.2810 -0.2022
    5CHL1   H20  347   3.579   0.401   9.196 -1.2482  2.1624  1.1343
    5CHL1   C21  348   3.366   0.442   9.218  0.5951  0.0660 -0.1116
    5CHL1  H21A  349   3.339   0.479   9.116 -0.1880  2.0737  0.7639
    5CHL1  H21B  350   3.406   0.526   9.278  1.3204 -0.8137  0.6497
    5CHL1  H21C  351   3.274   0.398   9.263  0.4272  0.2712 -0.2513
    5CHL1   C22  352   3.454   0.231   9.123 -0.6834  0.4169 -0.1591
    5CHL1  H22A  353   3.538   0.157   9.126 -1.8200 -0.9127  2.4365
    5CHL1  H22B  354   3.356   0.185   9.149 -1.4060  1.8442 -0.2582
    5CHL1   C23  355   3.454   0.279   8.979  0.9308  0.4720  0.6851
    5CHL1  H23A  356   3.446   0.197   8.904 -0.0232 -0.5500  1.8682
    5CHL1  H23B  357   3.360   0.339   8.973 -0.9662 -2.3859 -0.1459
    5CHL1   C24  358   3.583   0.353   8.927 -0.4896  0.4846  0.3226
    5CHL1  H24A  359   3.601   0.440   8.994 -0.3756 -0.0807  1.0341
    5CHL1  H24B  360   3.666   0.280   8.939  1.0853  2.3824  1.6905
    5CHL1   C25  361   3.578   0.394   8.778  0.3588  0.4647 -0.1107
    5CHL1   H25  362   3.486   0.455   8.763  0.2197  0.4565  0.6618
    5CHL1   C26  363   3.707   0.463   8.744  0.5655  0.0872 -0.1848
    5CHL1  H26A  364   3.693   0.485   8.636 -1.4956  2.7912  0.5125
    5CHL1  H26B  365   3.706   0.555   8.806  0.1475 -0.4667  0.6494
    5CHL1  H26C  366   3.790   0.394   8.768  1.7000  0.4067 -2.8390
    5CHL1   C27  367   3.557   0.274   8.682 -0.1311 -0.3322  0.9661
    5CHL1  H27A  368   3.456   0.232   8.702  0.8035 -3.3164 -0.0138
    5CHL1  H27B  369   3.566   0.312   8.578  1.3415  3.3647  2.2977
    5CHL1  H27C  370   3.633   0.192   8.684 -1.2069 -1.4806 -0.9901
    6CHL1    C3  371   3.886   4.913  10.440  0.2049  0.2669 -0.1435
    6CHL1    H3  372   3.963   4.835  10.457 -1.2988 -1.1195  0.5682
    6CHL1    O3  373   3.834   4.963  10.562 -0.6630  0.3275  0.2117
    6CHL1   H3'  374   3.826   4.883  10.615  2.3127 -0.7156 -0.6395
    6CHL1    C4  375   3.934   5.032  10.348 -0.4474 -0.6015 -0.4150
    6CHL1   H4A  376   3.847   5.100  10.352  0.2278  0.2629  0.0401
    6CHL1   H4B  377   4.014   5.076  10.412 -0.4658 -1.1123 -0.0368
    6CHL1    C5  378   3.972   4.997  10.203  1.3543 -0.7866  0.4940
    6CHL1    C6  379   4.091   5.027  10.159 -0.0916 -0.2281  0.0960
    6CHL1    H6  380   4.167   5.085  10.214 -0.5964  1.6983 -1.1326
    6CHL1    C7  381   4.127   4.987  10.018  0.2392  0.0068  0.1944
    6CHL1   H7A  382   4.191   5.067   9.976 -3.0477  2.5509 -0.4315
    6CHL1   H7B  383   4.191   4.896  10.023  0.6676  0.3525  1.3130
    6CHL1    C8  384   4.012   4.960   9.924  0.3924 -0.4212  0.2003
    6CHL1    H8  385   3.958   5.056   9.907 -0.3385 -0.7050  0.8676
    6CHL1   C14  386   4.049   4.914   9.791 -0.7014  0.9310  0.2464
    6CHL1   H14  387   4.103   4.817   9.799 -2.2748 -0.0951 -1.0129
    6CHL1   C15  388   4.144   5.004   9.707  0.3703 -0.1093 -0.2764
    6CHL1  H15A  389   4.091   5.101   9.698 -0.8437 -0.5350  1.6686
    6CHL1  H15B  390   4.249   5.007   9.743 -0.2376  1.2724  1.5428
    6CHL1   C16  391   4.135   4.952   9.565  0.4866 -0.4035 -0.7224
    6CHL1  H16A  392   4.095   5.028   9.495 -2.8610 -1.6011 -0.3075
    6CHL1  H16B  393   4.229   4.909   9.524 -0.1729 -0.4112 -2.3155
    6CHL1   C17  394   4.021   4.844   9.566  0.1343  0.6895 -0.1089
    6CHL1   H17  395   4.075   4.748   9.579  0.2140  0.6506 -0.6899
    6CHL1   C13  396   3.937   4.874   9.694  0.4030  0.0961 -0.3796
    6CHL1   C18  397   3.832   4.992   9.661 -0.4502 -0.9842  0.6371
    6CHL1  H18A  398   3.793   5.031   9.757  1.9651 -0.4859  1.4947
    6CHL1  H18B  399   3.881   5.071   9.601 -0.6097  0.7983  2.7219
    6CHL1  H18C  400   3.742   4.951   9.610 -2.0275 -1.5571  3.6283
    6CHL1   C12  401   3.871   4.757   9.761 -0.0093  0.3535  0.7825
    6CHL1  H12A  402   3.792   4.721   9.692 -1.1286 -0.3390  2.3501
    6CHL1  H12B  403   3.937   4.668   9.770 -0.3553  0.1490  1.3758
    6CHL1   C11  404   3.820   4.793   9.897  0.2297  0.3470 -0.2412
    6CHL1  H11A  405   3.731   4.859   9.880  1.2551  1.7278 -0.4907
    6CHL1  H11B  406   3.778   4.701   9.942 -2.9549  0.3649 -2.7465
    6CHL1    C9  407   3.920   4.860   9.992  0.2107 -0.9075 -0.0883
    6CHL1    H9  408   3.984   4.774  10.022  1.0119 -1.1969 -2.4470
    6CHL1   C10  409   3.862   4.921  10.123  0.4394 -0.8898 -0.4808
    6CHL1   C19  410   3.745   5.019  10.077 -0.7749  0.0376 -0.1342
    6CHL1  H19A  411   3.652   4.964  10.052 -0.6227 -0.6487  0.7457
    6CHL1  H19B  412   3.724   5.082  10.165  0.3803 -0.5817  0.6060
    6CHL1  H19C  413   3.765   5.080   9.986  0.4426 -1.1305 -0.6824
    6CHL1    C1  414   3.800   4.811  10.215 -0.6562  0.0344 -0.4415
    6CHL1   H1A  415   3.707   4.776  10.165 -0.6301  0.9489 -1.1423
    6CHL1   H1B  416   3.873   4.728  10.204  0.3287  0.6839  0.9569
    6CHL1    C2  417   3.769   4.840  10.362  0.0917 -0.8059 -0.0383
    6CHL1   H2A  418   3.735   4.755  10.424  0.1294  0.2136  1.4339
    6CHL1   H2B  419   3.692   4.920  10.351  1.3645  0.4812  0.0562
    6CHL1   C20  420   3.942   4.825   9.431 -0.2404  0.2620  0.4047
    6CHL1   H20  421   3.842   4.874   9.431 -0.8208 -0.8795 -0.6409
    6CHL1   C21  422   3.897   4.677   9.425  0.1209  0.1781 -0.7785
    6CHL1  H21A  423   3.873   4.650   9.320 -0.0391 -0.1517 -0.6582
    6CHL1  H21B  424   3.813   4.660   9.495 -0.8156  0.8727 -1.7103
    6CHL1  H21C  425   3.982   4.616   9.464  0.4747  0.1534 -1.5593
    6CHL1   C22  426   4.014   4.845   9.294 -0.5239  0.0363 -0.4129
    6CHL1  H22A  427   4.123   4.868   9.305 -0.7692  1.1380 -0.1667
    6CHL1  H22B  428   4.008   4.752   9.233  1.2999  1.0606 -2.3266
    6CHL1   C23  429   3.940   4.962   9.228 -0.0323 -0.0603 -0.1427
    6CHL1  H23A  430   3.836   4.928   9.209 -0.1167  0.6826 -1.0523
    6CHL1  H23B  431   3.944   5.048   9.298  0.5495  1.8741 -2.4168
    6CHL1   C24  432   4.009   5.007   9.095  0.4436 -0.1275 -0.9660
    6CHL1  H24A  433   3.960   5.098   9.054 -1.0285 -0.1412  0.6647
    6CHL1  H24B  434   4.111   5.049   9.110 -0.0305  0.9290 -0.6310
    6CHL1   C25  435   3.995   4.904   8.982  0.4227  0.7059  0.2500
    6CHL1   H25  436   4.042   4.808   9.014  1.3814  0.9073 -0.4994
    6CHL1   C26  437   3.842   4.892   8.949 -0.3248  0.2085 -0.8358
    6CHL1  H26A  438   3.785   4.985   8.929 -0.2614  0.1891 -1.1167
    6CHL1  H26B  439   3.828   4.824   8.862 -1.1253 -2.0371  0.9374
    6CHL1  H26C  440   3.794   4.841   9.035  1.3568  0.0952  0.0806
    6CHL1   C27  441   4.056   4.959   8.854 -0.1454 -0.3378  0.8687
    6CHL1  H27A  442   4.154   5.008   8.869  0.2114 -1.2628  1.6965
    6CHL1  H27B  443   4.062   4.876   8.781  1.2680 -0.7943  1.4779
    6CHL1  H27C  444   3.985   5.035   8.814 -0.9174 -1.0914  0.7727
    7CHL1    C3  445   4.876   2.752  10.421 -0.6147  0.0510 -0.0271
    7CHL1    H3  446   4.958   2.678  10.417  0.1855  0.8728  0.5907
    7CHL1    O3  447   4.859   2.802  10.556  0.3657  0.4857  0.5174
    7CHL1   H3'  448   4.901   2.888  10.559  0.0522  0.6395  0.5053
    7CHL1    C4  449   4.922   2.871  10.326 -0.4245 -0.0281 -0.0553
    7CHL1   H4A  450   4.859   2.960  10.348 -2.1746 -0.4219 -2.8791
    7CHL1   H4B  451   5.026   2.895  10.355  0.5156 -1.7514 -1.7522
    7CHL1    C5  452   4.910   2.846  10.179 -0.2037  0.3635 -0.0519
    7CHL1    C6  453   5.014   2.872  10.094  0.9922  0.1629  0.0327
    7CHL1    H6  454   5.107   2.910  10.139  0.4581 -1.5720  2.8279
    7CHL1    C7  455   5.011   2.847   9.948 -0.2127  0.1150 -0.5832
    7CHL1   H7A  456   5.048   2.940   9.900  0.4387  1.1967  1.8784
    7CHL1   H7B  457   5.069   2.757   9.920 -1.1302 -0.4160 -0.8316
    7CHL1    C8  458   4.863   2.834   9.897  0.1955 -0.2388 -0.1289
    7CHL1    H8  459   4.809   2.931   9.902  0.7392  0.0086  2.9205
    7CHL1   C14  460   4.864   2.784   9.752 -0.2141 -0.1383  0.9360
    7CHL1   H14  461   4.906   2.682   9.759  3.4228  1.2540  1.4818
    7CHL1   C15  462   4.962   2.841   9.643 -0.3874  0.5015  0.2190
    7CHL1  H15A  463   4.962   2.951   9.653  1.3747  0.7941 -2.2788
    7CHL1  H15B  464   5.056   2.784   9.658 -1.5811 -1.5474  0.3414
    7CHL1   C16  465   4.904   2.802   9.504  0.1353  0.0124 -0.3729
    7CHL1  H16A  466   4.888   2.888   9.436  0.0580 -0.4195 -0.9092
    7CHL1  H16B  467   4.972   2.728   9.456 -0.2996  0.9210 -2.4813
    7CHL1   C17  468   4.764   2.736   9.532 -0.3875 -0.5177  0.2932
    7CHL1   H17  469   4.784   2.627   9.530  0.5093 -0.3839  1.2904
    7CHL1   C13  470   4.734   2.779   9.674  0.4209  0.5598 -0.3265
    7CHL1   C18  471   4.676   2.918   9.669 -0.2780  0.2166 -0.6027
    7CHL1  H18A  472   4.584   2.931   9.608 -0.1989 -0.2689 -0.8242
    7CHL1  H18B  473   4.654   2.963   9.769  0.8691  2.1936 -1.1978
    7CHL1  H18C  474   4.750   2.988   9.625 -0.2050 -1.0713 -2.6555
    7CHL1   C12  475   4.640   2.683   9.757  0.1119 -0.0189 -1.2207
    7CHL1  H12A  476   4.536   2.684   9.718 -0.5655  0.8387  0.5124
    7CHL1  H12B  477   4.674   2.578   9.747 -2.8978 -1.0665 -1.3463
    7CHL1   C11  478   4.640   2.715   9.911  0.3228  0.5066  0.1962
    7CHL1  H11A  479   4.590   2.814   9.909 -0.2878  0.2038  0.3555
    7CHL1  H11B  480   4.570   2.658   9.976  1.3491 -1.2504 -0.1872
    7CHL1    C9  481   4.783   2.736   9.983  0.3654  0.0351 -0.3706
    7CHL1    H9  482   4.832   2.637   9.976 -0.9079 -0.6958  0.5729
    7CHL1   C10  483   4.777   2.790  10.128  0.1887 -0.3286  0.6385
    7CHL1   C19  484   4.677   2.903  10.132  0.1512 -0.7126  0.0966
    7CHL1  H19A  485   4.681   2.935  10.238 -1.0452 -3.6371  1.1467
    7CHL1  H19B  486   4.693   2.984  10.059 -0.3606 -0.5553  0.1565
    7CHL1  H19C  487   4.570   2.874  10.120 -0.2214  1.1308 -1.4362
    7CHL1    C1  488   4.743   2.669  10.222 -0.8131  0.7787 -0.8656
    7CHL1   H1A  489   4.638   2.640  10.198 -1.4766  2.8875 -0.6810
    7CHL1   H1B  490   4.804   2.578  10.204 -0.7575  0.8145 -0.8571
    7CHL1    C2  491   4.740   2.697  10.375 -0.6744  0.9768  0.6692
    7CHL1   H2A  492   4.720   2.605  10.434  0.8659  1.6583  2.3676
    7CHL1   H2B  493   4.669   2.781  10.387 -0.4817  0.9005  2.6371
    7CHL1   C20  494   4.660   2.755   9.416  0.2165 -0.1248  0.4218
    7CHL1   H20  495   4.627   2.861   9.427 -0.8331 -0.4407  0.4135
    7CHL1   C21  496   4.528   2.674   9.442  0.9515  0.6270  0.6226
    7CHL1  H21A  497   4.465   2.690   9.532 -0.9566 -2.0124 -0.1457
    7CHL1  H21B  498   4.553   2.571   9.410 -0.0984  0.3781  0.5781
    7CHL1  H21C  499   4.462   2.710   9.360 -0.4659  0.5043  1.6732
    7CHL1   C22  500   4.726   2.738   9.285  0.1054  0.1176  0.3500
    7CHL1  H22A  501   4.826   2.786   9.287  1.1353 -1.9584  1.2046
    7CHL1  H22B  502   4.741   2.629   9.270 -1.8312 -0.0998 -0.4153
    7CHL1   C23  503   4.649   2.794   9.165  0.4298  0.3270 -1.3410
    7CHL1  H23A  504   4.560   2.727   9.158  0.1397  0.1282  2.3026
    7CHL1  H23B  505   4.622   2.900   9.187 -2.3416 -0.2735 -1.5224
    7CHL1   C24  506   4.735   2.794   9.034 -0.4074 -0.0062 -0.3540
    7CHL1  H24A  507   4.824   2.858   9.051 -0.8224  0.5565 -0.2795
    7CHL1  H24B  508   4.776   2.691   9.022  0.1621  0.3153 -1.2166
    7CHL1   C25  509   4.668   2.863   8.906 -0.5801  0.6058  0.2484
    7CHL1   H25  510   4.648   2.969   8.933 -1.4734  0.4302  0.3134
    7CHL1   C26  511   4.762   2.876   8.782 -0.0181 -0.0630 -0.2017
    7CHL1  H26A  512   4.843   2.947   8.806 -0.4045  2.0819 -4.3329
    7CHL1  H26B  513   4.807   2.777   8.758 -1.1345 -0.1804 -1.9682
    7CHL1  H26C  514   4.713   2.912   8.689  0.5677  1.8229  0.1866
    7CHL1   C27  515   4.538   2.797   8.876  0.1042 -0.0279  0.1353
    7CHL1  H27A  516   4.556   2.693   8.844 -1.2308  0.6494 -3.2329
    7CHL1  H27B  517   4.463   2.782   8.957 -1.6977  0.9847 -1.2532
    7CHL1  H27C  518   4.481   2.832   8.787 -1.0499 -1.8783  0.1078
    8CHL1    C3  519   5.964   3.148  10.431  0.5056 -0.0698 -0.1763
    8CHL1    H3  520   5.973   3.258  10.419  0.1027 -0.0957 -0.7048
    8CHL1    O3  521   5.936   3.118  10.567 -0.6493 -0.1852  0.0774
    8CHL1   H3'  522   5.914   3.025  10.560 -1.2255 -0.2218  1.9624
    8CHL1    C4  523   5.853   3.082  10.349  0.5373  0.0188 -0.4836
    8CHL1   H4A  524   5.827   2.976  10.367 -2.3149  0.8430  0.8376
    8CHL1   H4B  525   5.758   3.131  10.379  0.6422 -1.0030  1.7030
    8CHL1    C5  526   5.882   3.111  10.203  1.0623 -0.0479  0.3509
    8CHL1    C6  527   5.807   3.190  10.127  0.7141  0.1606  0.8234
    8CHL1    H6  528   5.714   3.229  10.171 -0.1180 -1.5847  0.6986
    8CHL1    C7  529   5.832   3.211   9.980 -0.3136 -0.4028  0.2477
    8CHL1   H7A  530   5.737   3.200   9.923 -0.0830  0.7866 -0.4033
    8CHL1   H7B  531   5.863   3.317   9.972  0.2227 -0.6220 -0.7353
    8CHL1    C8  532   5.931   3.113   9.920 -0.2660  0.6789 -0.4243
    8CHL1    H8  533   5.884   3.015   9.899  2.0150 -0.2921 -1.3088
    8CHL1   C14  534   5.978   3.161   9.782 -0.3569 -0.1693  0.2537
    8CHL1   H14  535   6.046   3.248   9.798 -0.7504  0.5973 -1.9031
    8CHL1   C15  536   5.868   3.200   9.684  0.2787 -0.3305 -0.3724
    8CHL1  H15A  537   5.779   3.133   9.683 -1.3314  1.7169 -0.2096
    8CHL1  H15B  538   5.825   3.300   9.703 -1.3396 -0.7852 -1.3950
    8CHL1   C16  539   5.946   3.200   9.553  0.2907  0.1113  0.5733
    8CHL1  H16A  540   5.895   3.128   9.486  1.6357 -2.2917  1.9909
    8CHL1  H16B  541   5.942   3.299   9.503 -0.2128  0.2084  0.8003
    8CHL1   C17  542   6.085   3.141   9.578 -0.0409 -0.5324  0.0884
    8CHL1   H17  543   6.157   3.222   9.601 -0.3436 -0.0808 -0.5335
    8CHL1   C13  544   6.071   3.064   9.710  0.0624 -0.3401 -0.1483
    8CHL1   C18  545   6.013   2.929   9.684 -0.3935 -0.1252  0.6684
    8CHL1  H18A  546   6.079   2.863   9.623 -1.6480 -1.8155  1.1052
    8CHL1  H18B  547   5.992   2.863   9.770 -0.0471  1.1520  1.7598
    8CHL1  H18C  548   5.919   2.940   9.626  0.9299 -1.7347 -2.0080
    8CHL1   C12  549   6.205   3.040   9.792 -0.0551 -0.2560  0.1513
    8CHL1  H12A  550   6.274   2.966   9.747 -0.1619 -0.9434  1.0777
    8CHL1  H12B  551   6.257   3.136   9.810  1.3861 -1.4290  2.9298
    8CHL1   C11  552   6.164   2.998   9.935  0.1584  0.5560 -0.5483
    8CHL1  H11A  553   6.112   2.901   9.922 -2.2302  2.0442 -3.1399
    8CHL1  H11B  554   6.251   2.988  10.003 -1.0175  0.5791  1.0336
    8CHL1    C9  555   6.056   3.096  10.003 -0.2301 -0.5580  0.9303
    8CHL1    H9  556   6.112   3.192  10.008  0.4162 -0.9447  1.2915
    8CHL1   C10  557   6.020   3.059  10.151 -0.7790  0.6852  0.2771
    8CHL1   C19  558   6.006   2.904  10.151  0.4818 -0.2524 -0.7781
    8CHL1  H19A  559   5.940   2.876  10.066 -1.3275  0.6909  0.2615
    8CHL1  H19B  560   6.106   2.858  10.136 -0.0717 -1.6185 -0.4202
    8CHL1  H19C  561   5.977   2.851  10.245 -1.2898  0.6770 -0.7518
    8CHL1    C1  562   6.133   3.099  10.249 -0.1689 -0.3823  0.1828
    8CHL1   H1A  563   6.226   3.044  10.220  0.1973 -0.0020  0.6141
    8CHL1   H1B  564   6.155   3.208  10.252 -0.7138 -0.2628  3.5625
    8CHL1    C2  565   6.098   3.077  10.398  0.3834 -0.3449  0.3728
    8CHL1   H2A  566   6.184   3.105  10.462 -0.2486  1.1983  0.5929
    8CHL1   H2B  567   6.079   2.969  10.414  0.7724 -0.4232  0.3262
    8CHL1   C20  568   6.129   3.064   9.447  0.4954 -0.7356  0.3209
    8CHL1   H20  569   6.055   2.987   9.418  0.3825  0.2986 -2.3728
    8CHL1   C21  570   6.268   3.000   9.473 -0.3214  0.0377  0.3597
    8CHL1  H21A  571   6.329   3.077   9.526 -0.0358 -0.1508  0.3097
    8CHL1  H21B  572   6.316   2.978   9.375  0.8784  2.9894  0.1588
    8CHL1  H21C  573   6.272   2.910   9.537  0.0335  0.8365  1.4928
    8CHL1   C22  574   6.140   3.154   9.321 -0.1357 -0.3361 -0.7158
    8CHL1  H22A  575   6.065   3.236   9.314  0.0674 -0.2444 -2.0092
    8CHL1  H22B  576   6.236   3.209   9.327  0.0047 -0.6190 -0.3493
    8CHL1   C23  577   6.152   3.075   9.186  0.0883  0.2138 -0.2828
    8CHL1  H23A  578   6.244   3.013   9.196 -0.6707 -0.8622  0.2459
    8CHL1  H23B  579   6.063   3.009   9.181 -0.5523  0.9121  1.4470
    8CHL1   C24  580   6.171   3.157   9.060  0.3316  1.2367 -0.1470
    8CHL1  H24A  581   6.080   3.221   9.053  0.4297  1.2764 -1.1573
    8CHL1  H24B  582   6.253   3.232   9.057 -0.1253  1.8040  1.0462
    8CHL1   C25  583   6.181   3.073   8.931 -0.2231  0.0758  0.5844
    8CHL1   H25  584   6.255   2.990   8.943  2.6210  2.4813  0.9855
    8CHL1   C26  585   6.049   3.017   8.886  0.0782  0.2119  0.0876
    8CHL1  H26A  586   6.075   2.984   8.783 -0.6290  1.2273 -0.4231
    8CHL1  H26B  587   6.010   2.941   8.957 -0.7189  0.3882 -0.1565
    8CHL1  H26C  588   5.978   3.102   8.879  0.0273  0.2499  0.9836
    8CHL1   C27  589   6.236   3.162   8.816  0.6108 -0.4639  0.5380
    8CHL1  H27A  590   6.240   3.113   8.716 -0.9692  1.0063 -0.3135
    8CHL1  H27B  591   6.175   3.255   8.812  2.6954  0.9468 -1.0328
    8CHL1  H27C  592   6.334   3.208   8.840  0.5219 -0.5203  1.0259
    9CHL1    C3  593   1.648   6.578  10.128  0.2131  0.3270 -0.2015
    9CHL1    H3  594   1.728   6.516  10.083  0.4847 -0.4170  1.2526
    9CHL1    O3  595   1.687   6.600  10.265 -0.7340 -0.1013  0.4423
    9CHL1   H3'  596   1.749   6.530  10.288  0.3555  0.3438 -1.0022
    9CHL1    C4  597   1.626   6.707  10.051 -0.2905  0.5034  0.0077
    9CHL1   H4A  598   1.547   6.777  10.084 -1.1992  0.0568 -1.1768
    9CHL1   H4B  599   1.712   6.778  10.052  0.5732 -0.4706 -1.1725
    9CHL1    C5  600   1.585   6.675   9.911  0.0998 -0.5533  0.2642
    9CHL1    C6  601   1.654   6.726   9.806 -0.2125  0.2842 -0.1334
    9CHL1    H6  602   1.751   6.774   9.824  0.2506 -0.0752 -1.5074
    9CHL1    C7  603   1.615   6.690   9.667 -0.7908  0.5380  0.3019
    9CHL1   H7A  604   1.641   6.771   9.596  0.1013 -1.6773 -2.0589
    9CHL1   H7B  605   1.686   6.614   9.629 -3.0841 -1.2891 -0.5587
    9CHL1    C8  606   1.476   6.635   9.651  0.1349 -0.3230  0.0187
    9CHL1    H8  607   1.405   6.721   9.655  2.3380  1.6006 -0.1809
    9CHL1   C14  608   1.464   6.566   9.519 -0.0753  0.1034  0.3653
    9CHL1   H14  609   1.528   6.475   9.527  1.2420  0.7991 -1.5604
    9CHL1   C15  610   1.508   6.640   9.392  0.0402 -0.1977  0.0106
    9CHL1  H15A  611   1.472   6.745   9.398  0.1155 -0.2182  1.2066
    9CHL1  H15B  612   1.618   6.641   9.380 -0.1591 -0.3035 -2.1928
    9CHL1   C16  613   1.428   6.563   9.279 -1.4583 -0.7879  0.5749
    9CHL1  H16A  614   1.362   6.636   9.228  1.0044 -0.0646 -1.8326
    9CHL1  H16B  615   1.499   6.529   9.201  1.1686  0.7749  2.0978
    9CHL1   C17  616   1.341   6.462   9.342  0.0005  0.3680 -0.1786
    9CHL1   H17  617   1.395   6.365   9.348  3.2167  2.1107  2.5211
    9CHL1   C13  618   1.322   6.514   9.489 -0.2209 -0.4459  0.2275
    9CHL1   C18  619   1.225   6.643   9.484  0.5158  0.8744 -0.7760
    9CHL1  H18A  620   1.211   6.693   9.582 -1.9368  1.0524 -1.1706
    9CHL1  H18B  621   1.248   6.730   9.418  2.6512  0.5299 -0.5725
    9CHL1  H18C  622   1.122   6.604   9.469  0.1862  1.4919 -0.1763
    9CHL1   C12  623   1.288   6.412   9.590  0.9234  0.2724 -0.1530
    9CHL1  H12A  624   1.188   6.366   9.579  0.5311  0.7061  1.4525
    9CHL1  H12B  625   1.360   6.327   9.585  0.5563 -0.1186  1.0198
    9CHL1   C11  626   1.301   6.467   9.736  0.3414  0.6039 -0.3662
    9CHL1  H11A  627   1.222   6.545   9.736 -1.7220 -1.3450 -1.2485
    9CHL1  H11B  628   1.283   6.383   9.808  0.4147 -0.5503 -1.6533
    9CHL1    C9  629   1.444   6.531   9.760  0.5658 -0.0276  0.4754
    9CHL1    H9  630   1.508   6.442   9.740 -0.9770 -1.5463  1.9324
    9CHL1   C10  631   1.472   6.571   9.903 -0.0151  0.4327 -0.4323
    9CHL1   C19  632   1.344   6.641   9.940 -0.1452 -0.0122 -0.1100
    9CHL1  H19A  633   1.352   6.702  10.033 -0.8192 -0.4546  0.2481
    9CHL1  H19B  634   1.312   6.710   9.860 -0.9288 -0.1266  0.0993
    9CHL1  H19C  635   1.258   6.573   9.957 -1.0945  1.1382 -0.2452
    9CHL1    C1  636   1.485   6.444   9.987 -0.2533  0.1852 -0.0805
    9CHL1   H1A  637   1.394   6.380   9.989 -0.8725  1.0523  1.0687
    9CHL1   H1B  638   1.552   6.375   9.933 -1.8838 -0.8709 -0.8466
    9CHL1    C2  639   1.525   6.484  10.132  0.1562 -0.4225 -0.0417
    9CHL1   H2A  640   1.555   6.390  10.183  2.6663 -0.1996 -0.9705
    9CHL1   H2B  641   1.445   6.523  10.199 -0.4408 -2.1746  0.3405
    9CHL1   C20  642   1.219   6.439   9.248  0.0985  0.6567 -0.2223
    9CHL1   H20  643   1.139   6.515   9.256  1.4862  2.0875  0.5964
    9CHL1   C21  644   1.156   6.304   9.288 -0.0107  0.3325  0.4516
    9CHL1  H21A  645   1.132   6.305   9.397 -1.2258 -0.7531  0.2179
    9CHL1  H21B  646   1.220   6.219   9.257  0.1604  0.8263 -0.5692
    9CHL1  H21C  647   1.060   6.288   9.235  1.0702  1.4433 -1.9906
    9CHL1   C22  648   1.252   6.430   9.097 -0.1756 -0.4734 -0.0799
    9CHL1  H22A  649   1.284   6.533   9.069  3.8397 -0.7715  2.5453
    9CHL1  H22B  650   1.336   6.360   9.079  0.8599  0.7087 -0.0147
    9CHL1   C23  651   1.137   6.385   9.004 -0.2623  0.6803 -0.1340
    9CHL1  H23A  652   1.131   6.274   9.002  3.5094  0.2913  1.0231
    9CHL1  H23B  653   1.041   6.433   9.032  0.1770  0.7550  1.3445
    9CHL1   C24  654   1.159   6.423   8.854 -0.2608  0.8734  0.7264
    9CHL1  H24A  655   1.187   6.528   8.832 -1.2811  0.6600 -2.0310
    9CHL1  H24B  656   1.248   6.359   8.837 -1.7803 -1.1318 -0.2141
    9CHL1   C25  657   1.056   6.388   8.757  0.1454 -0.5356 -0.4553
    9CHL1   H25  658   1.014   6.287   8.775 -3.0227  0.9335  1.1110
    9CHL1   C26  659   0.939   6.483   8.784  0.4316 -0.2016 -0.6532
    9CHL1  H26A  660   0.980   6.586   8.782 -0.8243  0.4014  1.4292
    9CHL1  H26B  661   0.861   6.473   8.706  0.2833  0.4679 -0.5978
    9CHL1  H26C  662   0.892   6.476   8.884  0.3300  1.3387 -0.5745
    9CHL1   C27  663   1.116   6.393   8.616 -0.2457 -0.3758  0.1196
    9CHL1  H27A  664   1.222   6.360   8.616  0.3251  1.1889  2.7751
    9CHL1  H27B  665   1.070   6.327   8.539  0.8366  0.7988 -1.6240
    9CHL1  H27C  666   1.106   6.496   8.575 -4.5624 -0.3291  0.8024
   10CHL1    C3  667   0.783   3.118  10.050 -0.1452  0.5134 -0.4284
   10CHL1    H3  668   0.703   3.045  10.025  1.5019 -1.5238 -0.0211
   10CHL1    O3  669   0.796   3.151  10.191  0.3345 -0.6786 -0.4298
   10CHL1   H3'  670   0.884   3.190  10.193  0.1248 -0.2313  1.3759
   10CHL1    C4  671   0.911   3.062   9.982 -0.1077 -0.8718 -0.5493
   10CHL1   H4A  672   0.982   3.147   9.985 -0.8882 -0.2317  1.4347
   10CHL1   H4B  673   0.943   2.978  10.047 -1.4599 -0.4554  0.7206
   10CHL1    C5  674   0.886   3.024   9.837  0.4718 -0.4431  0.1226
   10CHL1    C6  675   0.918   2.901   9.786  0.8175 -0.0642 -0.8349
   10CHL1    H6  676   0.951   2.820   9.852  1.5070  0.4440 -0.5501
   10CHL1    C7  677   0.909   2.873   9.641  0.5948  0.5354  0.0684
   10CHL1   H7A  678   0.999   2.824   9.597  0.4664  2.8209 -3.1059
   10CHL1   H7B  679   0.813   2.820   9.627  0.7658 -0.0979  1.2342
   10CHL1    C8  680   0.896   2.994   9.544  0.7618  0.3844 -0.0951
   10CHL1    H8  681   0.992   3.048   9.534  0.3904  1.5290  1.8857
   10CHL1   C14  682   0.851   2.948   9.405 -0.3450 -0.3133  0.4277
   10CHL1   H14  683   0.762   2.886   9.430  3.0116 -5.3238  1.3280
   10CHL1   C15  684   0.948   2.853   9.325 -0.9384 -0.2563 -0.0406
   10CHL1  H15A  685   1.050   2.895   9.337 -1.1400  0.9606 -2.1214
   10CHL1  H15B  686   0.944   2.749   9.363  1.2503 -0.4316 -0.1422
   10CHL1   C16  687   0.885   2.855   9.186  0.0139 -0.1151  0.7623
   10CHL1  H16A  688   0.976   2.857   9.121  0.1949 -1.4773  0.9457
   10CHL1  H16B  689   0.822   2.766   9.168  0.8444 -0.2555 -1.8269
   10CHL1   C17  690   0.784   2.971   9.185 -0.0396  0.4741  0.0698
   10CHL1   H17  691   0.694   2.907   9.200 -1.0887  0.9304 -3.3215
   10CHL1   C13  692   0.811   3.055   9.308  0.7359  0.7015  0.3728
   10CHL1   C18  693   0.927   3.149   9.276 -0.2772 -0.2718 -0.3066
   10CHL1  H18A  694   1.010   3.091   9.230 -1.9602 -2.7599 -0.4428
   10CHL1  H18B  695   0.897   3.235   9.213  0.6257 -0.4380 -0.9822
   10CHL1  H18C  696   0.977   3.187   9.368  0.2194  2.0900 -1.4898
   10CHL1   C12  697   0.691   3.128   9.373 -0.5230  0.6416 -0.0883
   10CHL1  H12A  698   0.663   3.213   9.307  0.1808  1.2574  0.3859
   10CHL1  H12B  699   0.603   3.060   9.378 -1.3645  1.6835 -0.3730
   10CHL1   C11  700   0.722   3.188   9.512 -0.5502  0.2605 -0.3318
   10CHL1  H11A  701   0.794   3.271   9.498  0.4487 -0.4992  0.1965
   10CHL1  H11B  702   0.629   3.223   9.562 -1.1060  0.5509 -1.5389
   10CHL1    C9  703   0.790   3.091   9.610  0.2299 -0.4882  0.5919
   10CHL1    H9  704   0.710   3.020   9.643 -1.3585  0.4851 -1.0125
   10CHL1   C10  705   0.836   3.139   9.749  0.0205 -0.8688 -0.2181
   10CHL1   C19  706   0.950   3.240   9.734 -0.2390 -0.1708 -0.0372
   10CHL1  H19A  707   0.919   3.331   9.678  0.1308  0.0673  0.1419
   10CHL1  H19B  708   0.991   3.262   9.835  0.4963 -0.1172 -0.3387
   10CHL1  H19C  709   1.037   3.202   9.676 -0.6184 -3.1801  1.2070
   10CHL1    C1  710   0.715   3.198   9.826  0.1683 -0.2946 -0.1647
   10CHL1   H1A  711   0.670   3.283   9.769 -0.0820  0.0578  0.5522
   10CHL1   H1B  712   0.636   3.121   9.825  0.2587 -0.4285  1.1639
   10CHL1    C2  713   0.738   3.240   9.975  0.1895  0.0772 -0.3847
   10CHL1   H2A  714   0.643   3.281  10.014  1.5783  0.6387  2.6583
   10CHL1   H2B  715   0.814   3.320   9.988  0.0705  0.3402 -1.2129
   10CHL1   C20  716   0.776   3.031   9.040 -0.0715 -0.3731  0.2688
   10CHL1   H20  717   0.868   3.086   9.012  0.6262 -2.1383 -1.0743
   10CHL1   C21  718   0.654   3.126   9.036  0.9416 -0.8429  0.0453
   10CHL1  H21A  719   0.574   3.082   9.099 -0.3494  1.7235  0.3530
   10CHL1  H21B  720   0.617   3.128   8.931  0.8695 -1.1711  0.0642
   10CHL1  H21C  721   0.684   3.227   9.070 -1.2246  0.6613 -2.1330
   10CHL1   C22  722   0.747   2.930   8.925 -0.5254 -0.5587 -0.3031
   10CHL1  H22A  723   0.814   2.841   8.932 -2.2327 -1.7448  2.3773
   10CHL1  H22B  724   0.646   2.890   8.946 -0.8632 -0.5628 -1.7927
   10CHL1   C23  725   0.745   2.976   8.776  0.7529  0.1136 -0.2790
   10CHL1  H23A  726   0.682   3.066   8.766 -1.3238 -0.7687  3.1136
   10CHL1  H23B  727   0.852   3.003   8.763  1.0042 -0.6966  0.0205
   10CHL1   C24  728   0.703   2.860   8.683 -0.6963 -0.7943 -0.9490
   10CHL1  H24A  729   0.773   2.775   8.699 -0.1505  0.1238  2.3320
   10CHL1  H24B  730   0.600   2.826   8.706 -0.8285  0.7007  0.8760
   10CHL1   C25  731   0.696   2.905   8.535  0.5017  0.5375 -0.0539
   10CHL1   H25  732   0.799   2.933   8.503 -0.1177  2.6137 -0.3919
   10CHL1   C26  733   0.663   2.788   8.442 -0.0799 -0.0538 -0.4101
   10CHL1  H26A  734   0.556   2.767   8.461  0.2124  0.8038  2.7778
   10CHL1  H26B  735   0.673   2.803   8.332  0.6350  0.2826 -0.3079
   10CHL1  H26C  736   0.724   2.701   8.472  0.9950  1.6323  2.7864
   10CHL1   C27  737   0.604   3.018   8.513 -0.4619 -0.1494 -0.1219
   10CHL1  H27A  738   0.644   3.111   8.559 -0.9983  0.2530 -0.4493
   10CHL1  H27B  739   0.594   3.044   8.406  0.3917  1.7502  0.2127
   10CHL1  H27C  740   0.507   3.000   8.565 -1.2502 -0.3442 -1.6123
   11CHL1    C3  741   3.473   5.716  10.195 -1.0478 -0.2005 -0.0824
   11CHL1    H3  742   3.576   5.679  10.177 -1.3812 -1.3576  0.2784
   11CHL1    O3  743   3.426   5.728  10.331 -0.1971 -0.9281 -0.8210
   11CHL1   H3'  744   3.455   5.648  10.377  0.7113 -0.5329 -0.6719
   11CHL1    C4  745   3.445   5.853  10.130 -0.0668  0.2253 -0.2995
   11CHL1   H4A  746   3.344   5.890  10.161 -0.0270 -1.1618  1.6409
   11CHL1   H4B  747   3.509   5.926  10.184  1.5211 -1.1632 -0.2447
   11CHL1    C5  748   3.465   5.854   9.979  1.0244 -0.1863  0.5527
   11CHL1    C6  749   3.551   5.940   9.928  0.7998 -0.2621  0.3830
   11CHL1    H6  750   3.605   6.013   9.990 -1.0072 -1.1824  3.2331
   11CHL1    C7  751   3.565   5.956   9.776 -0.1257 -0.0481  0.1483
   11CHL1   H7A  752   3.545   6.061   9.745  1.1406  0.5092  1.0942
   11CHL1   H7B  753   3.672   5.937   9.755  0.9357  2.1274  2.8779
   11CHL1    C8  754   3.461   5.872   9.696 -0.2752  0.0832  0.2831
   11CHL1    H8  755   3.365   5.926   9.709  0.0408  0.3950  1.3993
   11CHL1   C14  756   3.510   5.859   9.554  0.2037  0.2714  0.3810
   11CHL1   H14  757   3.609   5.810   9.571  1.3526  1.7230 -1.7310
   11CHL1   C15  758   3.528   5.989   9.473  0.7244  0.7112 -0.2320
   11CHL1  H15A  759   3.442   6.055   9.498  2.0107  1.4785  2.4905
   11CHL1  H15B  760   3.619   6.051   9.490  1.9796 -0.9483 -0.6491
   11CHL1   C16  761   3.532   5.934   9.335  0.3743  0.4690 -0.4084
   11CHL1  H16A  762   3.472   6.004   9.273  1.9106  0.5816 -1.8238
   11CHL1  H16B  763   3.632   5.942   9.289  0.4980 -0.6617 -0.3711
   11CHL1   C17  764   3.474   5.785   9.327  0.4337  0.6601 -0.0262
   11CHL1   H17  765   3.567   5.724   9.323 -0.1643 -0.2076 -2.1704
   11CHL1   C13  766   3.420   5.765   9.463  0.0510 -0.3441 -0.2160
   11CHL1   C18  767   3.272   5.821   9.463 -0.4705 -0.1084 -0.3000
   11CHL1  H18A  768   3.208   5.748   9.409 -0.2531 -2.3574  2.2500
   11CHL1  H18B  769   3.232   5.828   9.567  2.6727  2.8812  0.9088
   11CHL1  H18C  770   3.280   5.918   9.410 -1.3946  0.1885  0.0767
   11CHL1   C12  771   3.420   5.626   9.526  0.6248  0.8318 -0.2076
   11CHL1  H12A  772   3.376   5.541   9.471 -0.2779  0.4425  1.0778
   11CHL1  H12B  773   3.526   5.592   9.531  0.1396 -0.8882 -0.9558
   11CHL1   C11  774   3.371   5.626   9.674 -0.7145 -0.5832  0.2410
   11CHL1  H11A  775   3.260   5.638   9.674 -1.2016 -3.5323 -2.3121
   11CHL1  H11B  776   3.384   5.523   9.715  0.8755 -0.3990  0.2317
   11CHL1    C9  777   3.439   5.737   9.764 -0.2410  0.3608 -0.0340
   11CHL1    H9  778   3.542   5.695   9.768 -0.2777 -0.0731 -2.3569
   11CHL1   C10  779   3.388   5.741   9.905  0.0209 -0.6942 -0.0291
   11CHL1   C19  780   3.238   5.791   9.914 -0.1374  0.6692 -0.3718
   11CHL1  H19A  781   3.164   5.718   9.873  1.1521 -0.6401 -0.4516
   11CHL1  H19B  782   3.213   5.814  10.020 -0.4999  1.4571 -0.6247
   11CHL1  H19C  783   3.208   5.886   9.865 -0.8999 -0.3756 -2.0553
   11CHL1    C1  784   3.416   5.607   9.982  0.6498  0.0915 -0.9955
   11CHL1   H1A  785   3.366   5.517   9.940  1.3231 -0.7393 -0.0368
   11CHL1   H1B  786   3.525   5.589   9.971  0.7217  0.2835 -0.6188
   11CHL1    C2  787   3.386   5.607  10.133 -0.3152 -0.2641 -0.6932
   11CHL1   H2A  788   3.397   5.504  10.174 -1.4391 -0.1576 -0.0776
   11CHL1   H2B  789   3.281   5.635  10.158  0.1240 -0.8107  2.1612
   11CHL1   C20  790   3.389   5.747   9.202 -0.8929  0.2910 -0.3157
   11CHL1   H20  791   3.304   5.817   9.191 -3.2066 -1.7692  2.7329
   11CHL1   C21  792   3.359   5.598   9.206  0.5788  0.5425 -0.0362
   11CHL1  H21A  793   3.301   5.567   9.295 -0.4808 -1.3296 -1.3056
   11CHL1  H21B  794   3.442   5.524   9.200 -0.3512 -0.7467  2.0721
   11CHL1  H21C  795   3.293   5.565   9.123 -2.0567  0.0685  2.1315
   11CHL1   C22  796   3.478   5.768   9.073  0.7239 -0.2156 -0.1963
   11CHL1  H22A  797   3.547   5.855   9.082 -0.7026  0.7518  2.9581
   11CHL1  H22B  798   3.549   5.683   9.062 -0.3809 -1.0879 -0.7403
   11CHL1   C23  799   3.384   5.792   8.949  0.0845  0.3753  0.4566
   11CHL1  H23A  800   3.320   5.703   8.939  0.7139 -0.0768  0.3733
   11CHL1  H23B  801   3.302   5.865   8.963 -2.1681 -2.2254  1.7749
   11CHL1   C24  802   3.463   5.814   8.819  0.6938 -0.9118  0.2328
   11CHL1  H24A  803   3.514   5.912   8.827 -0.1066 -0.5864  1.7934
   11CHL1  H24B  804   3.540   5.734   8.824  0.3853 -1.2181  0.1438
   11CHL1   C25  805   3.398   5.786   8.683  0.5515  0.2215  0.1212
   11CHL1   H25  806   3.299   5.838   8.677  0.0986 -0.7355 -1.2377
   11CHL1   C26  807   3.492   5.840   8.572  0.1482 -0.0418 -0.0995
   11CHL1  H26A  808   3.445   5.832   8.472  0.7778  1.8367 -0.5840
   11CHL1  H26B  809   3.512   5.949   8.586  0.1285 -0.2839  2.1742
   11CHL1  H26C  810   3.586   5.780   8.563  0.1864  0.0337 -0.2095
   11CHL1   C27  811   3.375   5.633   8.654 -0.8271 -0.5601  0.3262
   11CHL1  H27A  812   3.476   5.590   8.667  0.6810  2.5759 -0.0244
   11CHL1  H27B  813   3.298   5.589   8.720 -0.5087  1.3077  2.0562
   11CHL1  H27C  814   3.341   5.616   8.549 -1.0821 -0.6881  0.4297
   12CHL1    C3  815   6.445   4.193  10.350 -0.3404 -0.4450  0.6466
   12CHL1    H3  816   6.553   4.204  10.326  0.3191  0.2631  3.5474
   12CHL1    O3  817   6.422   4.232  10.488  0.0852  0.4136 -0.2126
   12CHL1   H3'  818   6.479   4.180  10.545 -0.2235 -0.2889 -0.5482
   12CHL1    C4  819   6.358   4.293  10.266 -0.2824 -0.6951  0.8896
   12CHL1   H4A  820   6.254   4.290  10.303 -0.9497  0.8703 -0.7302
   12CHL1   H4B  821   6.393   4.397  10.286 -1.5117  0.4072 -2.1107
   12CHL1    C5  822   6.370   4.263  10.118 -0.3388  0.2096 -0.4529
   12CHL1    C6  823   6.404   4.361  10.029 -0.3148  0.2756 -0.2965
   12CHL1    H6  824   6.418   4.464  10.064 -0.2196  0.5074 -1.0027
   12CHL1    C7  825   6.420   4.335   9.884  0.4061  0.1434 -0.6206
   12CHL1   H7A  826   6.378   4.424   9.832 -1.8826 -1.1485 -1.1226
   12CHL1   H7B  827   6.529   4.324   9.862  0.6680 -2.9514  1.4706
   12CHL1    C8  828   6.335   4.212   9.839 -0.4413 -0.3442  0.2452
   12CHL1    H8  829   6.227   4.239   9.844 -1.2479 -2.4785 -2.7079
   12CHL1   C14  830   6.381   4.174   9.699  0.0738  0.2904  0.4156
   12CHL1   H14  831   6.490   4.152   9.703  0.4880  1.8953 -0.8082
   12CHL1   C15  832   6.356   4.287   9.598  0.3153 -0.4736 -0.2952
   12CHL1  H15A  833   6.257   4.329   9.624 -1.1456 -3.8378  0.0585
   12CHL1  H15B  834   6.437   4.363   9.594 -0.2107  0.0947 -0.2124
   12CHL1   C16  835   6.351   4.206   9.466  0.2462  0.2335  0.7128
   12CHL1  H16A  836   6.269   4.238   9.398  0.5795  0.9696  0.6553
   12CHL1  H16B  837   6.444   4.216   9.406 -0.6571 -0.5854 -0.9158
   12CHL1   C17  838   6.347   4.051   9.493 -0.3600 -0.1653 -0.3491
   12CHL1   H17  839   6.452   4.017   9.492 -0.0559  0.7605 -0.1189
   12CHL1   C13  840   6.305   4.044   9.645 -0.9411 -0.7276  0.3823
   12CHL1   C18  841   6.149   4.059   9.656 -0.6602 -0.2436  0.0581
   12CHL1  H18A  842   6.120   4.153   9.605  0.8904 -0.0617 -0.5178
   12CHL1  H18B  843   6.094   3.977   9.604 -0.1386 -0.4267 -0.2035
   12CHL1  H18C  844   6.109   4.056   9.760  0.0500 -0.9560  0.3121
   12CHL1   C12  845   6.364   3.924   9.720 -0.3510  0.5818 -1.5297
   12CHL1  H12A  846   6.316   3.833   9.679  2.3461 -1.1777 -0.9999
   12CHL1  H12B  847   6.473   3.914   9.707 -0.3227 -0.3238 -0.7314
   12CHL1   C11  848   6.336   3.950   9.872  0.3316 -0.2733 -0.7618
   12CHL1  H11A  849   6.235   3.914   9.903  0.3914 -1.7545 -2.1558
   12CHL1  H11B  850   6.391   3.871   9.929  1.0579  0.5004 -0.3616
   12CHL1    C9  851   6.368   4.090   9.931 -0.0531 -0.5775  0.1682
   12CHL1    H9  852   6.479   4.095   9.940 -0.1554 -0.3580  1.4079
   12CHL1   C10  853   6.338   4.118  10.076 -0.2222  0.2128  0.3356
   12CHL1   C19  854   6.185   4.086  10.096 -0.0777  0.7918 -0.0377
   12CHL1  H19A  855   6.148   4.114  10.197 -1.2392 -1.0194  0.0845
   12CHL1  H19B  856   6.133   4.146  10.019  0.2900  0.3888 -0.6093
   12CHL1  H19C  857   6.159   3.979  10.083  0.7030  0.2778  2.1955
   12CHL1    C1  858   6.428   4.023  10.167 -0.7092  0.1254 -0.2714
   12CHL1   H1A  859   6.411   3.915  10.148 -0.1383 -0.2058  1.0098
   12CHL1   H1B  860   6.533   4.032  10.131 -0.7622  2.3901 -0.0386
   12CHL1    C2  861   6.416   4.049  10.321 -0.3369 -0.5219  0.0904
   12CHL1   H2A  862   6.485   3.988  10.384 -1.1024 -0.0008  1.4749
   12CHL1   H2B  863   6.313   4.027  10.356 -1.2945  2.2796 -0.7068
   12CHL1   C20  864   6.283   3.966   9.385 -0.4887 -0.3067 -0.2351
   12CHL1   H20  865   6.175   3.992   9.376  0.0213  1.3266 -2.0183
   12CHL1   C21  866   6.293   3.815   9.416 -0.4864 -0.1941  0.5601
   12CHL1  H21A  867   6.396   3.781   9.439 -0.9353 -0.6443  2.0406
   12CHL1  H21B  868   6.251   3.765   9.326 -1.8573  2.3252 -0.3002
   12CHL1  H21C  869   6.233   3.788   9.506  0.9412  0.1006  1.6356
   12CHL1   C22  870   6.333   3.985   9.239 -0.7108  0.2283 -0.1902
   12CHL1  H22A  871   6.375   4.087   9.232 -0.3145  0.0419 -0.5610
   12CHL1  H22B  872   6.422   3.920   9.228  0.8017  2.2570 -0.4792
   12CHL1   C23  873   6.233   3.958   9.131  0.0652  0.4767  0.3925
   12CHL1  H23A  874   6.215   3.848   9.131  1.9325  0.1279  0.1650
   12CHL1  H23B  875   6.136   4.003   9.159  0.3040  0.5363  1.1422
   12CHL1   C24  876   6.279   4.011   8.997 -0.2601 -0.6025 -0.6945
   12CHL1  H24A  877   6.303   4.119   9.010 -0.7373 -0.5438 -0.2915
   12CHL1  H24B  878   6.367   3.953   8.961  0.3323 -0.4031  0.3990
   12CHL1   C25  879   6.179   3.989   8.876 -1.3011 -0.2136 -0.3027
   12CHL1   H25  880   6.146   3.884   8.892 -0.1037 -0.8732 -1.8855
   12CHL1   C26  881   6.069   4.090   8.879  0.4450 -0.0642 -0.0023
   12CHL1  H26A  882   6.020   4.085   8.979  1.6195  0.3653  0.6181
   12CHL1  H26B  883   6.119   4.189   8.866  2.0235 -0.6301  1.3997
   12CHL1  H26C  884   6.007   4.076   8.789  2.5796 -0.2920 -1.5208
   12CHL1   C27  885   6.254   4.000   8.746 -0.0150  0.3263  1.1606
   12CHL1  H27A  886   6.185   3.956   8.672  0.2200  1.7813  0.0227
   12CHL1  H27B  887   6.282   4.105   8.721  0.0609 -0.4587 -2.5256
   12CHL1  H27C  888   6.350   3.947   8.737  1.0613  2.3597 -0.2534
   13CHL1    C3  889   0.645   5.360   9.913  0.7082  0.0188 -0.6684
   13CHL1    H3  890   0.535   5.373   9.905  0.5171 -1.3086 -0.2614
   13CHL1    O3  891   0.678   5.362  10.049  0.0465 -0.2302  0.1255
   13CHL1   H3'  892   0.770   5.335  10.054 -0.0204 -0.3158  1.2788
   13CHL1    C4  893   0.705   5.231   9.856 -0.1151 -0.0458  0.5005
   13CHL1   H4A  894   0.811   5.232   9.889 -0.7820  2.9917  2.9977
   13CHL1   H4B  895   0.663   5.138   9.900 -0.2759 -0.9333 -1.4269
   13CHL1    C5  896   0.693   5.236   9.707 -0.3736  0.1814 -0.2307
   13CHL1    C6  897   0.629   5.130   9.648  0.0415  0.1968  1.1407
   13CHL1    H6  898   0.595   5.043   9.705 -1.6502 -2.2140 -3.1135
   13CHL1    C7  899   0.615   5.122   9.498  0.8183  0.2917  0.0661
   13CHL1   H7A  900   0.647   5.020   9.468  2.3608  1.1522 -1.3765
   13CHL1   H7B  901   0.510   5.140   9.464  1.2251  1.3532 -0.6869
   13CHL1    C8  902   0.693   5.224   9.411  0.0459 -0.5931  0.3689
   13CHL1    H8  903   0.800   5.197   9.412 -0.0618 -1.3853 -2.1359
   13CHL1   C14  904   0.638   5.244   9.274  0.1341  0.3363  0.2789
   13CHL1   H14  905   0.537   5.287   9.285 -0.5547 -1.0263 -0.4768
   13CHL1   C15  906   0.614   5.121   9.184  0.2087 -0.2901  0.0918
   13CHL1  H15A  907   0.694   5.047   9.202 -2.1247 -2.6296  1.5609
   13CHL1  H15B  908   0.520   5.069   9.213 -0.9130  1.7055  0.1958
   13CHL1   C16  909   0.627   5.178   9.036 -0.4952 -0.5876  0.0102
   13CHL1  H16A  910   0.715   5.128   8.990  0.2409 -0.1781  0.9485
   13CHL1  H16B  911   0.529   5.169   8.984 -0.7018  2.8964 -0.4027
   13CHL1   C17  912   0.673   5.331   9.047  0.6586 -0.0668  0.2552
   13CHL1   H17  913   0.576   5.385   9.043  0.1811 -0.9157  0.1642
   13CHL1   C13  914   0.727   5.340   9.191 -0.0069  0.2952  0.1390
   13CHL1   C18  915   0.869   5.284   9.185 -0.6597 -0.5228 -0.1065
   13CHL1  H18A  916   0.869   5.180   9.146  0.8292 -1.1945  1.5077
   13CHL1  H18B  917   0.929   5.352   9.121 -0.4699  0.3048  0.9378
   13CHL1  H18C  918   0.939   5.271   9.271  1.7204 -0.6836 -1.9640
   13CHL1   C12  919   0.721   5.483   9.256  0.6083  0.4867 -0.7108
   13CHL1  H12A  920   0.782   5.558   9.202  1.2401  0.1694 -0.4465
   13CHL1  H12B  921   0.617   5.519   9.242  0.4750  0.4702  0.1397
   13CHL1   C11  922   0.769   5.471   9.402 -0.3020  0.0418  0.0031
   13CHL1  H11A  923   0.876   5.442   9.391 -0.2673  0.9749 -2.9522
   13CHL1  H11B  924   0.756   5.563   9.462 -0.1763 -1.7427  2.9780
   13CHL1    C9  925   0.692   5.364   9.478 -0.3569  0.3998 -0.4334
   13CHL1    H9  926   0.591   5.407   9.493  0.0529  0.9468  0.9349
   13CHL1   C10  927   0.745   5.360   9.625  0.5308 -0.0146  0.7954
   13CHL1   C19  928   0.905   5.372   9.630 -0.1521 -0.2067  0.5718
   13CHL1  H19A  929   0.951   5.470   9.603 -1.4738 -0.0640 -1.3573
   13CHL1  H19B  930   0.941   5.315   9.718 -3.4421 -2.1764  0.7931
   13CHL1  H19C  931   0.936   5.305   9.548 -1.1082  0.2381 -0.1760
   13CHL1    C1  932   0.686   5.489   9.697 -0.3977 -0.0473  0.1902
   13CHL1   H1A  933   0.724   5.583   9.653  2.0280  0.0563  2.2884
   13CHL1   H1B  934   0.576   5.493   9.682 -0.7535 -1.0827  2.1892
   13CHL1    C2  935   0.705   5.482   9.850 -0.4132 -0.7044  0.3816
   13CHL1   H2A  936   0.676   5.582   9.889  0.6240 -0.2720  0.0989
   13CHL1   H2B  937   0.815   5.481   9.867 -0.3406  2.6664  0.8663
   13CHL1   C20  938   0.763   5.386   8.926  0.1430  0.1448  0.0381
   13CHL1   H20  939   0.866   5.345   8.930  0.3895  0.5258 -1.6060
   13CHL1   C21  940   0.752   5.541   8.928 -0.1456  0.1694  0.2806
   13CHL1  H21A  941   0.790   5.600   8.842 -1.2342  0.0541 -0.2996
   13CHL1  H21B  942   0.815   5.576   9.013  2.0105 -0.7994 -0.8517
   13CHL1  H21C  943   0.647   5.573   8.943 -0.1881 -0.3336  1.1558
   13CHL1   C22  944   0.704   5.345   8.780 -0.3916 -0.4959 -0.9793
   13CHL1  H22A  945   0.685   5.236   8.780 -2.5782 -0.1628 -0.4491
   13CHL1  H22B  946   0.602   5.390   8.783  0.2080  0.8928 -0.6589
   13CHL1   C23  947   0.780   5.374   8.661  0.2816 -0.4927  0.2193
   13CHL1  H23A  948   0.827   5.475   8.662  0.0431 -0.3812  0.3529
   13CHL1  H23B  949   0.871   5.312   8.651  1.8910  1.8916 -1.0024
   13CHL1   C24  950   0.697   5.352   8.530  0.1663  0.0667  0.0392
   13CHL1  H24A  951   0.679   5.245   8.509 -1.9793  0.0926  1.4153
   13CHL1  H24B  952   0.596   5.389   8.558  0.9981  2.2487  0.4172
   13CHL1   C25  953   0.735   5.435   8.411 -0.9074 -0.4287 -0.1124
   13CHL1   H25  954   0.743   5.537   8.454  0.7484 -0.8847  0.7468
   13CHL1   C26  955   0.877   5.374   8.360  0.2277 -0.3966 -0.2765
   13CHL1  H26A  956   0.955   5.403   8.434  0.2556  2.8095 -1.3726
   13CHL1  H26B  957   0.872   5.269   8.326 -1.4962 -0.7559  0.9816
   13CHL1  H26C  958   0.914   5.444   8.281  1.0086  2.6734  2.5931
   13CHL1   C27  959   0.626   5.436   8.305 -0.4933  0.4899  0.1141
   13CHL1  H27A  960   0.599   5.337   8.261  1.2539  0.2471 -0.4759
   13CHL1  H27B  961   0.534   5.481   8.348 -1.0238  0.4864 -0.9789
   13CHL1  H27C  962   0.664   5.493   8.218 -0.9100  1.0418  0.2874
   14CHL1    C3  963   4.104   2.572  10.317 -0.5237  0.1766 -0.1908
   14CHL1    H3  964   4.124   2.464  10.300  0.2867 -0.3477  3.2953
   14CHL1    O3  965   4.129   2.600  10.454 -0.0581 -0.2692 -0.2767
   14CHL1   H3'  966   4.059   2.665  10.461  0.0850 -0.1658  0.2524
   14CHL1    C4  967   4.194   2.657  10.232 -0.8790 -0.6493  0.3780
   14CHL1   H4A  968   4.184   2.761  10.271 -1.9760 -1.4000  2.1863
   14CHL1   H4B  969   4.298   2.628  10.259 -0.7379 -3.3847 -2.5833
   14CHL1    C5  970   4.173   2.635  10.086  0.3906 -0.4608 -0.0012
   14CHL1    C6  971   4.273   2.599  10.003  0.0864  0.0408  0.4118
   14CHL1    H6  972   4.378   2.612  10.034  0.9240  0.4395 -2.2914
   14CHL1    C7  973   4.261   2.583   9.849 -0.2586  0.7514 -0.3940
   14CHL1   H7A  974   4.344   2.630   9.792 -0.2885 -0.1842 -1.2512
   14CHL1   H7B  975   4.257   2.473   9.834 -0.3464  0.3999  1.9002
   14CHL1    C8  976   4.122   2.614   9.802  0.4223 -0.0885 -0.8390
   14CHL1    H8  977   4.121   2.724   9.786 -0.1721 -0.0868 -0.8427
   14CHL1   C14  978   4.093   2.559   9.659 -0.2180 -0.2012  0.0201
   14CHL1   H14  979   4.094   2.449   9.677  1.4474 -0.6904 -2.4571
   14CHL1   C15  980   4.193   2.590   9.544  0.3567 -0.0623  0.3499
   14CHL1  H15A  981   4.217   2.698   9.539 -0.2300  0.1262  1.2296
   14CHL1  H15B  982   4.284   2.526   9.542  0.2747 -0.1760  0.2417
   14CHL1   C16  983   4.114   2.561   9.414  0.2644  0.1422 -0.3255
   14CHL1  H16A  984   4.133   2.652   9.355  3.1412 -0.2872 -0.1680
   14CHL1  H16B  985   4.160   2.475   9.361  0.3563  0.4731 -0.7829
   14CHL1   C17  986   3.960   2.541   9.456 -0.3309  0.3152 -0.1098
   14CHL1   H17  987   3.947   2.431   9.467  2.9718 -0.1222  0.2445
   14CHL1   C13  988   3.956   2.596   9.598  0.7139  0.2273 -0.1396
   14CHL1   C18  989   3.943   2.749   9.605  0.4428  0.6359 -0.4677
   14CHL1  H18A  990   3.840   2.784   9.587  0.5929  1.7970  0.7944
   14CHL1  H18B  991   3.963   2.780   9.710  0.7659 -2.1620  0.3816
   14CHL1  H18C  992   4.023   2.789   9.538  0.2578  1.3888 -0.2400
   14CHL1   C12  993   3.851   2.524   9.687 -0.4995  0.0577  0.1605
   14CHL1  H12A  994   3.746   2.549   9.663 -0.6561 -1.3809 -0.8034
   14CHL1  H12B  995   3.871   2.414   9.688  2.6269  0.5139  0.0165
   14CHL1   C11  996   3.865   2.573   9.838 -0.0575  0.8558 -0.0533
   14CHL1  H11A  997   3.814   2.668   9.862 -1.4663 -0.5934  3.3741
   14CHL1  H11B  998   3.811   2.497   9.900  1.3312 -0.5053 -0.4351
   14CHL1    C9  999   4.011   2.572   9.900  0.3253  0.2427  0.4865
   14CHL1    H9 1000   4.020   2.464   9.926 -2.1264  0.0673  0.7755
   14CHL1   C10 1001   4.020   2.637  10.039 -0.6019 -0.1001 -0.2240
   14CHL1   C19 1002   3.980   2.789  10.029 -0.0599  0.0927 -0.3805
   14CHL1  H19A 1003   3.875   2.813  10.003  0.1023  0.8759 -0.3203
   14CHL1  H19B 1004   3.996   2.835  10.129 -3.1111  1.9373 -0.6286
   14CHL1  H19C 1005   4.038   2.841   9.950  0.1981 -0.9344 -0.8895
   14CHL1    C1 1006   3.930   2.564  10.139 -0.1779  0.0777  0.1808
   14CHL1   H1A 1007   3.821   2.576  10.123 -0.2953 -2.2974 -1.2478
   14CHL1   H1B 1008   3.946   2.454  10.136 -2.1310 -0.2554  0.7948
   14CHL1    C2 1009   3.958   2.597  10.287 -0.0551  0.2703  0.3159
   14CHL1   H2A 1010   3.885   2.545  10.353 -1.7300  0.3873 -1.3534
   14CHL1   H2B 1011   3.946   2.704  10.316  1.8754  0.5574  0.1777
   14CHL1   C20 1012   3.865   2.593   9.345  0.2009 -0.1176 -0.3799
   14CHL1   H20 1013   3.884   2.700   9.324 -0.2439 -0.4521 -2.7000
   14CHL1   C21 1014   3.714   2.575   9.384 -0.1450 -1.0456 -0.5133
   14CHL1  H21A 1015   3.637   2.608   9.312 -1.0958 -0.4258  0.7486
   14CHL1  H21B 1016   3.692   2.628   9.480 -0.7098  1.5509 -1.9782
   14CHL1  H21C 1017   3.697   2.466   9.397 -2.3428 -0.5464  1.6604
   14CHL1   C22 1018   3.888   2.522   9.207  0.1194  0.3610  0.1274
   14CHL1  H22A 1019   3.994   2.544   9.183  0.4992 -1.7821 -0.2795
   14CHL1  H22B 1020   3.877   2.412   9.212  0.0298  0.3450 -0.3960
   14CHL1   C23 1021   3.798   2.569   9.099  0.3728 -0.2679 -0.8944
   14CHL1  H23A 1022   3.705   2.510   9.115 -0.2595  0.6951 -0.9501
   14CHL1  H23B 1023   3.765   2.675   9.100  0.3408 -0.2632  0.8333
   14CHL1   C24 1024   3.845   2.517   8.962 -0.0089 -0.7634 -0.5548
   14CHL1  H24A 1025   3.870   2.409   8.958 -0.2802 -0.8088 -1.1526
   14CHL1  H24B 1026   3.759   2.514   8.892  1.2433  1.5956 -2.3338
   14CHL1   C25 1027   3.965   2.592   8.892 -0.3626  0.8267 -0.3494
   14CHL1   H25 1028   4.062   2.585   8.947  0.0489 -0.1776 -1.1789
   14CHL1   C26 1029   3.983   2.536   8.751  0.2549  0.6759  0.3349
   14CHL1  H26A 1030   3.880   2.541   8.710 -0.5202 -1.9914  1.7161
   14CHL1  H26B 1031   4.059   2.586   8.688  1.3399 -0.7148  0.4886
   14CHL1  H26C 1032   4.020   2.431   8.747 -0.2903  0.4939  0.0512
   14CHL1   C27 1033   3.928   2.740   8.883 -0.0347  0.2004 -0.2591
   14CHL1  H27A 1034   3.996   2.800   8.818  0.0422  1.7067  1.1489
   14CHL1  H27B 1035   3.822   2.745   8.853  0.5877  2.4100 -2.4089
   14CHL1  H27C 1036   3.947   2.782   8.984 -0.7829  1.2051 -0.5180
   15CHL1    C3 1037   5.100   1.186  10.158 -0.2104 -0.8714 -0.1875
   15CHL1    H3 1038   5.208   1.160  10.153  0.2051  0.9726 -2.6253
   15CHL1    O3 1039   5.063   1.199  10.297 -0.5360  0.0588 -0.1335
   15CHL1   H3' 1040   5.007   1.277  10.303 -0.7580 -0.0910 -0.2178
   15CHL1    C4 1041   5.077   1.323  10.093  0.4691 -0.1856 -0.0052
   15CHL1   H4A 1042   4.969   1.346  10.103  0.7876  1.2867  0.2265
   15CHL1   H4B 1043   5.133   1.405  10.142 -0.7947  0.3892  0.5051
   15CHL1    C5 1044   5.103   1.320   9.939  0.4360 -0.7302  0.0764
   15CHL1    C6 1045   5.193   1.399   9.874 -0.0388  0.6886  0.2231
   15CHL1    H6 1046   5.254   1.473   9.927  2.0453 -1.8330  1.5632
   15CHL1    C7 1047   5.204   1.399   9.725 -0.2731  0.3717 -0.0077
   15CHL1   H7A 1048   5.220   1.502   9.687  0.6334  0.1216 -0.3314
   15CHL1   H7B 1049   5.296   1.341   9.703  1.0501  2.1695  0.5872
   15CHL1    C8 1050   5.089   1.326   9.650 -0.6500 -0.0843  0.3706
   15CHL1    H8 1051   4.999   1.391   9.640 -0.0773  0.5881 -0.5774
   15CHL1   C14 1052   5.132   1.302   9.508  0.1870 -0.3228 -0.0265
   15CHL1   H14 1053   5.222   1.237   9.512  0.3685 -0.0333  0.8058
   15CHL1   C15 1054   5.175   1.429   9.428 -0.0720 -0.7820 -0.2624
   15CHL1  H15A 1055   5.107   1.516   9.442  0.0126 -0.3752 -2.1101
   15CHL1  H15B 1056   5.267   1.478   9.465 -1.7339  0.8548  1.9607
   15CHL1   C16 1057   5.161   1.387   9.280  0.1409  0.4751 -0.2551
   15CHL1  H16A 1058   5.082   1.450   9.234  0.3440  0.1228 -1.1219
   15CHL1  H16B 1059   5.258   1.393   9.227  1.1511  1.8784  1.6618
   15CHL1   C17 1060   5.103   1.238   9.284 -0.1421  0.5373 -0.2520
   15CHL1   H17 1061   5.187   1.167   9.297  1.0433  1.7108 -1.3041
   15CHL1   C13 1062   5.033   1.221   9.425  0.2698  0.4859  0.0304
   15CHL1   C18 1063   4.897   1.297   9.409 -0.0117  0.3136 -0.0128
   15CHL1  H18A 1064   4.818   1.234   9.362  1.5677  0.0576 -2.4724
   15CHL1  H18B 1065   4.858   1.309   9.513  2.0648 -0.9179  0.9906
   15CHL1  H18C 1066   4.903   1.400   9.370 -2.6711  0.0562 -1.3410
   15CHL1   C12 1067   5.022   1.079   9.486  0.5314 -0.1807 -0.0322
   15CHL1  H12A 1068   4.948   1.017   9.431  0.8206 -0.6251  0.0785
   15CHL1  H12B 1069   5.119   1.025   9.488  1.5126  1.3785 -1.7359
   15CHL1   C11 1070   4.977   1.085   9.633 -0.3917 -0.1201 -0.1546
   15CHL1  H11A 1071   4.869   1.112   9.633 -0.3488  0.0570 -0.4714
   15CHL1  H11B 1072   4.993   0.988   9.684  2.4292  0.5615  0.4331
   15CHL1    C9 1073   5.064   1.192   9.715  0.8938 -0.1357  0.8999
   15CHL1    H9 1074   5.161   1.140   9.729  1.3748  0.4687 -0.0627
   15CHL1   C10 1075   5.021   1.211   9.863 -0.2500 -0.2357 -0.1001
   15CHL1   C19 1076   4.862   1.237   9.864 -0.2905 -0.4465 -0.3296
   15CHL1  H19A 1077   4.835   1.329   9.808 -0.0990  0.7368  1.4380
   15CHL1  H19B 1078   4.796   1.154   9.831  0.1524 -0.6658 -0.6772
   15CHL1  H19C 1079   4.824   1.268   9.964 -2.9118 -0.2266 -1.3127
   15CHL1    C1 1080   5.044   1.074   9.937  0.1310  0.1283 -0.8694
   15CHL1   H1A 1081   4.970   1.002   9.895 -0.3009 -0.2656  0.5210
   15CHL1   H1B 1082   5.145   1.034   9.915 -0.5011 -2.0326 -0.0925
   15CHL1    C2 1083   5.018   1.076  10.084  0.1621  0.1626  0.3658
   15CHL1   H2A 1084   5.045   0.978  10.128  1.5641  0.8635  1.1422
   15CHL1   H2B 1085   4.910   1.099  10.095  0.4986  2.5444 -0.7686
   15CHL1   C20 1086   5.023   1.195   9.160 -0.4597  0.0415 -0.7097
   15CHL1   H20 1087   4.942   1.271   9.155  1.4200  2.1620 -0.2414
   15CHL1   C21 1088   4.954   1.061   9.165 -0.4117  0.1492 -0.8172
   15CHL1  H21A 1089   4.894   1.059   9.072  0.1704  2.6959 -1.3148
   15CHL1  H21B 1090   4.881   1.052   9.248 -0.7048 -1.9564 -1.2394
   15CHL1  H21C 1091   5.016   0.970   9.184 -2.4721 -0.7200  2.4930
   15CHL1   C22 1092   5.090   1.219   9.023  0.0625 -0.2849  0.8531
   15CHL1  H22A 1093   5.012   1.214   8.945 -0.1670 -2.6994  1.1412
   15CHL1  H22B 1094   5.117   1.326   9.026  0.3770 -0.3731  3.2418
   15CHL1   C23 1095   5.211   1.129   8.980  0.0709  0.4406 -0.5146
   15CHL1  H23A 1096   5.286   1.122   9.061  0.1875  1.3488 -0.5364
   15CHL1  H23B 1097   5.175   1.025   8.963  0.0649  0.2426  0.6351
   15CHL1   C24 1098   5.282   1.180   8.851  0.2052 -0.3324 -0.2812
   15CHL1  H24A 1099   5.367   1.111   8.831 -0.7011 -1.0817 -1.7225
   15CHL1  H24B 1100   5.216   1.165   8.763 -1.6827  0.3867  0.9720
   15CHL1   C25 1101   5.331   1.321   8.850  0.0430 -0.1911 -1.6269
   15CHL1   H25 1102   5.247   1.393   8.858 -0.9572 -1.5201  0.9262
   15CHL1   C26 1103   5.420   1.348   8.975  0.3127 -0.5529 -0.1137
   15CHL1  H26A 1104   5.446   1.456   8.977 -0.8751 -0.1820 -2.0393
   15CHL1  H26B 1105   5.360   1.327   9.066 -1.2827 -1.0544 -1.2247
   15CHL1  H26C 1106   5.513   1.288   8.971 -0.3962 -1.6850 -0.0853
   15CHL1   C27 1107   5.418   1.352   8.723  0.2383  0.4947  0.0156
   15CHL1  H27A 1108   5.498   1.276   8.709 -1.9252 -2.0263  0.4177
   15CHL1  H27B 1109   5.346   1.338   8.639  0.1170 -0.4418  0.2667
   15CHL1  H27C 1110   5.455   1.457   8.724 -1.2898  1.0600 -0.0756
   16CHL1    C3 1111   5.315   0.863  10.354  0.1332 -0.5121 -0.0487
   16CHL1    H3 1112   5.230   0.929  10.328  1.2839  0.4615 -1.5022
   16CHL1    O3 1113   5.307   0.826  10.494 -0.4777 -0.0642  0.5450
   16CHL1   H3' 1114   5.382   0.769  10.511  0.3844  0.0425 -2.3401
   16CHL1    C4 1115   5.303   0.728  10.280 -0.1526  0.0272  0.1568
   16CHL1   H4A 1116   5.381   0.659  10.319 -0.2337 -0.8751 -1.2093
   16CHL1   H4B 1117   5.210   0.673  10.303  1.4840 -1.2607  4.6175
   16CHL1    C5 1118   5.330   0.741  10.130 -0.1270 -0.3977  0.4983
   16CHL1    C6 1119   5.239   0.689  10.042  0.0487  0.3604  0.3578
   16CHL1    H6 1120   5.148   0.638  10.078  0.1667 -0.7257 -0.8312
   16CHL1    C7 1121   5.255   0.714   9.895 -0.2280  0.0205  0.2733
   16CHL1   H7A 1122   5.245   0.618   9.840 -0.9313 -1.3408  2.6089
   16CHL1   H7B 1123   5.171   0.775   9.856  0.5555  0.8723 -0.1016
   16CHL1    C8 1124   5.392   0.780   9.850 -0.0517 -0.0814 -0.1187
   16CHL1    H8 1125   5.464   0.696   9.843 -1.3872 -1.3724  0.9274
   16CHL1   C14 1126   5.379   0.849   9.712 -0.3114 -0.0217  0.0322
   16CHL1   H14 1127   5.299   0.923   9.733  0.7292  1.2547 -0.3554
   16CHL1   C15 1128   5.326   0.759   9.594 -0.0359 -0.1781 -0.1544
   16CHL1  H15A 1129   5.391   0.669   9.602  0.1822  0.1033  1.5913
   16CHL1  H15B 1130   5.217   0.743   9.597 -0.2307  1.1904  2.6867
   16CHL1   C16 1131   5.365   0.836   9.467  0.2139  0.2797  0.1170
   16CHL1  H16A 1132   5.420   0.768   9.398 -1.0793 -1.2706  0.5498
   16CHL1  H16B 1133   5.277   0.880   9.415  1.0603 -1.2582 -2.8258
   16CHL1   C17 1134   5.454   0.951   9.511  0.1990 -0.0324 -0.1332
   16CHL1   H17 1135   5.389   1.041   9.518  3.0148  2.4652 -2.7860
   16CHL1   C13 1136   5.501   0.916   9.654 -0.4625 -0.0139  0.0707
   16CHL1   C18 1137   5.621   0.818   9.627  1.1127  0.1689  0.4361
   16CHL1  H18A 1138   5.712   0.863   9.582  0.3817 -0.3303 -1.6682
   16CHL1  H18B 1139   5.650   0.768   9.722 -0.1202 -1.6003 -0.0546
   16CHL1  H18C 1140   5.597   0.735   9.557  1.1106  1.5483 -1.2483
   16CHL1   C12 1141   5.548   1.022   9.755  0.5613 -0.1482  0.3914
   16CHL1  H12A 1142   5.652   1.053   9.732  1.0166 -0.5720  1.8008
   16CHL1  H12B 1143   5.481   1.108   9.736  0.5009 -0.2276  0.2354
   16CHL1   C11 1144   5.563   0.962   9.895 -0.0072  0.3235 -0.3527
   16CHL1  H11A 1145   5.645   0.887   9.896 -0.0022  0.3287 -0.4022
   16CHL1  H11B 1146   5.579   1.045   9.967 -0.6331 -1.8641  2.5153
   16CHL1    C9 1147   5.439   0.884   9.944 -0.6595 -0.0108 -0.3556
   16CHL1    H9 1148   5.349   0.948   9.952 -1.7676 -1.5057 -0.6165
   16CHL1   C10 1149   5.453   0.829  10.094  0.3847 -0.2831  0.5414
   16CHL1   C19 1150   5.570   0.739  10.115  0.1286 -0.3371  0.5844
   16CHL1  H19A 1151   5.589   0.725  10.224  1.6800  0.0574  0.3817
   16CHL1  H19B 1152   5.552   0.637  10.075 -1.1961  0.1801 -0.1956
   16CHL1  H19C 1153   5.664   0.788  10.081 -0.9370  2.3544  1.1985
   16CHL1    C1 1154   5.472   0.964  10.178  1.1519  0.9992 -0.2006
   16CHL1   H1A 1155   5.579   0.996  10.185  2.2196 -1.8089 -2.2403
   16CHL1   H1B 1156   5.408   1.045  10.137 -0.6028 -1.7987 -3.4572
   16CHL1    C2 1157   5.437   0.947  10.328 -0.3564  0.4751 -0.2383
   16CHL1   H2A 1158   5.408   1.041  10.379  0.0522  0.9012 -0.7803
   16CHL1   H2B 1159   5.527   0.903  10.377  0.6530  2.6061 -0.0704
   16CHL1   C20 1160   5.557   0.994   9.404 -0.2305  0.8036  0.2616
   16CHL1   H20 1161   5.636   0.916   9.396 -2.7760 -1.8674 -1.2429
   16CHL1   C21 1162   5.616   1.127   9.442  0.4447 -0.3848 -0.0206
   16CHL1  H21A 1163   5.691   1.116   9.524  1.3441 -0.2654 -0.8177
   16CHL1  H21B 1164   5.540   1.198   9.482  0.4043 -0.7130  0.5031
   16CHL1  H21C 1165   5.676   1.183   9.368  2.6824  0.9048  2.5596
   16CHL1   C22 1166   5.498   1.007   9.254  0.1353  0.7763  0.2059
   16CHL1  H22A 1167   5.435   0.922   9.221 -0.3078  1.8495 -1.9250
   16CHL1  H22B 1168   5.441   1.102   9.244 -2.3273 -0.6637 -0.3388
   16CHL1   C23 1169   5.600   1.022   9.142 -0.0850  0.3467 -0.1274
   16CHL1  H23A 1170   5.553   1.049   9.045  0.4168  1.2730 -0.1237
   16CHL1  H23B 1171   5.653   1.116   9.170 -0.6226  0.3911  0.7698
   16CHL1   C24 1172   5.694   0.900   9.113  0.6815 -0.6507  0.3474
   16CHL1  H24A 1173   5.743   0.867   9.207  1.5533 -0.2816  0.0445
   16CHL1  H24B 1174   5.626   0.823   9.071  0.3857 -1.5354  2.3577
   16CHL1   C25 1175   5.797   0.931   8.999  0.0510  0.3663 -0.1782
   16CHL1   H25 1176   5.870   0.849   8.986  0.8759  0.9494  0.6522
   16CHL1   C26 1177   5.727   0.941   8.859  0.3737 -0.6592 -0.2550
   16CHL1  H26A 1178   5.635   0.882   8.841 -0.1528  0.5752 -1.8830
   16CHL1  H26B 1179   5.696   1.047   8.847 -0.1283 -0.9243 -1.4262
   16CHL1  H26C 1180   5.795   0.916   8.775  0.8819  2.3265 -0.8461
   16CHL1   C27 1181   5.879   1.062   9.022 -0.4336  0.2969  0.2975
   16CHL1  H27A 1182   5.932   1.060   9.120  0.4331 -0.9321 -0.1751
   16CHL1  H27B 1183   5.956   1.070   8.942 -0.5145 -0.4296  0.1470
   16CHL1  H27C 1184   5.811   1.149   9.013  0.7908  1.2649  0.0947
   17CHL1    C3 1185   3.319   4.568  10.491 -0.8412  0.2191  0.2685
   17CHL1    H3 1186   3.298   4.463  10.462  2.3485 -1.0040  1.8418
   17CHL1    O3 1187   3.321   4.565  10.628 -0.2775 -0.1386 -0.0242
   17CHL1   H3' 1188   3.244   4.514  10.652  0.9501 -1.9869  0.1927
   17CHL1    C4 1189   3.461   4.594  10.430 -0.3179 -0.2323 -0.4001
   17CHL1   H4A 1190   3.492   4.698  10.456 -2.1864 -0.3448  2.9014
   17CHL1   H4B 1191   3.521   4.511  10.474 -0.4551  0.4429  1.1300
   17CHL1    C5 1192   3.450   4.574  10.285 -0.2088  0.1920  0.0507
   17CHL1    C6 1193   3.527   4.482  10.219 -0.0741 -0.3935 -0.1222
   17CHL1    H6 1194   3.603   4.430  10.280  0.8352  0.1519 -0.7674
   17CHL1    C7 1195   3.531   4.466  10.074  0.0038 -0.0295 -0.2547
   17CHL1   H7A 1196   3.635   4.460  10.036 -0.5699  0.0932 -1.9757
   17CHL1   H7B 1197   3.474   4.371  10.059 -1.7944  1.1120 -0.9838
   17CHL1    C8 1198   3.474   4.577   9.996  0.8276 -0.2366 -0.3356
   17CHL1    H8 1199   3.552   4.656  10.006 -0.1827  0.6572  0.8275
   17CHL1   C14 1200   3.440   4.538   9.852  0.3104  0.7099 -0.0203
   17CHL1   H14 1201   3.361   4.461   9.864  2.5653 -1.6204  0.6667
   17CHL1   C15 1202   3.557   4.473   9.776 -0.0194 -0.1014 -0.1708
   17CHL1  H15A 1203   3.663   4.507   9.780  1.6474 -4.2790 -2.7533
   17CHL1  H15B 1204   3.567   4.371   9.819 -0.7487 -0.2648 -0.3897
   17CHL1   C16 1205   3.505   4.483   9.631  0.5191  0.0753 -0.2978
   17CHL1  H16A 1206   3.582   4.528   9.565  0.4899 -0.0208 -0.3988
   17CHL1  H16B 1207   3.495   4.378   9.595  0.7682 -0.5762  1.4658
   17CHL1   C17 1208   3.373   4.567   9.628 -0.0570  0.5498 -1.4294
   17CHL1   H17 1209   3.288   4.495   9.636 -0.4390  1.1774  0.5282
   17CHL1   C13 1210   3.377   4.647   9.761  0.3127  0.0173 -0.0569
   17CHL1   C18 1211   3.468   4.768   9.754 -0.0484 -0.1928 -0.4089
   17CHL1  H18A 1212   3.417   4.835   9.681  2.2745 -0.4331 -2.3663
   17CHL1  H18B 1213   3.487   4.804   9.858  0.2848  0.2953 -0.6388
   17CHL1  H18C 1214   3.568   4.747   9.711  0.6269  1.5799  0.1943
   17CHL1   C12 1215   3.246   4.695   9.825 -0.1828  0.2634  0.2101
   17CHL1  H12A 1216   3.199   4.780   9.771  1.4974  0.4711 -1.0432
   17CHL1  H12B 1217   3.171   4.613   9.827  0.4530 -0.5206 -2.5413
   17CHL1   C11 1218   3.263   4.741   9.976 -0.2720  0.3929 -0.3007
   17CHL1  H11A 1219   3.320   4.836   9.979 -0.2201  0.4621 -2.3633
   17CHL1  H11B 1220   3.160   4.759  10.015  0.3885  0.7417  1.3805
   17CHL1    C9 1221   3.340   4.628  10.059  0.4510 -0.0015 -0.0010
   17CHL1    H9 1222   3.274   4.539  10.055  0.2637  0.1394 -0.0301
   17CHL1   C10 1223   3.354   4.660  10.206 -0.4589 -0.2868  0.7084
   17CHL1   C19 1224   3.392   4.812  10.227 -0.7199 -0.4298  0.0310
   17CHL1  H19A 1225   3.476   4.842  10.161  0.5360 -2.3913  0.6755
   17CHL1  H19B 1226   3.311   4.872  10.180  1.1545  1.0783 -1.4708
   17CHL1  H19C 1227   3.399   4.835  10.336  0.3515 -0.7702  0.0385
   17CHL1    C1 1228   3.211   4.648  10.274 -0.3912  0.8615 -0.4467
   17CHL1   H1A 1229   3.142   4.725  10.234  0.6738  0.7829 -2.5806
   17CHL1   H1B 1230   3.177   4.545  10.253  2.0285  0.0422 -0.6284
   17CHL1    C2 1231   3.210   4.661  10.428  0.2574 -0.7266 -0.4836
   17CHL1   H2A 1232   3.112   4.642  10.475 -0.7671  0.5028 -2.0116
   17CHL1   H2B 1233   3.240   4.766  10.449  1.0036 -0.8717 -0.7936
   17CHL1   C20 1234   3.367   4.653   9.496 -0.2069  0.3484  0.2315
   17CHL1   H20 1235   3.446   4.732   9.489 -0.0909  0.2452  0.3702
   17CHL1   C21 1236   3.227   4.725   9.485  0.5599 -0.1977  0.8613
   17CHL1  H21A 1237   3.224   4.803   9.564  0.6836  1.8932 -1.0629
   17CHL1  H21B 1238   3.141   4.655   9.491  1.0303 -0.7525  1.1802
   17CHL1  H21C 1239   3.213   4.783   9.390 -1.9032 -0.9875  0.6556
   17CHL1   C22 1240   3.381   4.559   9.372  0.1712 -0.1106 -0.5156
   17CHL1  H22A 1241   3.484   4.519   9.378  0.1248 -0.3063 -0.9731
   17CHL1  H22B 1242   3.301   4.481   9.375  0.9511 -0.9102  2.3701
   17CHL1   C23 1243   3.363   4.625   9.236  0.1359  0.1286 -0.9609
   17CHL1  H23A 1244   3.255   4.633   9.211 -0.4828 -6.2959 -1.9801
   17CHL1  H23B 1245   3.430   4.714   9.245  0.2813 -0.1904  2.0491
   17CHL1   C24 1246   3.421   4.531   9.125 -0.4061  0.6286 -0.4286
   17CHL1  H24A 1247   3.524   4.492   9.138  0.0086  1.2604 -1.7564
   17CHL1  H24B 1248   3.359   4.438   9.122  0.2849  0.1276  0.3930
   17CHL1   C25 1249   3.425   4.605   8.988 -0.4824 -0.2789 -0.0127
   17CHL1   H25 1250   3.335   4.670   8.997 -0.2330 -0.1458  2.3109
   17CHL1   C26 1251   3.551   4.690   8.974  0.2345  0.1019 -0.7407
   17CHL1  H26A 1252   3.539   4.752   8.883  1.1384  2.3279  0.5844
   17CHL1  H26B 1253   3.565   4.759   9.059  0.2228 -0.5330 -0.2196
   17CHL1  H26C 1254   3.641   4.628   8.953  1.1066  0.1593  2.3271
   17CHL1   C27 1255   3.400   4.494   8.884 -0.0319 -0.0991  0.1302
   17CHL1  H27A 1256   3.395   4.536   8.782 -0.2702 -0.4654 -0.0112
   17CHL1  H27B 1257   3.488   4.425   8.881 -1.0922 -1.4667 -1.0772
   17CHL1  H27C 1258   3.301   4.453   8.915  1.1050 -1.3652  2.4179
   18CHL1    C3 1259   1.336   2.080  10.166  0.5657 -0.3905  0.1809
   18CHL1    H3 1260   1.226   2.072  10.158  0.4561  1.3591 -0.3454
   18CHL1    O3 1261   1.382   2.105  10.300  0.3230  0.0145 -0.1973
   18CHL1   H3' 1262   1.473   2.076  10.297  0.5408  0.7036 -0.2701
   18CHL1    C4 1263   1.401   1.944  10.120  0.2097 -0.6322 -0.7027
   18CHL1   H4A 1264   1.509   1.960  10.141 -0.4855  1.1996  1.9281
   18CHL1   H4B 1265   1.349   1.873  10.187  1.7426 -0.3296  0.8625
   18CHL1    C5 1266   1.382   1.912   9.972 -0.4585  0.0792  0.6405
   18CHL1    C6 1267   1.331   1.793   9.928  0.9857 -0.4638 -0.2394
   18CHL1    H6 1268   1.293   1.712   9.993 -0.8911  0.8792  0.4171
   18CHL1    C7 1269   1.315   1.764   9.782  0.2910 -0.4895 -1.1029
   18CHL1   H7A 1270   1.348   1.661   9.756  1.4338 -0.6149  0.6254
   18CHL1   H7B 1271   1.208   1.776   9.758 -0.3913 -2.2823  0.7460
   18CHL1    C8 1272   1.392   1.854   9.683  0.0330 -0.2119 -0.6533
   18CHL1    H8 1273   1.499   1.827   9.672 -0.5931 -3.1677 -0.3190
   18CHL1   C14 1274   1.331   1.829   9.545 -0.6113  0.0363  0.0779
   18CHL1   H14 1275   1.224   1.858   9.547 -0.5862  0.1349  0.0133
   18CHL1   C15 1276   1.332   1.690   9.498  0.4991 -0.1378  0.6595
   18CHL1  H15A 1277   1.430   1.639   9.514  0.4020 -1.2309 -1.7428
   18CHL1  H15B 1278   1.252   1.643   9.559  0.1867  0.5602  0.7991
   18CHL1   C16 1279   1.307   1.700   9.344 -0.7043 -0.6509 -0.6188
   18CHL1  H16A 1280   1.384   1.637   9.295  0.4254 -0.3600  0.7289
   18CHL1  H16B 1281   1.204   1.660   9.335  0.1836 -3.4552  0.4475
   18CHL1   C17 1282   1.318   1.857   9.308 -0.2674  0.5095  0.0390
   18CHL1   H17 1283   1.215   1.899   9.301 -0.4575  0.2139  0.8510
   18CHL1   C13 1284   1.395   1.917   9.428 -0.9820 -0.0474 -0.1153
   18CHL1   C18 1285   1.543   1.885   9.411  0.0325  0.4468 -0.5304
   18CHL1  H18A 1286   1.600   1.888   9.507 -1.3354  0.7794  0.2883
   18CHL1  H18B 1287   1.562   1.787   9.363  0.0841  0.1499  0.0929
   18CHL1  H18C 1288   1.597   1.956   9.344  1.8900 -1.1648 -0.8520
   18CHL1   C12 1289   1.384   2.065   9.469 -0.4500 -0.1410  0.5310
   18CHL1  H12A 1290   1.422   2.146   9.403 -1.8285  1.2701  1.3918
   18CHL1  H12B 1291   1.274   2.081   9.479  0.0117  2.4048  3.0232
   18CHL1   C11 1292   1.440   2.084   9.612 -0.1131 -0.1827  0.0420
   18CHL1  H11A 1293   1.548   2.059   9.624 -0.0997  0.5505  1.7077
   18CHL1  H11B 1294   1.435   2.192   9.637 -0.9961 -0.5418  1.5609
   18CHL1    C9 1295   1.376   2.000   9.722  0.1811  0.3037  0.6016
   18CHL1    H9 1296   1.270   2.027   9.704 -0.2090 -1.6408 -0.2214
   18CHL1   C10 1297   1.419   2.023   9.872 -0.0095 -0.1936 -0.0405
   18CHL1   C19 1298   1.577   2.036   9.871 -0.7205 -0.2789 -0.5569
   18CHL1  H19A 1299   1.620   1.951   9.814 -2.9073 -1.3844 -0.6576
   18CHL1  H19B 1300   1.612   2.128   9.820  1.1489  0.4440  1.8275
   18CHL1  H19C 1301   1.611   2.044   9.976  1.6352 -0.2729 -1.2657
   18CHL1    C1 1302   1.359   2.152   9.922  0.0289 -0.5408 -0.2156
   18CHL1   H1A 1303   1.398   2.236   9.861 -1.1808  1.6147  1.7814
   18CHL1   H1B 1304   1.250   2.157   9.907 -0.1241 -0.7812  0.7382
   18CHL1    C2 1305   1.391   2.190  10.073 -0.0391 -0.6769  0.1555
   18CHL1   H2A 1306   1.343   2.289  10.083  0.8655 -0.2814  0.8019
   18CHL1   H2B 1307   1.497   2.223  10.084 -0.9084  1.8523  1.9411
   18CHL1   C20 1308   1.366   1.880   9.166 -0.0897  0.4994 -0.5939
   18CHL1   H20 1309   1.475   1.859   9.172 -0.0790  0.8007  0.5089
   18CHL1   C21 1310   1.364   2.028   9.130  0.0581 -0.2051 -0.1849
   18CHL1  H21A 1311   1.425   2.087   9.201  1.1335  2.0344 -2.7798
   18CHL1  H21B 1312   1.260   2.067   9.134  0.5378  1.0070  1.2480
   18CHL1  H21C 1313   1.403   2.053   9.029 -0.2766  0.6991 -0.0990
   18CHL1   C22 1314   1.301   1.790   9.056 -0.0480 -0.2343  0.2557
   18CHL1  H22A 1315   1.344   1.806   8.955 -2.9483  3.2274 -0.6111
   18CHL1  H22B 1316   1.293   1.681   9.077  0.3776 -0.5345 -1.0392
   18CHL1   C23 1317   1.156   1.834   9.024  0.2569 -0.4609 -0.3051
   18CHL1  H23A 1318   1.089   1.820   9.112 -0.8626  1.0636 -0.8780
   18CHL1  H23B 1319   1.169   1.940   8.994 -0.0226  0.0379  1.2354
   18CHL1   C24 1320   1.080   1.760   8.909  0.5840 -0.7813  0.0483
   18CHL1  H24A 1321   1.139   1.753   8.815 -0.7149 -0.1330 -0.8402
   18CHL1  H24B 1322   1.059   1.655   8.939 -1.6569 -0.2278  0.5730
   18CHL1   C25 1323   0.951   1.837   8.863 -0.0144  0.6678 -0.1820
   18CHL1   H25 1324   0.976   1.938   8.824 -1.3502  0.1710 -2.5420
   18CHL1   C26 1325   0.887   1.752   8.744  0.7307 -0.5767 -0.9323
   18CHL1  H26A 1326   0.836   1.658   8.773 -1.1880  0.4228 -0.8821
   18CHL1  H26B 1327   0.805   1.813   8.701 -0.4573 -1.3889  0.1254
   18CHL1  H26C 1328   0.963   1.733   8.665 -0.5220 -0.2728 -2.2459
   18CHL1   C27 1329   0.843   1.864   8.973  0.0170 -0.0467 -0.4369
   18CHL1  H27A 1330   0.877   1.904   9.071  1.7930  0.7443 -1.3199
   18CHL1  H27B 1331   0.769   1.935   8.932  1.6315  2.4491  0.6933
   18CHL1  H27C 1332   0.798   1.765   8.995 -2.1830  0.9336 -0.2853
   19CHL1    C3 1333   4.041   0.005  10.271  1.2657  0.2133  0.5676
   19CHL1    H3 1334   4.142   0.050  10.283  0.5144  3.6970 -3.8184
   19CHL1    O3 1335   3.963   0.011  10.387  0.2942  0.1805 -0.2306
   19CHL1   H3' 1336   3.946  -0.077  10.420  2.0304  0.7663  2.5325
   19CHL1    C4 1337   3.978   0.099  10.163  0.0829  0.3636  0.7321
   19CHL1   H4A 1338   3.870   0.076  10.176  0.3025  0.1614  2.5179
   19CHL1   H4B 1339   3.988   0.206  10.190 -2.1017  0.3696  1.7083
   19CHL1    C5 1340   4.016   0.079  10.018 -0.5587  0.1275 -0.4300
   19CHL1    C6 1341   4.066   0.184   9.946 -0.1965  0.4168 -0.5979
   19CHL1    H6 1342   4.078   0.279  10.001  3.4844  0.4727 -1.2397
   19CHL1    C7 1343   4.114   0.177   9.802  0.2392 -0.2805  0.1947
   19CHL1   H7A 1344   4.060   0.262   9.753 -0.5420  0.1368  1.6976
   19CHL1   H7B 1345   4.225   0.178   9.795  0.2265  0.5485  0.0018
   19CHL1    C8 1346   4.066   0.043   9.735  0.3439 -0.0501 -0.1152
   19CHL1    H8 1347   3.958   0.058   9.715  1.4160  4.1449 -4.7825
   19CHL1   C14 1348   4.139   0.019   9.601 -0.6576 -0.1354  0.2501
   19CHL1   H14 1349   4.249   0.007   9.616 -0.2421  1.2787 -1.3226
   19CHL1   C15 1350   4.136   0.131   9.501 -0.3444 -0.2293  0.0773
   19CHL1  H15A 1351   4.032   0.168   9.488 -0.5206 -0.9467 -0.6424
   19CHL1  H15B 1352   4.201   0.216   9.530  0.5875 -0.6235 -0.7757
   19CHL1   C16 1353   4.180   0.062   9.368 -0.2903  0.4224 -0.6595
   19CHL1  H16A 1354   4.116   0.091   9.282 -4.4514  2.9195  2.8843
   19CHL1  H16B 1355   4.286   0.081   9.343 -0.6590  3.2204 -0.3705
   19CHL1   C17 1356   4.171  -0.095   9.394 -0.4945  0.3705 -0.6354
   19CHL1   H17 1357   4.273  -0.125   9.427  0.9188  3.7763 -1.4182
   19CHL1   C13 1358   4.093  -0.107   9.531  0.0962 -0.6806  0.6162
   19CHL1   C18 1359   3.941  -0.094   9.500 -0.0670 -0.1200  0.3138
   19CHL1  H18A 1360   3.909  -0.177   9.433  2.3781 -1.4750  0.7270
   19CHL1  H18B 1361   3.872  -0.085   9.586  0.3959  0.3378  0.6422
   19CHL1  H18C 1362   3.926  -0.004   9.436  2.8704  1.2032  1.2999
   19CHL1   C12 1363   4.133  -0.225   9.620 -0.3486 -0.1989 -0.3018
   19CHL1  H12A 1364   4.110  -0.322   9.569 -2.8343 -0.5879  1.3409
   19CHL1  H12B 1365   4.243  -0.227   9.636 -0.0612 -0.9050 -2.1112
   19CHL1   C11 1366   4.058  -0.217   9.759 -0.1781 -0.6147 -0.2898
   19CHL1  H11A 1367   3.949  -0.219   9.738 -0.5873  2.3647  0.9981
   19CHL1  H11B 1368   4.096  -0.295   9.828  0.0857  1.9680  2.7291
   19CHL1    C9 1369   4.086  -0.077   9.829 -0.3126  0.2861  0.4253
   19CHL1    H9 1370   4.195  -0.085   9.849  0.5524  2.5762 -2.5501
   19CHL1   C10 1371   4.011  -0.064   9.960  0.3440 -0.4366 -0.6764
   19CHL1   C19 1372   3.863  -0.107   9.954  0.0742  0.8326  0.2487
   19CHL1  H19A 1373   3.796  -0.079  10.039  1.1133 -3.5044  2.7641
   19CHL1  H19B 1374   3.822  -0.062   9.861 -1.8992  0.2992  0.7958
   19CHL1  H19C 1375   3.851  -0.217   9.952  1.3354  0.5867  2.6281
   19CHL1    C1 1376   4.082  -0.153  10.062  0.0947  0.1666 -0.4327
   19CHL1   H1A 1377   4.077  -0.261  10.036 -1.7795  0.4850 -1.6325
   19CHL1   H1B 1378   4.191  -0.132  10.066  0.5581 -2.1641  1.4575
   19CHL1    C2 1379   4.032  -0.141  10.209 -0.5060 -0.6447 -0.6147
   19CHL1   H2A 1380   4.078  -0.214  10.277 -2.3978  0.2495  1.7746
   19CHL1   H2B 1381   3.923  -0.164  10.209 -0.7448  0.2459  1.3695
   19CHL1   C20 1382   4.126  -0.173   9.266  0.3850  0.1191  0.2966
   19CHL1   H20 1383   4.033  -0.131   9.223  1.0486  0.8762 -0.4560
   19CHL1   C21 1384   4.108  -0.324   9.284  0.2015  0.1180  0.0515
   19CHL1  H21A 1385   4.079  -0.366   9.185  2.0600 -0.2628 -0.3755
   19CHL1  H21B 1386   4.021  -0.339   9.351 -2.6329  2.0638 -2.8972
   19CHL1  H21C 1387   4.196  -0.376   9.327 -0.5512 -2.1258 -0.9789
   19CHL1   C22 1388   4.227  -0.157   9.146 -0.4985 -0.4957 -0.4856
   19CHL1  H22A 1389   4.172  -0.193   9.057  0.8835 -1.0777 -1.1367
   19CHL1  H22B 1390   4.248  -0.048   9.133 -3.9771  0.1829 -1.2003
   19CHL1   C23 1391   4.367  -0.217   9.163 -0.0119  0.2467  0.2834
   19CHL1  H23A 1392   4.409  -0.197   9.264 -0.6116  0.4079  0.5047
   19CHL1  H23B 1393   4.350  -0.325   9.146 -1.7397  0.8238 -2.1954
   19CHL1   C24 1394   4.467  -0.177   9.059 -0.4929 -0.2808 -0.1725
   19CHL1  H24A 1395   4.454  -0.223   8.959 -0.6270  0.4889 -0.5217
   19CHL1  H24B 1396   4.463  -0.068   9.038 -1.8824 -0.6479 -2.1334
   19CHL1   C25 1397   4.606  -0.211   9.112 -0.8420  0.1301  0.3603
   19CHL1   H25 1398   4.630  -0.131   9.185 -3.2632  0.9367  0.3383
   19CHL1   C26 1399   4.621  -0.347   9.184  0.1976 -0.0640  0.5176
   19CHL1  H26A 1400   4.592  -0.427   9.112 -0.7564  0.1177  0.6855
   19CHL1  H26B 1401   4.722  -0.368   9.226 -0.3570 -0.1983  1.8308
   19CHL1  H26C 1402   4.551  -0.351   9.271  0.6618 -1.6864  0.8554
   19CHL1   C27 1403   4.714  -0.204   9.001  0.3352  0.1387 -0.7566
   19CHL1  H27A 1404   4.813  -0.229   9.046 -0.7788 -1.9487  0.7370
   19CHL1  H27B 1405   4.695  -0.283   8.925 -1.8463  2.4321 -2.7640
   19CHL1  H27C 1406   4.716  -0.108   8.946 -2.0858 -0.5920 -2.2755
   20CHL1    C3 1407   6.502   1.059  10.377  0.0036  0.1749 -0.3004
   20CHL1    H3 1408   6.581   1.136  10.379  1.5174 -1.3192  1.5153
   20CHL1    O3 1409   6.454   1.032  10.506 -0.5167  0.0533 -0.9744
   20CHL1   H3' 1410   6.386   0.965  10.511 -0.1912 -0.2227 -0.1219
   20CHL1    C4 1411   6.382   1.115  10.289 -0.5394  0.0302  0.1684
   20CHL1   H4A 1412   6.293   1.051  10.307 -1.6803  1.5588  0.1413
   20CHL1   H4B 1413   6.359   1.210  10.342  3.0724 -0.7002  3.5517
   20CHL1    C5 1414   6.433   1.131  10.146 -0.7006 -0.7841 -0.4126
   20CHL1    C6 1415   6.416   1.249  10.082  0.3669 -0.0388 -0.5222
   20CHL1    H6 1416   6.360   1.332  10.128 -1.0062 -1.5247  0.5873
   20CHL1    C7 1417   6.453   1.277   9.944  0.9694  0.4030 -0.3832
   20CHL1   H7A 1418   6.366   1.321   9.890  0.3743 -1.7367 -1.2351
   20CHL1   H7B 1419   6.541   1.344   9.938  1.4251  0.0781  1.6779
   20CHL1    C8 1420   6.490   1.147   9.861  0.4261 -0.1436 -0.4537
   20CHL1    H8 1421   6.388   1.112   9.836 -0.1052 -0.0905  1.4590
   20CHL1   C14 1422   6.562   1.185   9.732  0.3927  0.5844 -0.1724
   20CHL1   H14 1423   6.667   1.216   9.755  0.6092 -1.6981  2.4845
   20CHL1   C15 1424   6.487   1.293   9.642 -0.1085 -0.2718 -0.1659
   20CHL1  H15A 1425   6.378   1.270   9.644 -0.0266 -0.6346  0.2284
   20CHL1  H15B 1426   6.503   1.394   9.686  2.7041 -0.7929  0.1776
   20CHL1   C16 1427   6.538   1.271   9.508  0.2850 -0.9109  0.0892
   20CHL1  H16A 1428   6.451   1.260   9.440 -0.8951  2.2645  0.9359
   20CHL1  H16B 1429   6.601   1.352   9.466 -0.3977 -0.6094 -0.3685
   20CHL1   C17 1430   6.632   1.146   9.519 -0.2066 -0.2221  0.0765
   20CHL1   H17 1431   6.731   1.179   9.557 -1.3371  0.6245  2.5261
   20CHL1   C13 1432   6.584   1.063   9.640 -0.3945 -0.3523 -0.8392
   20CHL1   C18 1433   6.452   0.999   9.600  0.5490 -0.2157 -0.4920
   20CHL1  H18A 1434   6.390   0.980   9.690  1.6234  0.7198  0.4815
   20CHL1  H18B 1435   6.394   1.053   9.523 -0.0277 -2.0422 -1.3897
   20CHL1  H18C 1436   6.467   0.908   9.537 -0.9920  0.4989 -1.9544
   20CHL1   C12 1437   6.682   0.973   9.718 -0.1377  0.6667  0.0191
   20CHL1  H12A 1438   6.707   0.882   9.659 -1.7474  0.5386 -0.5191
   20CHL1  H12B 1439   6.779   1.020   9.745  1.0708 -0.2952 -2.3487
   20CHL1   C11 1440   6.604   0.920   9.850 -0.0578 -0.4739 -0.2294
   20CHL1  H11A 1441   6.513   0.869   9.814  0.5101  0.3618 -3.0428
   20CHL1  H11B 1442   6.661   0.838   9.899 -3.8316 -1.7173  2.4739
   20CHL1    C9 1443   6.574   1.048   9.937  0.2881  0.7525 -0.3072
   20CHL1    H9 1444   6.672   1.094   9.963  1.1021 -1.1683  0.1800
   20CHL1   C10 1445   6.503   1.013  10.071 -0.9862 -0.1413 -0.4602
   20CHL1   C19 1446   6.399   0.911  10.038  0.2046  0.0063  0.4235
   20CHL1  H19A 1447   6.433   0.810  10.005  0.2499  0.1451  0.0377
   20CHL1  H19B 1448   6.336   0.886  10.126  1.0447  0.5031  1.1706
   20CHL1  H19C 1449   6.335   0.950   9.956  0.7529 -4.2916 -2.4030
   20CHL1    C1 1450   6.610   0.955  10.165  0.2027 -0.4544  0.7543
   20CHL1   H1A 1451   6.664   0.867  10.124  0.6756  0.3774 -0.4544
   20CHL1   H1B 1452   6.696   1.024  10.158 -0.8698  0.7948 -0.8302
   20CHL1    C2 1453   6.569   0.935  10.319  0.3537  0.0130  0.1595
   20CHL1   H2A 1454   6.657   0.901  10.378  1.2441 -0.2117 -1.2511
   20CHL1   H2B 1455   6.499   0.848  10.317  1.0735 -0.5740 -0.7436
   20CHL1   C20 1456   6.657   1.071   9.387 -0.0501  0.3022  0.1991
   20CHL1   H20 1457   6.573   1.015   9.341  0.3209 -1.6510  1.7829
   20CHL1   C21 1458   6.759   0.954   9.413 -0.6144  0.0937 -0.2615
   20CHL1  H21A 1459   6.698   0.868   9.449  1.5559 -2.3253 -1.9096
   20CHL1  H21B 1460   6.833   0.980   9.491  0.5008 -0.3939 -1.1104
   20CHL1  H21C 1461   6.815   0.920   9.323 -0.1476 -0.4003  0.2089
   20CHL1   C22 1462   6.700   1.171   9.267 -0.2071  0.4673  0.6152
   20CHL1  H22A 1463   6.618   1.242   9.241 -1.3654 -0.7445  0.8332
   20CHL1  H22B 1464   6.787   1.236   9.288  0.4806 -0.0836 -0.4219
   20CHL1   C23 1465   6.757   1.108   9.138  0.0667 -0.0427 -0.8598
   20CHL1  H23A 1466   6.852   1.056   9.162 -0.3207 -0.1414  0.5116
   20CHL1  H23B 1467   6.675   1.043   9.100 -0.1887  0.6792 -1.5777
   20CHL1   C24 1468   6.778   1.216   9.029 -0.3778 -0.1673 -0.6626
   20CHL1  H24A 1469   6.689   1.279   9.009  0.9303  2.4650  1.0448
   20CHL1  H24B 1470   6.858   1.286   9.063 -3.2027  4.0236 -1.7884
   20CHL1   C25 1471   6.823   1.169   8.888 -0.1557 -0.2091  0.9160
   20CHL1   H25 1472   6.732   1.123   8.845 -0.1083  0.5891 -0.0786
   20CHL1   C26 1473   6.872   1.283   8.796  0.5249  0.0778  0.2062
   20CHL1  H26A 1474   6.953   1.344   8.841  1.2203 -0.7303  0.0750
   20CHL1  H26B 1475   6.899   1.249   8.694 -2.0765 -3.4050  0.4776
   20CHL1  H26C 1476   6.782   1.345   8.778  0.9279  0.4991 -0.3696
   20CHL1   C27 1477   6.935   1.064   8.885 -0.2098  0.2090  0.1426
   20CHL1  H27A 1478   6.968   1.036   8.783 -0.3706 -0.8289  0.3659
   20CHL1  H27B 1479   7.029   1.097   8.935  1.3076 -3.1681 -0.2263
   20CHL1  H27C 1480   6.906   0.971   8.938  0.2517 -0.9229 -1.5371
   21CHL1    C3 1481   0.306   3.209  10.281 -0.2384 -0.0686  0.2856
   21CHL1    H3 1482   0.411   3.194  10.248  0.2094  3.2096 -0.1298
   21CHL1    O3 1483   0.295   3.179  10.421 -0.3962 -0.7586 -0.1178
   21CHL1   H3' 1484   0.377   3.212  10.459 -1.0177  1.8429 -0.8197
   21CHL1    C4 1485   0.274   3.357  10.257  0.1133  0.7723  0.1958
   21CHL1   H4A 1486   0.168   3.374  10.285  0.6591 -0.7128  3.7068
   21CHL1   H4B 1487   0.342   3.419  10.318  1.2317 -0.5789  0.3693
   21CHL1    C5 1488   0.305   3.384  10.110  0.5759  0.4243  0.0661
   21CHL1    C6 1489   0.403   3.467  10.078 -0.5814  0.2571 -0.2642
   21CHL1    H6 1490   0.459   3.528  10.151 -0.9216 -0.4084  0.5700
   21CHL1    C7 1491   0.423   3.489   9.934 -0.1226 -0.4868 -0.0333
   21CHL1   H7A 1492   0.442   3.595   9.907  0.9015 -1.6375 -4.6879
   21CHL1   H7B 1493   0.519   3.442   9.905  1.4806  0.2155  3.5525
   21CHL1    C8 1494   0.309   3.434   9.835  0.2377  0.4148 -0.1879
   21CHL1    H8 1495   0.217   3.496   9.850 -0.9221 -1.4384  0.7027
   21CHL1   C14 1496   0.357   3.449   9.695 -0.8878 -0.8471  0.0364
   21CHL1   H14 1497   0.460   3.407   9.692 -0.3878  0.2765  0.7063
   21CHL1   C15 1498   0.374   3.591   9.639 -0.1625 -0.5323  0.6997
   21CHL1  H15A 1499   0.281   3.653   9.644 -0.5369 -1.0249 -0.0480
   21CHL1  H15B 1500   0.465   3.642   9.677  1.2461 -2.4896  0.0622
   21CHL1   C16 1501   0.397   3.566   9.492 -0.6909 -0.1317  0.1831
   21CHL1  H16A 1502   0.324   3.636   9.445 -0.3427  0.6594  0.7898
   21CHL1  H16B 1503   0.498   3.597   9.460 -0.1512 -0.8534  1.1316
   21CHL1   C17 1504   0.364   3.415   9.465 -0.0337 -0.1543 -0.0974
   21CHL1   H17 1505   0.461   3.360   9.464  0.4300  0.6222 -2.1731
   21CHL1   C13 1506   0.282   3.379   9.587  0.1166  0.7259 -0.7743
   21CHL1   C18 1507   0.133   3.429   9.576 -0.5830  0.1307 -0.2926
   21CHL1  H18A 1508   0.082   3.362   9.504  0.3641 -1.1185  0.1565
   21CHL1  H18B 1509   0.081   3.434   9.674 -0.6528 -0.1989 -0.3121
   21CHL1  H18C 1510   0.126   3.533   9.538 -2.9768  0.3769  0.6411
   21CHL1   C12 1511   0.278   3.229   9.621 -0.1357 -0.1234  0.1409
   21CHL1  H12A 1512   0.217   3.167   9.551 -0.5175  0.5181 -0.0984
   21CHL1  H12B 1513   0.381   3.188   9.616  0.6179  1.8159 -1.0730
   21CHL1   C11 1514   0.223   3.200   9.767  0.3881 -0.5900 -0.5699
   21CHL1  H11A 1515   0.114   3.219   9.766  0.5617  0.7541  0.7714
   21CHL1  H11B 1516   0.243   3.094   9.792 -2.3796 -0.6526  1.8832
   21CHL1    C9 1517   0.289   3.283   9.883 -0.4880 -0.3224  0.6529
   21CHL1    H9 1518   0.393   3.246   9.897 -0.5407  0.1328  2.4173
   21CHL1   C10 1519   0.222   3.285  10.021  0.1973  0.0383 -0.1475
   21CHL1   C19 1520   0.072   3.330  10.014  0.0991  0.1464 -0.1455
   21CHL1  H19A 1521   0.020   3.291   9.924 -0.7242 -0.1949  0.4612
   21CHL1  H19B 1522   0.013   3.275  10.090 -2.1310  0.6864 -1.3784
   21CHL1  H19C 1523   0.064   3.440  10.025  2.4909  0.3004  0.5498
   21CHL1    C1 1524   0.228   3.137  10.061 -0.4894 -0.8333  0.0314
   21CHL1   H1A 1525   0.163   3.072   9.998 -1.0698  1.4803 -1.8883
   21CHL1   H1B 1526   0.327   3.095  10.033  0.0588  0.5780 -0.1837
   21CHL1    C2 1527   0.204   3.114  10.207  0.5104 -0.2373 -0.2152
   21CHL1   H2A 1528   0.217   3.015  10.256 -1.0630 -0.3427  0.0432
   21CHL1   H2B 1529   0.101   3.145  10.233  1.7022  1.8552  2.4037
   21CHL1   C20 1530   0.311   3.390   9.322 -0.8713  0.1675 -0.1105
   21CHL1   H20 1531   0.219   3.453   9.318 -0.2787  1.0419 -0.1678
   21CHL1   C21 1532   0.282   3.239   9.292 -0.3625 -0.6532 -0.1418
   21CHL1  H21A 1533   0.372   3.179   9.317  0.9815  0.6739 -1.5914
   21CHL1  H21B 1534   0.254   3.221   9.186  0.2824  1.9577 -0.8132
   21CHL1  H21C 1535   0.195   3.203   9.352 -0.0210 -2.7657 -0.8295
   21CHL1   C22 1536   0.398   3.449   9.212  0.0247  0.1983  0.2858
   21CHL1  H22A 1537   0.407   3.557   9.237  0.2678 -0.2535  2.3759
   21CHL1  H22B 1538   0.501   3.407   9.224  0.9101  2.3650  0.6684
   21CHL1   C23 1539   0.354   3.439   9.067 -0.4034  0.0258  0.4955
   21CHL1  H23A 1540   0.413   3.511   9.005 -1.2669  1.2820  1.0802
   21CHL1  H23B 1541   0.375   3.339   9.025 -1.4441 -0.0186  0.0492
   21CHL1   C24 1542   0.207   3.459   9.034  0.2605  0.6469 -0.2481
   21CHL1  H24A 1543   0.151   3.378   9.086  0.3215  0.3521 -0.6346
   21CHL1  H24B 1544   0.168   3.547   9.089 -0.5029 -0.7622  1.5781
   21CHL1   C25 1545   0.170   3.444   8.882 -0.2224 -0.1128 -0.7390
   21CHL1   H25 1546   0.218   3.352   8.843 -2.4360 -1.1813 -1.1089
   21CHL1   C26 1547   0.017   3.421   8.870  0.0767  0.2287  0.4127
   21CHL1  H26A 1548  -0.035   3.520   8.866 -2.0404 -0.8518 -1.8005
   21CHL1  H26B 1549  -0.003   3.360   8.780 -0.3829 -1.7754  1.8167
   21CHL1  H26C 1550  -0.026   3.363   8.954 -0.5968  0.0262 -0.0628
   21CHL1   C27 1551   0.212   3.569   8.806 -0.0872  0.3312  0.2014
   21CHL1  H27A 1552   0.172   3.570   8.702  0.6243  2.1576 -0.0977
   21CHL1  H27B 1553   0.180   3.658   8.864  0.5877  1.4389 -1.0597
   21CHL1  H27C 1554   0.323   3.573   8.794  0.1154 -2.5027  0.4651
   22CHL1    C3 1555   0.169   5.106  10.078 -0.0829 -0.4387 -0.0315
   22CHL1    H3 1556   0.102   5.024  10.110 -0.4435 -0.2683 -0.3423
   22CHL1    O3 1557   0.228   5.169  10.196 -0.4704  0.9553 -0.0565
   22CHL1   H3' 1558   0.284   5.098  10.228 -0.2105  0.0972 -2.2405
   22CHL1    C4 1559   0.292   5.061   9.990 -0.0009  0.0849 -0.2381
   22CHL1   H4A 1560   0.368   5.142   9.985  1.7143 -1.4788 -0.7474
   22CHL1   H4B 1561   0.333   4.973  10.044  0.9236  1.3704  1.2608
   22CHL1    C5 1562   0.241   5.019   9.855 -0.3986  0.0101 -0.1983
   22CHL1    C6 1563   0.271   4.901   9.807 -0.1899 -0.0956 -0.6078
   22CHL1    H6 1564   0.340   4.847   9.875  1.0725  2.3344  0.1439
   22CHL1    C7 1565   0.243   4.858   9.667  0.2136 -0.0162  0.7915
   22CHL1   H7A 1566   0.330   4.812   9.616  0.8975  1.0919  0.9284
   22CHL1   H7B 1567   0.163   4.781   9.668  1.5361 -1.4756 -0.3363
   22CHL1    C8 1568   0.185   4.973   9.578 -0.6197  0.6939 -1.0885
   22CHL1    H8 1569   0.272   5.032   9.542 -2.5611  4.4133 -0.1564
   22CHL1   C14 1570   0.109   4.906   9.465 -0.1575  0.1331  0.4383
   22CHL1   H14 1571   0.029   4.848   9.516  1.4183 -1.0712  1.6312
   22CHL1   C15 1572   0.178   4.794   9.379  0.7492 -0.3156 -0.0239
   22CHL1  H15A 1573   0.285   4.825   9.369  0.0598  1.7761 -1.9519
   22CHL1  H15B 1574   0.174   4.691   9.419  0.8236 -0.9653 -1.5880
   22CHL1   C16 1575   0.097   4.798   9.255 -0.0752  0.2574  0.6579
   22CHL1  H16A 1576   0.172   4.811   9.174  0.5850 -1.2836  0.9865
   22CHL1  H16B 1577   0.048   4.703   9.225 -0.5684 -0.1698  2.7223
   22CHL1   C17 1578  -0.008   4.918   9.262 -0.1300  0.6750  0.3219
   22CHL1   H17 1579  -0.095   4.866   9.307  0.7179  0.6618  2.0226
   22CHL1   C13 1580   0.053   5.012   9.369  0.0677  0.5214  0.0673
   22CHL1   C18 1581   0.165   5.102   9.300  0.0660  0.6204 -0.0498
   22CHL1  H18A 1582   0.237   5.054   9.230 -0.9491  1.9265 -2.0421
   22CHL1  H18B 1583   0.129   5.189   9.242  0.8704  0.6930 -0.4502
   22CHL1  H18C 1584   0.236   5.133   9.379  0.2811 -1.4305  0.6425
   22CHL1   C12 1585  -0.048   5.108   9.441 -0.3657 -0.2785 -0.0889
   22CHL1  H12A 1586  -0.082   5.197   9.383 -1.0790  0.0168  0.7484
   22CHL1  H12B 1587  -0.143   5.053   9.461 -1.8251  2.0076 -0.2905
   22CHL1   C11 1588   0.017   5.168   9.562  0.2507 -0.2117  0.0271
   22CHL1  H11A 1589   0.093   5.240   9.527 -0.9679  1.0658 -0.0986
   22CHL1  H11B 1590  -0.067   5.216   9.617  0.2051 -0.2551 -0.0038
   22CHL1    C9 1591   0.089   5.056   9.648 -0.1933  0.0145 -0.4211
   22CHL1    H9 1592   0.012   4.984   9.682 -0.4633  0.5935  0.2288
   22CHL1   C10 1593   0.154   5.121   9.777 -0.2002  0.0377  0.1518
   22CHL1   C19 1594   0.250   5.241   9.736  0.5262  0.0980  0.4193
   22CHL1  H19A 1595   0.203   5.341   9.727  0.9521  0.2725  0.1162
   22CHL1  H19B 1596   0.314   5.264   9.824 -0.3382 -0.0689  1.1090
   22CHL1  H19C 1597   0.308   5.214   9.645  0.6618 -1.6686  0.9751
   22CHL1    C1 1598   0.039   5.178   9.871 -0.3576 -0.4887  0.0649
   22CHL1   H1A 1599  -0.015   5.261   9.821  1.7511 -0.3016 -2.0842
   22CHL1   H1B 1600  -0.038   5.098   9.877 -0.2364 -0.7825 -1.6461
   22CHL1    C2 1601   0.083   5.215  10.012  0.0287 -0.3180 -0.1358
   22CHL1   H2A 1602   0.001   5.229  10.086  0.0882  0.0633 -0.1403
   22CHL1   H2B 1603   0.146   5.306  10.013  1.0543 -0.9878  1.5787
   22CHL1   C20 1604  -0.052   4.973   9.126 -0.0887  0.2257  0.0747
   22CHL1   H20 1605   0.029   5.020   9.067  0.1528 -0.4199 -0.1180
   22CHL1   C21 1606  -0.166   5.075   9.144 -0.0792 -0.4211 -0.2130
   22CHL1  H21A 1607  -0.127   5.172   9.183 -3.4683  1.9404 -2.1496
   22CHL1  H21B 1608  -0.243   5.043   9.218 -2.0877  0.0767 -1.9926
   22CHL1  H21C 1609  -0.206   5.088   9.042  1.2952 -0.3601 -0.7647
   22CHL1   C22 1610  -0.092   4.862   9.012 -0.9166 -0.5066  0.5619
   22CHL1  H22A 1611  -0.010   4.787   9.012 -0.9175 -0.5461  2.0309
   22CHL1  H22B 1612  -0.186   4.805   9.026 -0.7016 -1.4328 -1.4686
   22CHL1   C23 1613  -0.095   4.928   8.871  0.1151  0.5943  0.5066
   22CHL1  H23A 1614  -0.192   4.983   8.871  1.0770  2.4019  1.1506
   22CHL1  H23B 1615  -0.014   5.002   8.853  1.3588 -0.5491  1.2719
   22CHL1   C24 1616  -0.077   4.822   8.755  0.4649 -0.3942 -0.2266
   22CHL1  H24A 1617   0.029   4.787   8.757  0.0768 -1.6047  1.9558
   22CHL1  H24B 1618  -0.136   4.735   8.791  1.2899 -1.8810 -2.2128
   22CHL1   C25 1619  -0.132   4.860   8.622  0.7036 -0.2383 -0.1824
   22CHL1   H25 1620  -0.238   4.888   8.640  0.4410 -1.2753 -0.0410
   22CHL1   C26 1621  -0.055   4.972   8.563  0.5134 -0.5974 -0.3633
   22CHL1  H26A 1622  -0.113   5.013   8.477 -0.4296  3.9248  2.1279
   22CHL1  H26B 1623  -0.035   5.048   8.641  1.0646 -0.6412 -0.4613
   22CHL1  H26C 1624   0.047   4.944   8.531  1.1304 -0.3468  1.3061
   22CHL1   C27 1625  -0.136   4.747   8.519  0.5721 -0.1877  0.0192
   22CHL1  H27A 1626  -0.200   4.776   8.433 -1.5975  0.2714  1.7187
   22CHL1  H27B 1627  -0.029   4.727   8.498  1.1624  1.3131  1.3574
   22CHL1  H27C 1628  -0.182   4.657   8.564  1.0124 -0.9090 -0.9413
   23CHL1    C3 1629   3.876   5.505  10.293 -0.1542 -1.1042  0.5960
   23CHL1    H3 1630   3.783   5.565  10.287  0.5959 -0.0244 -0.5499
   23CHL1    O3 1631   3.899   5.487  10.428 -0.0987 -0.0666 -0.7662
   23CHL1   H3' 1632   3.945   5.560  10.469  0.0880 -1.3369  1.4813
   23CHL1    C4 1633   3.844   5.371  10.228  0.3464 -0.0560 -0.6810
   23CHL1   H4A 1634   3.932   5.307  10.250  0.5731  1.0965  2.3518
   23CHL1   H4B 1635   3.756   5.324  10.279  1.4973 -1.7310 -0.1483
   23CHL1    C5 1636   3.807   5.395  10.084  0.4112  0.8389  0.0623
   23CHL1    C6 1637   3.684   5.359  10.037 -0.5193  0.1209  0.8438
   23CHL1    H6 1638   3.609   5.318  10.107 -1.1756 -0.3139 -0.1040
   23CHL1    C7 1639   3.655   5.369   9.890 -0.0710  0.1176 -0.0343
   23CHL1   H7A 1640   3.605   5.281   9.845 -0.6360  0.7729 -0.7348
   23CHL1   H7B 1641   3.597   5.461   9.865 -2.2676 -0.7096  1.6577
   23CHL1    C8 1642   3.783   5.399   9.805 -0.0332  0.0326  0.9610
   23CHL1    H8 1643   3.829   5.298   9.797  0.2616  0.1247  1.4579
   23CHL1   C14 1644   3.737   5.430   9.662  0.2273 -0.3878 -0.7208
   23CHL1   H14 1645   3.674   5.522   9.658 -1.2348 -1.4086 -3.7289
   23CHL1   C15 1646   3.639   5.326   9.587  0.0915 -0.0465 -0.7395
   23CHL1  H15A 1647   3.678   5.225   9.616  0.6961  0.2341 -0.5442
   23CHL1  H15B 1648   3.540   5.354   9.627 -0.1760 -1.3736 -0.4206
   23CHL1   C16 1649   3.658   5.350   9.440 -0.8108 -0.2751 -0.3071
   23CHL1  H16A 1650   3.690   5.254   9.394 -0.0510 -0.4095  0.4876
   23CHL1  H16B 1651   3.562   5.388   9.397 -0.6554 -0.3482 -0.7151
   23CHL1   C17 1652   3.764   5.460   9.428 -0.1596  0.7284  0.0959
   23CHL1   H17 1653   3.697   5.549   9.434 -0.9986  0.0596  1.1270
   23CHL1   C13 1654   3.844   5.449   9.561  0.2111 -0.4011 -0.3882
   23CHL1   C18 1655   3.946   5.331   9.558 -0.1739  0.0342 -0.1993
   23CHL1  H18A 1656   3.886   5.245   9.522  1.1609 -1.0667  0.0958
   23CHL1  H18B 1657   4.020   5.348   9.477 -0.6223  0.2508 -0.5691
   23CHL1  H18C 1658   3.995   5.308   9.655  0.9664 -1.3693 -1.0600
   23CHL1   C12 1659   3.921   5.575   9.612  0.3993 -0.5842  0.1498
   23CHL1  H12A 1660   4.000   5.590   9.535  0.0567 -0.5255 -0.1970
   23CHL1  H12B 1661   3.848   5.657   9.592  0.6039 -0.6234 -0.7933
   23CHL1   C11 1662   3.973   5.556   9.755 -0.0759 -0.6397 -0.2206
   23CHL1  H11A 1663   4.059   5.486   9.745  0.8887  0.4568  0.1468
   23CHL1  H11B 1664   4.025   5.652   9.778  0.1008 -0.7527 -0.1431
   23CHL1    C9 1665   3.861   5.514   9.863 -0.1192  0.3266  0.1762
   23CHL1    H9 1666   3.789   5.596   9.884  0.7594  1.7913 -2.1449
   23CHL1   C10 1667   3.911   5.473  10.000 -0.3819 -0.2826  0.1125
   23CHL1   C19 1668   4.026   5.370   9.983 -0.4889 -0.5676  0.0147
   23CHL1  H19A 1669   4.120   5.415   9.945 -0.2711 -2.9545 -2.7259
   23CHL1  H19B 1670   4.054   5.329  10.082 -0.9516  3.2083  1.8693
   23CHL1  H19C 1671   4.008   5.283   9.915  1.1119 -0.5788 -0.4236
   23CHL1    C1 1672   3.963   5.601  10.073  0.0161  0.0031 -0.0149
   23CHL1   H1A 1673   4.050   5.637  10.015  0.8570 -4.3848 -1.8363
   23CHL1   H1B 1674   3.884   5.679  10.064  0.8088  0.6419 -2.1488
   23CHL1    C2 1675   3.990   5.583  10.226  0.5067 -0.7481 -0.9045
   23CHL1   H2A 1676   4.008   5.682  10.272  2.8085 -1.1248 -0.8473
   23CHL1   H2B 1677   4.084   5.528  10.251  0.7929  1.4453  3.7629
   23CHL1   C20 1678   3.839   5.463   9.295 -0.0112  0.4291 -0.1328
   23CHL1   H20 1679   3.938   5.413   9.305  0.0702  0.5241 -0.4655
   23CHL1   C21 1680   3.870   5.610   9.264  0.9450 -0.2221 -0.6402
   23CHL1  H21A 1681   3.787   5.685   9.265  2.3227  1.4039 -1.8217
   23CHL1  H21B 1682   3.923   5.627   9.168  0.0967 -1.2911 -1.3265
   23CHL1  H21C 1683   3.929   5.655   9.347  0.2960  1.1268 -0.8835
   23CHL1   C22 1684   3.759   5.394   9.176  1.0373 -0.3341  0.4138
   23CHL1  H22A 1685   3.727   5.288   9.180 -0.2677 -0.0299 -0.8528
   23CHL1  H22B 1686   3.661   5.445   9.169  1.6554  0.8774  0.3294
   23CHL1   C23 1687   3.832   5.404   9.038  0.0311  0.4594  0.5313
   23CHL1  H23A 1688   3.829   5.513   9.015  1.8320  0.2674 -0.8784
   23CHL1  H23B 1689   3.936   5.373   9.060  0.0721  1.3685  1.6877
   23CHL1   C24 1690   3.798   5.317   8.919  0.3853  0.0477  0.2847
   23CHL1  H24A 1691   3.858   5.338   8.828 -0.9706 -0.1173 -0.6737
   23CHL1  H24B 1692   3.830   5.216   8.954  2.7335  0.4042 -0.6369
   23CHL1   C25 1693   3.652   5.291   8.882  0.0392 -0.6140  0.1856
   23CHL1   H25 1694   3.597   5.241   8.965 -3.7744  0.8937 -1.2269
   23CHL1   C26 1695   3.580   5.420   8.862 -0.5003 -0.0018 -0.7487
   23CHL1  H26A 1696   3.586   5.471   8.961 -1.3009  1.0633 -1.2285
   23CHL1  H26B 1697   3.638   5.484   8.792 -1.5177 -1.0814 -2.6315
   23CHL1  H26C 1698   3.477   5.410   8.823 -0.8590  1.7674 -0.3740
   23CHL1   C27 1699   3.656   5.201   8.753  0.9815  0.4494  1.0919
   23CHL1  H27A 1700   3.555   5.159   8.731  1.0991  0.0592  1.2927
   23CHL1  H27B 1701   3.682   5.268   8.668  1.9783 -0.4600  0.6612
   23CHL1  H27C 1702   3.727   5.118   8.774 -1.9286 -1.5544  3.9318
   24CHL1    C3 1703   4.385   5.569  10.125  0.5041  0.1478  0.1034
   24CHL1    H3 1704   4.300   5.498  10.111  2.4162 -2.0175 -1.2578
   24CHL1    O3 1705   4.419   5.605  10.257 -0.1041  0.8274  0.1139
   24CHL1   H3' 1706   4.343   5.654  10.290 -0.8267  0.9056 -1.5273
   24CHL1    C4 1707   4.497   5.489  10.057  0.7372 -0.5880 -0.3046
   24CHL1   H4A 1708   4.597   5.531  10.079  0.7846 -1.5416  1.4874
   24CHL1   H4B 1709   4.492   5.392  10.112 -1.7468 -0.2449  0.1811
   24CHL1    C5 1710   4.459   5.457   9.910  0.2253  0.2628  0.1137
   24CHL1    C6 1711   4.417   5.337   9.863  0.1028  0.4229 -0.1385
   24CHL1    H6 1712   4.410   5.246   9.924 -3.3206  0.9234  0.4468
   24CHL1    C7 1713   4.373   5.309   9.726 -0.7822  0.5457  0.1412
   24CHL1   H7A 1714   4.406   5.207   9.698  0.4176  0.7910  0.6223
   24CHL1   H7B 1715   4.262   5.303   9.730 -1.0187  2.9963 -0.5290
   24CHL1    C8 1716   4.421   5.417   9.624 -0.5802  0.6001  0.3111
   24CHL1    H8 1717   4.531   5.408   9.612 -0.7706 -0.8896 -0.5550
   24CHL1   C14 1718   4.349   5.400   9.493  0.3921  0.5239  0.1228
   24CHL1   H14 1719   4.243   5.420   9.518 -0.3287 -2.7084 -0.0096
   24CHL1   C15 1720   4.347   5.264   9.417  0.3379  0.2984 -0.4055
   24CHL1  H15A 1721   4.453   5.231   9.412  0.5989  1.1805 -0.8898
   24CHL1  H15B 1722   4.286   5.187   9.468  1.8361  0.2232  1.3382
   24CHL1   C16 1723   4.299   5.286   9.276  0.0718 -0.1579 -0.0343
   24CHL1  H16A 1724   4.360   5.238   9.197  1.3707 -0.2931  1.0204
   24CHL1  H16B 1725   4.196   5.245   9.274 -0.1048  0.2319  0.5371
   24CHL1   C17 1726   4.299   5.439   9.263 -0.1939  1.0423 -0.3998
   24CHL1   H17 1727   4.201   5.479   9.299  0.0566  0.1724  1.3455
   24CHL1   C13 1728   4.380   5.498   9.382  0.0955 -0.2051  0.3263
   24CHL1   C18 1729   4.533   5.506   9.351 -0.1107 -0.4329 -0.1368
   24CHL1  H18A 1730   4.592   5.528   9.443 -2.1438 -3.4330  2.0827
   24CHL1  H18B 1731   4.561   5.405   9.316  0.0282 -1.7660  3.3844
   24CHL1  H18C 1732   4.550   5.584   9.273 -0.8962 -0.2812 -0.1685
   24CHL1   C12 1733   4.354   5.634   9.430  0.2787 -0.4895  0.8382
   24CHL1  H12A 1734   4.399   5.719   9.375  1.0041  0.1008  2.2798
   24CHL1  H12B 1735   4.245   5.651   9.432 -0.0619 -2.0773 -1.1686
   24CHL1   C11 1736   4.413   5.670   9.571 -0.2010  0.7877  0.5169
   24CHL1  H11A 1737   4.518   5.700   9.548  0.3963 -1.1068  0.5843
   24CHL1  H11B 1738   4.357   5.760   9.603 -2.2876 -0.3963  0.3951
   24CHL1    C9 1739   4.393   5.555   9.676  0.6906 -0.3503 -0.1560
   24CHL1    H9 1740   4.283   5.550   9.687  0.6713 -3.3312 -0.9739
   24CHL1   C10 1741   4.454   5.581   9.814  0.2137 -0.1244 -0.1391
   24CHL1   C19 1742   4.595   5.642   9.787  0.4713 -0.1603 -0.3973
   24CHL1  H19A 1743   4.658   5.596   9.708  0.1985 -0.0572 -0.6812
   24CHL1  H19B 1744   4.587   5.751   9.765  0.6494 -0.0941 -0.1279
   24CHL1  H19C 1745   4.656   5.633   9.879 -1.7674 -0.6955  1.1122
   24CHL1    C1 1746   4.358   5.678   9.893  0.9063 -0.4027  0.4401
   24CHL1   H1A 1747   4.374   5.778   9.849  1.2741 -1.2607 -1.4619
   24CHL1   H1B 1748   4.254   5.640   9.887  0.6331  0.3732  0.2449
   24CHL1    C2 1749   4.366   5.703  10.048 -0.2176  0.1242 -0.4710
   24CHL1   H2A 1750   4.281   5.755  10.099  0.8769  1.3846  0.1127
   24CHL1   H2B 1751   4.458   5.764  10.059  0.0795  0.0085 -2.0996
   24CHL1   C20 1752   4.331   5.479   9.119  0.0067 -0.6142  0.7663
   24CHL1   H20 1753   4.434   5.455   9.085  0.4152  1.7690  0.1371
   24CHL1   C21 1754   4.297   5.634   9.116  0.6203 -0.1054 -1.0447
   24CHL1  H21A 1755   4.365   5.696   9.179  0.5537  0.5023 -1.5643
   24CHL1  H21B 1756   4.190   5.652   9.139  0.5303 -2.3122  0.6134
   24CHL1  H21C 1757   4.311   5.676   9.014 -2.4361  1.7732 -0.8106
   24CHL1   C22 1758   4.242   5.397   9.019 -0.4576 -0.7104 -0.0878
   24CHL1  H22A 1759   4.263   5.288   9.027  1.1008 -0.4712 -0.5940
   24CHL1  H22B 1760   4.133   5.420   9.025  0.0646  2.4167 -0.9519
   24CHL1   C23 1761   4.284   5.413   8.867  0.4187  0.4441 -0.5360
   24CHL1  H23A 1762   4.266   5.517   8.832 -3.4828  1.0861  2.6191
   24CHL1  H23B 1763   4.395   5.406   8.859  0.4012 -0.5632 -0.0483
   24CHL1   C24 1764   4.215   5.310   8.781 -0.0908  0.0946  0.4387
   24CHL1  H24A 1765   4.250   5.210   8.814 -0.3821 -0.0123  0.4288
   24CHL1  H24B 1766   4.107   5.333   8.798 -1.4665 -2.9686 -2.8230
   24CHL1   C25 1767   4.243   5.310   8.630  0.3803 -0.7294 -0.7224
   24CHL1   H25 1768   4.180   5.237   8.574 -0.5160 -0.8533  0.4080
   24CHL1   C26 1769   4.198   5.451   8.572 -0.4202 -0.4102  0.3690
   24CHL1  H26A 1770   4.090   5.461   8.598 -0.5981  0.0085 -0.4956
   24CHL1  H26B 1771   4.257   5.528   8.627 -2.2893 -0.8980  3.3110
   24CHL1  H26C 1772   4.214   5.452   8.462  2.1081 -1.8633  0.6511
   24CHL1   C27 1773   4.392   5.275   8.595 -0.5120  0.7066 -0.5598
   24CHL1  H27A 1774   4.470   5.351   8.619  2.5493 -2.6908  1.2097
   24CHL1  H27B 1775   4.417   5.179   8.643 -0.2473  1.7027  1.3784
   24CHL1  H27C 1776   4.399   5.252   8.486  0.9126  1.4453 -0.6525
   25CHL1    C3 1777   4.379   2.236  10.312 -0.6007 -0.0597 -0.8850
   25CHL1    H3 1778   4.283   2.226  10.258 -0.9311  1.1595 -0.5399
   25CHL1    O3 1779   4.363   2.244  10.453 -0.1308 -0.4244 -0.4114
   25CHL1   H3' 1780   4.450   2.264  10.489 -0.3268 -1.4431  0.6847
   25CHL1    C4 1781   4.432   2.092  10.281 -0.4935  0.8136 -0.5503
   25CHL1   H4A 1782   4.534   2.078  10.321 -0.5782  0.9790 -0.2772
   25CHL1   H4B 1783   4.354   2.021  10.317 -0.0172  0.0994 -0.9077
   25CHL1    C5 1784   4.447   2.075  10.128 -0.3855 -0.8784  0.8287
   25CHL1    C6 1785   4.388   1.980  10.054 -0.6728  0.3933  0.0658
   25CHL1    H6 1786   4.310   1.917  10.099 -2.1249  0.9412 -1.5702
   25CHL1    C7 1787   4.418   1.959   9.900 -0.0358  0.3979 -1.0057
   25CHL1   H7A 1788   4.445   1.857   9.864  0.1039  0.5806 -1.4255
   25CHL1   H7B 1789   4.317   1.984   9.859 -1.2272 -0.1987  1.3602
   25CHL1    C8 1790   4.523   2.050   9.834 -0.4198  0.2670 -0.1940
   25CHL1    H8 1791   4.620   2.004   9.861 -0.4811  0.2231 -0.0432
   25CHL1   C14 1792   4.503   2.072   9.687 -0.1385  0.4199  0.4138
   25CHL1   H14 1793   4.406   2.124   9.671  0.0840  0.4749 -0.9074
   25CHL1   C15 1794   4.477   1.955   9.592  0.3181 -0.1812  0.1956
   25CHL1  H15A 1795   4.550   1.875   9.613 -0.3701 -0.7233  0.5389
   25CHL1  H15B 1796   4.374   1.922   9.616  0.4281 -1.0085 -0.4353
   25CHL1   C16 1797   4.495   2.010   9.454 -0.0947  0.8715 -0.3507
   25CHL1  H16A 1798   4.567   1.934   9.417  1.2242  1.0795  1.6641
   25CHL1  H16B 1799   4.403   1.998   9.392  1.3145 -1.9674 -2.0862
   25CHL1   C17 1800   4.561   2.149   9.467 -0.8202 -0.3608  0.2349
   25CHL1   H17 1801   4.478   2.220   9.445  0.0639  1.6199  2.8087
   25CHL1   C13 1802   4.598   2.160   9.619 -0.0082 -0.0493  0.5995
   25CHL1   C18 1803   4.742   2.104   9.650 -0.5292 -0.1616 -0.1441
   25CHL1  H18A 1804   4.834   2.139   9.599  0.5197 -1.2905  0.8890
   25CHL1  H18B 1805   4.754   2.113   9.760 -1.6346  1.0530 -0.1010
   25CHL1  H18C 1806   4.747   1.995   9.626 -0.8374 -0.2812  0.3310
   25CHL1   C12 1807   4.570   2.301   9.684 -0.0250 -0.1682  0.3337
   25CHL1  H12A 1808   4.625   2.390   9.645  0.4978 -0.2187  0.9380
   25CHL1  H12B 1809   4.464   2.329   9.669  0.4385  1.3086 -0.4292
   25CHL1   C11 1810   4.606   2.308   9.834  0.6538 -0.1620 -0.3741
   25CHL1  H11A 1811   4.716   2.300   9.846  0.7181  0.2948 -0.6674
   25CHL1  H11B 1812   4.573   2.408   9.870 -1.6768 -1.5822  1.8388
   25CHL1    C9 1813   4.517   2.191   9.905 -0.3385  0.6912 -0.3069
   25CHL1    H9 1814   4.418   2.236   9.882 -1.9110 -0.4308  3.4875
   25CHL1   C10 1815   4.521   2.193  10.061 -0.6739  0.7598 -0.4561
   25CHL1   C19 1816   4.666   2.170  10.100  0.5723 -0.4659  0.0911
   25CHL1  H19A 1817   4.716   2.082  10.055  2.1591 -0.2325  1.2932
   25CHL1  H19B 1818   4.713   2.259  10.053 -2.5020  0.0390 -2.3136
   25CHL1  H19C 1819   4.695   2.164  10.207  1.1933 -2.5721 -0.1478
   25CHL1    C1 1820   4.476   2.330  10.111  0.5593 -0.7253 -0.6020
   25CHL1   H1A 1821   4.539   2.413  10.071  0.7545 -1.6760 -2.3488
   25CHL1   H1B 1822   4.376   2.348  10.067 -0.0419  2.9093  1.7664
   25CHL1    C2 1823   4.463   2.341  10.264 -0.2522 -0.4760 -0.0956
   25CHL1   H2A 1824   4.412   2.439  10.278 -0.6473 -0.6402 -0.3706
   25CHL1   H2B 1825   4.564   2.342  10.310 -0.1561  1.3095 -0.2632
   25CHL1   C20 1826   4.677   2.178   9.364  0.0020 -0.1883  0.5410
   25CHL1   H20 1827   4.767   2.122   9.396  0.0505 -0.2155  0.3605
   25CHL1   C21 1828   4.721   2.323   9.387  0.5094  0.7082  0.2705
   25CHL1  H21A 1829   4.804   2.340   9.315  1.5453 -1.1121  0.9632
   25CHL1  H21B 1830   4.762   2.347   9.487 -0.1195 -1.4003  1.0906
   25CHL1  H21C 1831   4.637   2.391   9.364 -1.4492 -1.1849  1.5153
   25CHL1   C22 1832   4.650   2.136   9.221 -0.5017 -0.3028 -0.1340
   25CHL1  H22A 1833   4.630   2.027   9.224 -1.4864 -0.1763 -1.2291
   25CHL1  H22B 1834   4.555   2.184   9.188 -0.0407  0.9346  0.2605
   25CHL1   C23 1835   4.761   2.162   9.118 -0.0978  0.1005 -0.0245
   25CHL1  H23A 1836   4.801   2.265   9.126 -1.0178  0.5997 -1.4412
   25CHL1  H23B 1837   4.847   2.094   9.134  1.3430  2.1197  1.2965
   25CHL1   C24 1838   4.713   2.148   8.971 -0.1114  0.1024 -0.1169
   25CHL1  H24A 1839   4.670   2.047   8.958 -0.4948  0.5892 -3.6673
   25CHL1  H24B 1840   4.629   2.219   8.954  1.3589  1.7041 -1.1210
   25CHL1   C25 1841   4.821   2.171   8.863 -0.4674  0.5231  0.2484
   25CHL1   H25 1842   4.771   2.134   8.771  0.3396 -1.0152  0.3916
   25CHL1   C26 1843   4.848   2.317   8.847  0.5342 -0.2531  0.1987
   25CHL1  H26A 1844   4.893   2.360   8.939 -0.3828 -0.5236  0.7976
   25CHL1  H26B 1845   4.910   2.346   8.759 -2.0722  0.0967 -1.6571
   25CHL1  H26C 1846   4.751   2.366   8.821  1.6833  1.2347 -1.5083
   25CHL1   C27 1847   4.950   2.102   8.892 -0.6866 -0.3376 -0.0855
   25CHL1  H27A 1848   5.014   2.145   8.972  0.2157  0.3281 -1.1313
   25CHL1  H27B 1849   4.937   1.995   8.918 -0.6547 -0.3700 -0.2019
   25CHL1  H27C 1850   5.017   2.109   8.803 -1.8486 -0.5244 -0.9953
   26CHL1    C3 1851   0.817   4.174  10.100  0.7413 -0.0061 -0.0408
   26CHL1    H3 1852   0.755   4.083  10.083 -0.1174  0.5973 -0.1558
   26CHL1    O3 1853   0.806   4.199  10.241 -0.1667  0.3534  0.3167
   26CHL1   H3' 1854   0.844   4.287  10.246  0.7847  0.1410 -1.8595
   26CHL1    C4 1855   0.965   4.141  10.068  0.4359 -0.4765 -0.1555
   26CHL1   H4A 1856   1.033   4.222  10.101  0.5753 -0.2448 -1.0079
   26CHL1   H4B 1857   0.996   4.049  10.123  3.8228 -0.2713 -1.4986
   26CHL1    C5 1858   0.980   4.102   9.924  0.1506 -0.4172  0.2031
   26CHL1    C6 1859   1.040   3.995   9.874 -0.3968  0.2325 -0.5914
   26CHL1    H6 1860   1.091   3.923   9.941 -3.1024 -2.2823 -1.0613
   26CHL1    C7 1861   1.067   3.970   9.732 -0.3320 -0.3707 -0.0138
   26CHL1   H7A 1862   1.175   3.958   9.707 -0.6236 -0.6789 -1.1893
   26CHL1   H7B 1863   1.027   3.871   9.701 -0.7435 -0.3097  0.3055
   26CHL1    C8 1864   1.032   4.081   9.629 -0.0243  0.3534 -0.5636
   26CHL1    H8 1865   1.117   4.152   9.621  1.4426 -1.2960 -0.2852
   26CHL1   C14 1866   0.998   4.010   9.494 -0.4143  0.8464 -1.2858
   26CHL1   H14 1867   0.898   3.966   9.512 -0.1102  0.8192  0.5307
   26CHL1   C15 1868   1.091   3.902   9.448  0.2675  0.5754  0.6945
   26CHL1  H15A 1869   1.195   3.930   9.476  1.0069 -0.3754 -0.9251
   26CHL1  H15B 1870   1.062   3.801   9.484  1.4004  0.8912  2.6132
   26CHL1   C16 1871   1.076   3.906   9.299 -0.3939  0.2557  0.0875
   26CHL1  H16A 1872   1.171   3.944   9.254 -1.0488  2.3082  0.3459
   26CHL1  H16B 1873   1.053   3.802   9.265  1.8883 -0.7871  1.4326
   26CHL1   C17 1874   0.964   4.006   9.270  0.5591 -0.2115  0.1356
   26CHL1   H17 1875   0.867   3.954   9.290  0.2897  0.1518 -0.2229
   26CHL1   C13 1876   0.976   4.109   9.382  0.0938 -0.7893  0.1692
   26CHL1   C18 1877   1.105   4.198   9.359 -0.3101  0.2652  0.5898
   26CHL1  H18A 1878   1.104   4.263   9.269  2.7191 -1.1522 -0.6238
   26CHL1  H18B 1879   1.129   4.259   9.448  1.7600 -1.3942  1.2463
   26CHL1  H18C 1880   1.187   4.125   9.341 -0.6236 -0.0708  0.4998
   26CHL1   C12 1881   0.849   4.195   9.420 -0.4878  0.6347  0.4640
   26CHL1  H12A 1882   0.824   4.272   9.344  0.4455  0.2359 -0.2672
   26CHL1  H12B 1883   0.766   4.122   9.430 -0.1808  0.4053  1.5322
   26CHL1   C11 1884   0.868   4.257   9.563 -0.4726  0.4596  0.2759
   26CHL1  H11A 1885   0.945   4.336   9.555 -0.3134  0.4936  1.8020
   26CHL1  H11B 1886   0.771   4.305   9.590  0.2151  1.3646  1.2026
   26CHL1    C9 1887   0.908   4.157   9.675  0.3306  0.9223 -0.1512
   26CHL1    H9 1888   0.829   4.078   9.683  0.2308  1.1149  1.0495
   26CHL1   C10 1889   0.920   4.208   9.820 -0.4598 -0.1281  0.2783
   26CHL1   C19 1890   1.013   4.337   9.831  0.6093  0.0160 -0.1785
   26CHL1  H19A 1891   1.016   4.367   9.938 -0.7458 -0.4645  0.0144
   26CHL1  H19B 1892   1.117   4.323   9.793  1.0210 -1.6007  1.4135
   26CHL1  H19C 1893   0.964   4.422   9.779 -0.4071  1.2125  2.5423
   26CHL1    C1 1894   0.774   4.251   9.865 -0.2442 -0.6201  0.5151
   26CHL1   H1A 1895   0.764   4.336   9.794  1.3323 -0.4065  0.4991
   26CHL1   H1B 1896   0.708   4.163   9.851 -0.9468 -0.1683  0.8971
   26CHL1    C2 1897   0.750   4.278  10.016 -1.0324 -0.5658 -0.4251
   26CHL1   H2A 1898   0.646   4.288  10.053  0.2964 -2.7421  4.7598
   26CHL1   H2B 1899   0.803   4.372  10.043 -1.3977 -0.4522 -0.1004
   26CHL1   C20 1900   0.955   4.044   9.120  0.1726  0.4632 -0.4935
   26CHL1   H20 1901   1.054   4.093   9.107  0.4330  0.8137  2.2400
   26CHL1   C21 1902   0.841   4.148   9.097  0.2485 -0.0516 -0.3209
   26CHL1  H21A 1903   0.758   4.118   9.165  1.5319 -1.6392  0.5875
   26CHL1  H21B 1904   0.813   4.155   8.989 -1.4932  2.7853  0.1906
   26CHL1  H21C 1905   0.869   4.253   9.121  1.5359 -0.7715  1.4910
   26CHL1   C22 1906   0.943   3.924   9.025 -0.7576  0.5616  0.3118
   26CHL1  H22A 1907   1.016   3.843   9.047  0.9612  1.6720 -1.1018
   26CHL1  H22B 1908   0.839   3.885   9.022 -0.7930  0.6976 -1.6304
   26CHL1   C23 1909   0.976   3.957   8.879  0.2754  0.0078 -0.2417
   26CHL1  H23A 1910   0.903   4.032   8.842 -1.0514 -1.2368 -0.2485
   26CHL1  H23B 1911   1.074   4.010   8.882 -0.1722  0.9521  3.5367
   26CHL1   C24 1912   0.979   3.830   8.788 -0.6561  0.3608  0.3358
   26CHL1  H24A 1913   1.049   3.754   8.827 -1.9592 -2.3819 -2.2440
   26CHL1  H24B 1914   0.882   3.777   8.795  0.3817 -1.5791  0.6395
   26CHL1   C25 1915   1.016   3.863   8.642 -0.7540  0.7199 -0.6108
   26CHL1   H25 1916   1.091   3.944   8.636  1.3851 -1.2591 -3.7082
   26CHL1   C26 1917   1.067   3.742   8.575  0.6995  0.2655 -0.2187
   26CHL1  H26A 1918   1.167   3.714   8.614  0.1572 -1.4949 -0.0312
   26CHL1  H26B 1919   0.992   3.661   8.586 -0.5585  1.3835 -0.3461
   26CHL1  H26C 1920   1.078   3.763   8.467 -1.4478 -0.0347 -0.5382
   26CHL1   C27 1921   0.891   3.915   8.566  0.4566  0.2833 -0.1512
   26CHL1  H27A 1922   0.915   3.951   8.463  1.7907 -1.4425 -0.4972
   26CHL1  H27B 1923   0.820   3.830   8.559  2.4198 -1.4879  0.5613
   26CHL1  H27C 1924   0.855   4.008   8.614  1.1527  0.6448 -0.3133
   27CHL1    C3 1925   5.149   2.271  10.442 -0.2442 -1.0231 -0.7811
   27CHL1    H3 1926   5.166   2.165  10.413  2.2996 -1.2886  1.2391
   27CHL1    O3 1927   5.120   2.280  10.582 -0.5493 -0.4827 -0.4524
   27CHL1   H3' 1928   5.135   2.373  10.602  0.2379 -0.8251  0.6910
   27CHL1    C4 1929   5.272   2.348  10.407 -0.1040 -0.5921 -0.4752
   27CHL1   H4A 1930   5.257   2.454  10.439  3.9379 -0.1571  0.5087
   27CHL1   H4B 1931   5.362   2.327  10.470  0.3426  0.5951 -0.6891
   27CHL1    C5 1932   5.288   2.348  10.253  0.2982 -0.5142  0.4389
   27CHL1    C6 1933   5.399   2.295  10.193  0.0519 -0.2632  0.2430
   27CHL1    H6 1934   5.481   2.261  10.258 -0.4500 -1.5423  0.2488
   27CHL1    C7 1935   5.428   2.284  10.045  0.8879 -0.1435 -1.0097
   27CHL1   H7A 1936   5.533   2.320  10.034  0.9588  0.3516  0.8177
   27CHL1   H7B 1937   5.421   2.175  10.026  2.5748 -1.2565  3.4853
   27CHL1    C8 1938   5.321   2.363   9.965 -0.6998  0.3180 -0.0754
   27CHL1    H8 1939   5.341   2.472   9.979 -0.6703  0.1005  1.7665
   27CHL1   C14 1940   5.329   2.333   9.816 -1.2612 -0.1218 -0.3415
   27CHL1   H14 1941   5.316   2.223   9.818  1.5452 -0.5134  0.2173
   27CHL1   C15 1942   5.467   2.349   9.754 -0.0121 -0.2208  0.2426
   27CHL1  H15A 1943   5.507   2.450   9.776 -2.7121  1.4788 -1.9097
   27CHL1  H15B 1944   5.538   2.278   9.802  1.5309  1.6376  0.8087
   27CHL1   C16 1945   5.427   2.317   9.607 -0.4419 -0.0552 -1.1725
   27CHL1  H16A 1946   5.462   2.405   9.548 -0.2111  1.1700  0.7102
   27CHL1  H16B 1947   5.454   2.213   9.579 -0.2680 -0.0173 -1.1417
   27CHL1   C17 1948   5.275   2.338   9.592  0.7544 -0.4245 -0.0863
   27CHL1   H17 1949   5.233   2.236   9.598  0.6977 -0.4984 -1.4887
   27CHL1   C13 1950   5.222   2.397   9.726 -0.3103  0.2629  1.3550
   27CHL1   C18 1951   5.241   2.552   9.726 -0.5295  0.2313 -0.1652
   27CHL1  H18A 1952   5.237   2.601   9.826 -0.7586 -0.4881  0.1867
   27CHL1  H18B 1953   5.330   2.579   9.666  0.3791  0.5665  1.2781
   27CHL1  H18C 1954   5.162   2.607   9.672  0.5949  0.6869 -1.3905
   27CHL1   C12 1955   5.091   2.347   9.789 -0.7676  0.3566 -1.2622
   27CHL1  H12A 1956   5.003   2.382   9.730  0.5194 -0.6503 -3.9354
   27CHL1  H12B 1957   5.085   2.237   9.804  1.1322  0.5980  2.3924
   27CHL1   C11 1958   5.068   2.397   9.935 -0.4576 -0.3396 -0.2161
   27CHL1  H11A 1959   5.081   2.507   9.942 -1.1943  0.0183 -3.2763
   27CHL1  H11B 1960   4.969   2.366   9.976 -0.7024  1.3378  0.5538
   27CHL1    C9 1961   5.181   2.347  10.026  0.4971 -0.6292 -0.6544
   27CHL1    H9 1962   5.158   2.238  10.027 -0.7971 -0.3596  0.0902
   27CHL1   C10 1963   5.169   2.393  10.172 -0.0672  0.9509 -0.6211
   27CHL1   C19 1964   5.154   2.555  10.191 -0.4416  0.0726 -0.1128
   27CHL1  H19A 1965   5.253   2.594  10.158  0.8790 -3.1595 -0.3540
   27CHL1  H19B 1966   5.068   2.600  10.137  0.8067  1.2724 -1.1942
   27CHL1  H19C 1967   5.130   2.575  10.298 -2.3327 -3.6513  0.3156
   27CHL1    C1 1968   5.038   2.323  10.221  0.5562 -0.3954  0.1086
   27CHL1   H1A 1969   4.956   2.384  10.176  0.0829 -1.9763 -1.2975
   27CHL1   H1B 1970   5.036   2.220  10.180  1.0705  0.3203 -1.8434
   27CHL1    C2 1971   5.030   2.332  10.369 -0.2898  0.3180 -0.2495
   27CHL1   H2A 1972   4.940   2.276  10.401  0.9992 -0.5571  2.0414
   27CHL1   H2B 1973   5.011   2.433  10.410 -1.1586 -0.0504  0.2837
   27CHL1   C20 1974   5.224   2.387   9.459  0.9287  0.3962 -0.6515
   27CHL1   H20 1975   5.244   2.496   9.456  1.3549  0.3769  0.6391
   27CHL1   C21 1976   5.076   2.368   9.446  0.6326 -0.7606  0.6174
   27CHL1  H21A 1977   5.040   2.263   9.459  0.2415 -0.6629  0.3588
   27CHL1  H21B 1978   5.043   2.410   9.349 -0.9641  0.7271  1.7446
   27CHL1  H21C 1979   5.012   2.432   9.511 -1.1153 -0.6464 -1.1190
   27CHL1   C22 1980   5.285   2.335   9.331  0.4916  0.7117 -0.3051
   27CHL1  H22A 1981   5.236   2.374   9.239 -0.6097 -0.1302 -0.1060
   27CHL1  H22B 1982   5.390   2.371   9.327  1.0407 -0.8880 -1.0757
   27CHL1   C23 1983   5.283   2.184   9.314  0.2278  0.3142  0.7610
   27CHL1  H23A 1984   5.335   2.147   9.405  0.6764  2.5514  1.4775
   27CHL1  H23B 1985   5.181   2.141   9.306  0.4717 -0.3028  0.8833
   27CHL1   C24 1986   5.370   2.140   9.194  0.3277  0.3001 -0.4158
   27CHL1  H24A 1987   5.315   2.191   9.112  0.8052  1.6675  0.0991
   27CHL1  H24B 1988   5.474   2.179   9.191  1.1350 -1.7597 -2.1258
   27CHL1   C25 1989   5.369   1.986   9.177 -0.2964 -0.1399  0.2514
   27CHL1   H25 1990   5.275   1.943   9.220 -0.4380  1.8813  2.1038
   27CHL1   C26 1991   5.386   1.950   9.032  0.3981  0.0044  1.3327
   27CHL1  H26A 1992   5.381   1.840   9.017 -1.3884 -0.1216  2.5791
   27CHL1  H26B 1993   5.308   2.001   8.972  2.0464  2.1596  0.9018
   27CHL1  H26C 1994   5.478   1.995   8.990 -0.3475 -0.2567 -0.7612
   27CHL1   C27 1995   5.479   1.923   9.260 -0.3239 -0.4143 -0.0798
   27CHL1  H27A 1996   5.582   1.961   9.241  0.5446 -0.2969  3.9390
   27CHL1  H27B 1997   5.460   1.945   9.367  2.1591  2.4161 -0.0575
   27CHL1  H27C 1998   5.484   1.813   9.251  4.7530 -0.5816  1.5737
   28CHL1    C3 1999   5.888   5.976   9.987  0.4098  0.2458  0.2862
   28CHL1    H3 2000   5.821   5.888   9.977  0.7692 -0.4201  2.9963
   28CHL1    O3 2001   5.910   5.995  10.123 -0.2863  0.5081  0.0353
   28CHL1   H3' 2002   5.848   6.063  10.153 -0.0441  1.0845 -0.7451
   28CHL1    C4 2003   6.011   5.927   9.912 -0.1691  0.2591 -0.4505
   28CHL1   H4A 2004   6.093   6.002   9.926 -0.5183  0.7790 -1.1415
   28CHL1   H4B 2005   6.054   5.834   9.955 -0.4840  0.2841 -0.0768
   28CHL1    C5 2006   5.998   5.914   9.759 -0.0815  0.2915 -0.1277
   28CHL1    C6 2007   6.027   5.798   9.695  0.4572  0.1598 -0.6731
   28CHL1    H6 2008   6.072   5.717   9.755  1.5362  0.9808 -0.3370
   28CHL1    C7 2009   6.024   5.789   9.549  0.3997  0.5463  0.4338
   28CHL1   H7A 2010   6.126   5.763   9.513  0.2328  0.4362  0.0390
   28CHL1   H7B 2011   5.952   5.707   9.527  1.0849 -0.1972  0.8700
   28CHL1    C8 2012   5.979   5.914   9.464  0.1770  0.6195 -0.1232
   28CHL1    H8 2013   6.070   5.975   9.444  0.6920  0.6098  1.9395
   28CHL1   C14 2014   5.920   5.872   9.327  0.0393 -0.2474 -0.0614
   28CHL1   H14 2015   5.832   5.810   9.355  0.9665 -1.3731  0.4220
   28CHL1   C15 2016   5.994   5.779   9.234 -0.5201 -0.6321 -0.1039
   28CHL1  H15A 2017   6.095   5.823   9.215 -1.2727  1.2103 -0.0785
   28CHL1  H15B 2018   6.001   5.673   9.267  1.5386 -0.4900  0.0568
   28CHL1   C16 2019   5.896   5.776   9.116  0.6083 -0.5898  0.4671
   28CHL1  H16A 2020   5.953   5.771   9.020  0.3177  0.3693  0.2272
   28CHL1  H16B 2021   5.838   5.682   9.132 -0.6081  0.4739  2.7382
   28CHL1   C17 2022   5.798   5.905   9.127  0.0664  0.1970 -0.3031
   28CHL1   H17 2023   5.703   5.862   9.167  0.6969 -0.3143  0.6920
   28CHL1   C13 2024   5.867   5.987   9.245 -0.5909 -0.2315  0.8621
   28CHL1   C18 2025   5.981   6.074   9.189  0.0953  0.9745  0.3558
   28CHL1  H18A 2026   5.938   6.152   9.123 -0.2370  0.5012  0.0088
   28CHL1  H18B 2027   6.049   6.111   9.269  0.8558 -0.9783  0.6692
   28CHL1  H18C 2028   6.050   6.013   9.127  0.4473 -2.4116  3.7198
   28CHL1   C12 2029   5.768   6.077   9.330 -0.1755 -0.1791  0.5299
   28CHL1  H12A 2030   5.737   6.172   9.281  2.7140  1.1181  1.0008
   28CHL1  H12B 2031   5.675   6.019   9.348 -1.4843  0.9290 -2.1314
   28CHL1   C11 2032   5.826   6.119   9.467 -0.0107 -0.4291 -0.4978
   28CHL1  H11A 2033   5.907   6.195   9.459 -0.3403  0.1670  1.3276
   28CHL1  H11B 2034   5.747   6.170   9.526  1.8310  0.0385  1.7289
   28CHL1    C9 2035   5.885   6.003   9.548  0.1290  0.1489 -0.9811
   28CHL1    H9 2036   5.797   5.940   9.572  1.8204 -1.9537  0.0678
   28CHL1   C10 2037   5.928   6.034   9.693  0.7758  0.5298 -0.7122
   28CHL1   C19 2038   6.026   6.150   9.703 -0.1461 -0.1978  0.2837
   28CHL1  H19A 2039   6.096   6.156   9.616 -0.8815  2.5805 -0.2291
   28CHL1  H19B 2040   5.968   6.245   9.698  1.2645  0.6487 -3.0239
   28CHL1  H19C 2041   6.081   6.150   9.799 -0.0835  0.4819  0.2581
   28CHL1    C1 2042   5.802   6.075   9.775 -1.2849  0.3309 -0.5300
   28CHL1   H1A 2043   5.758   6.166   9.729 -0.3677  1.6851  1.1319
   28CHL1   H1B 2044   5.721   6.002   9.757 -1.9528  1.4369 -2.2476
   28CHL1    C2 2045   5.823   6.098   9.927 -0.3707  0.7499 -0.0265
   28CHL1   H2A 2046   5.730   6.123   9.983 -0.0851 -2.1153  1.9347
   28CHL1   H2B 2047   5.891   6.186   9.931 -0.0662  0.4673  2.7032
   28CHL1   C20 2048   5.766   5.969   8.995 -0.2854  0.5441 -0.6182
   28CHL1   H20 2049   5.867   5.983   8.949  0.1800 -0.7789 -0.0516
   28CHL1   C21 2050   5.691   6.101   9.006  0.1202 -0.5676 -0.3858
   28CHL1  H21A 2051   5.755   6.178   9.055 -1.1932 -0.1372  0.7308
   28CHL1  H21B 2052   5.599   6.091   9.068 -1.2740  0.7067 -2.1678
   28CHL1  H21C 2053   5.674   6.138   8.903  1.1758 -2.1177 -1.1523
   28CHL1   C22 2054   5.683   5.874   8.912  0.2471 -0.2878  0.0539
   28CHL1  H22A 2055   5.716   5.770   8.934 -2.3594 -0.8774  1.6006
   28CHL1  H22B 2056   5.584   5.874   8.962  1.0066  2.1794  1.7729
   28CHL1   C23 2057   5.676   5.904   8.761 -0.1118  0.5305 -1.0393
   28CHL1  H23A 2058   5.594   5.833   8.740  1.1163 -0.8068 -1.5153
   28CHL1  H23B 2059   5.632   6.004   8.738  0.3838  0.8648 -0.5608
   28CHL1   C24 2060   5.802   5.884   8.679  0.2749  1.5382  0.1747
   28CHL1  H24A 2061   5.879   5.960   8.705  1.5369  0.2473  0.3760
   28CHL1  H24B 2062   5.851   5.787   8.700 -2.9071 -0.2895 -0.1913
   28CHL1   C25 2063   5.761   5.881   8.531 -0.2784 -0.6524 -0.6213
   28CHL1   H25 2064   5.709   5.978   8.519 -1.5972 -1.3319 -0.5609
   28CHL1   C26 2065   5.885   5.890   8.435 -0.4903  0.0887  0.1258
   28CHL1  H26A 2066   5.943   5.796   8.449  1.5432  0.9283 -2.1041
   28CHL1  H26B 2067   5.856   5.903   8.329 -0.9719  2.4955  0.4878
   28CHL1  H26C 2068   5.957   5.966   8.471  1.5113 -1.1102 -1.1720
   28CHL1   C27 2069   5.664   5.761   8.486  0.0526  0.2864 -0.5201
   28CHL1  H27A 2070   5.627   5.786   8.385 -1.7961  1.1439  0.3231
   28CHL1  H27B 2071   5.717   5.663   8.493  0.4116  0.5895  1.9988
   28CHL1  H27C 2072   5.575   5.746   8.551  1.5219  0.6612  1.7371
   29CHL1    C3 2073   0.648   4.697   6.588 -0.2507  0.0562  0.5277
   29CHL1    H3 2074   0.645   4.804   6.616 -0.3001  0.1078  0.3216
   29CHL1    O3 2075   0.655   4.693   6.448 -0.1346 -0.4225 -0.7179
   29CHL1   H3' 2076   0.656   4.600   6.423 -0.9337 -0.2531 -1.4667
   29CHL1    C4 2077   0.767   4.623   6.654 -0.2509 -0.2237  0.3171
   29CHL1   H4A 2078   0.781   4.525   6.605 -1.1493 -1.0586  1.6628
   29CHL1   H4B 2079   0.852   4.688   6.624 -2.6401  1.8996 -2.4914
   29CHL1    C5 2080   0.746   4.606   6.802 -0.3796 -0.6234 -0.2489
   29CHL1    C6 2081   0.841   4.650   6.888  0.8661 -0.5297  0.2448
   29CHL1    H6 2082   0.930   4.702   6.848 -0.3617  0.5567 -1.1684
   29CHL1    C7 2083   0.845   4.622   7.036  0.1274  0.8571  0.6502
   29CHL1   H7A 2084   0.949   4.594   7.063  0.9966  1.6467 -1.6533
   29CHL1   H7B 2085   0.821   4.714   7.095 -0.3076  1.3591 -0.2926
   29CHL1    C8 2086   0.750   4.509   7.069 -0.0719  0.9995  0.0613
   29CHL1    H8 2087   0.781   4.411   7.026 -1.1274  0.0601  1.3729
   29CHL1   C14 2088   0.727   4.512   7.217  0.7113 -0.2752 -0.0547
   29CHL1   H14 2089   0.694   4.612   7.252 -1.3532 -1.0390  0.3559
   29CHL1   C15 2090   0.854   4.486   7.301  0.5649  0.4770  0.8494
   29CHL1  H15A 2091   0.910   4.400   7.259  0.9249  0.8680  0.5133
   29CHL1  H15B 2092   0.929   4.568   7.302 -1.8526  2.9940 -1.9986
   29CHL1   C16 2093   0.790   4.461   7.445  0.3060  0.6633  0.2642
   29CHL1  H16A 2094   0.842   4.374   7.489  0.6747  1.5671  1.6852
   29CHL1  H16B 2095   0.813   4.548   7.510  1.4654 -0.4366  1.3782
   29CHL1   C17 2096   0.638   4.447   7.427  0.3737 -0.3680  0.0475
   29CHL1   H17 2097   0.593   4.546   7.451  0.3492 -0.5834  0.9078
   29CHL1   C13 2098   0.624   4.417   7.277 -0.2662  0.3728  0.4856
   29CHL1   C18 2099   0.669   4.271   7.252  0.0828  0.1620 -0.0221
   29CHL1  H18A 2100   0.769   4.237   7.288  0.5790  2.4758  0.9828
   29CHL1  H18B 2101   0.594   4.207   7.303 -0.5949  1.3306  0.4845
   29CHL1  H18C 2102   0.661   4.257   7.142  0.4448  2.3317 -0.3630
   29CHL1   C12 2103   0.493   4.454   7.212  0.7313  0.1875  0.4799
   29CHL1  H12A 2104   0.415   4.380   7.241  0.0926  0.1768 -1.1446
   29CHL1  H12B 2105   0.467   4.557   7.245  2.0565  0.0628  2.0450
   29CHL1   C11 2106   0.497   4.450   7.055  0.6834 -0.6120  0.2275
   29CHL1  H11A 2107   0.489   4.346   7.017 -0.1868 -0.2071 -0.7667
   29CHL1  H11B 2108   0.403   4.496   7.018  0.2235 -0.2591  1.7803
   29CHL1    C9 2109   0.614   4.536   6.999  0.1199  0.7198  0.5493
   29CHL1    H9 2110   0.588   4.639   7.034 -0.4554 -0.0541  2.5298
   29CHL1   C10 2111   0.614   4.533   6.846 -0.0549 -0.7543  0.3093
   29CHL1   C19 2112   0.627   4.389   6.794 -0.6191  0.8848  0.7961
   29CHL1  H19A 2113   0.633   4.388   6.683  0.6576  1.3285  0.8525
   29CHL1  H19B 2114   0.715   4.336   6.834 -0.7514 -0.6275 -0.7921
   29CHL1  H19C 2115   0.547   4.321   6.831 -2.2537  2.8959  1.1827
   29CHL1    C1 2116   0.497   4.614   6.781 -0.0821 -0.1568  0.0784
   29CHL1   H1A 2117   0.400   4.561   6.795 -0.6420  0.3441 -1.6427
   29CHL1   H1B 2118   0.489   4.718   6.821 -0.9963 -0.6069  1.1460
   29CHL1    C2 2119   0.511   4.633   6.626 -0.7634 -0.7641 -0.5542
   29CHL1   H2A 2120   0.424   4.694   6.592 -0.3977  1.4947  2.2281
   29CHL1   H2B 2121   0.496   4.535   6.575 -1.8583 -0.2651 -1.2427
   29CHL1   C20 2122   0.578   4.334   7.523 -0.5052  0.1177 -0.4783
   29CHL1   H20 2123   0.623   4.234   7.510  1.1960  0.6793  0.6508
   29CHL1   C21 2124   0.430   4.315   7.506 -0.2192 -0.4859 -0.2270
   29CHL1  H21A 2125   0.372   4.410   7.513  1.1175  0.2650  1.5031
   29CHL1  H21B 2126   0.398   4.252   7.592 -1.4754  3.3498  2.3868
   29CHL1  H21C 2127   0.411   4.260   7.412 -1.7131  0.1959 -0.3518
   29CHL1   C22 2128   0.621   4.369   7.669  0.1241 -0.0126  0.2818
   29CHL1  H22A 2129   0.722   4.415   7.680  0.1823  0.0618 -0.5460
   29CHL1  H22B 2130   0.554   4.449   7.709 -1.2433 -0.6195 -0.7225
   29CHL1   C23 2131   0.628   4.253   7.765  0.2455  0.1238  0.6179
   29CHL1  H23A 2132   0.523   4.228   7.793  0.5247 -1.8523  0.0879
   29CHL1  H23B 2133   0.664   4.161   7.715 -0.9113 -1.0026  1.7700
   29CHL1   C24 2134   0.714   4.274   7.886  0.6745 -0.2337 -0.1410
   29CHL1  H24A 2135   0.816   4.293   7.847  1.6171 -1.6423  1.4712
   29CHL1  H24B 2136   0.681   4.370   7.930  0.0900 -0.2062 -0.6348
   29CHL1   C25 2137   0.717   4.168   7.993  0.6947  0.2654 -0.8369
   29CHL1   H25 2138   0.614   4.160   8.035  1.0755 -1.1785 -0.1023
   29CHL1   C26 2139   0.747   4.026   7.939 -0.8151  0.1199 -0.4543
   29CHL1  H26A 2140   0.729   3.952   8.019  1.6639 -0.4277 -0.3299
   29CHL1  H26B 2141   0.690   3.994   7.850 -3.2748  2.1092  0.2885
   29CHL1  H26C 2142   0.856   4.013   7.921 -0.7809 -0.4269  0.1195
   29CHL1   C27 2143   0.814   4.202   8.107  0.2140 -0.3996 -0.1042
   29CHL1  H27A 2144   0.825   4.110   8.168  0.2985 -0.7650 -0.6592
   29CHL1  H27B 2145   0.913   4.226   8.063  1.0518 -0.3579  1.7508
   29CHL1  H27C 2146   0.771   4.289   8.160  2.3555  0.3879  0.4296
   30CHL1    C3 2147   5.604   3.295   7.177  0.0921  0.5430 -0.2053
   30CHL1    H3 2148   5.498   3.329   7.174  0.2505  1.1969  1.0236
   30CHL1    O3 2149   5.655   3.323   7.052  0.1779  0.1242  0.0099
   30CHL1   H3' 2150   5.749   3.305   7.059  0.3435  1.5333  2.0505
   30CHL1    C4 2151   5.681   3.372   7.283 -0.2704 -0.3409  0.2698
   30CHL1   H4A 2152   5.783   3.334   7.260 -0.4369 -0.9168  0.4569
   30CHL1   H4B 2153   5.679   3.482   7.266 -1.2914 -0.5481 -1.1018
   30CHL1    C5 2154   5.654   3.338   7.431 -0.6665 -0.4980  0.4422
   30CHL1    C6 2155   5.620   3.440   7.513 -0.4919  0.5111  0.3698
   30CHL1    H6 2156   5.615   3.546   7.484 -0.7937 -0.2401 -2.5969
   30CHL1    C7 2157   5.596   3.412   7.667  0.2365 -0.0305  0.1631
   30CHL1   H7A 2158   5.638   3.486   7.739  0.8246  0.3159 -0.5214
   30CHL1   H7B 2159   5.489   3.421   7.695 -0.3758  0.9244 -2.2275
   30CHL1    C8 2160   5.635   3.269   7.705  0.6843 -0.2223 -0.1685
   30CHL1    H8 2161   5.745   3.257   7.715  0.7428 -0.8319 -1.2524
   30CHL1   C14 2162   5.574   3.227   7.839 -0.9032 -0.1660 -0.8776
   30CHL1   H14 2163   5.464   3.238   7.828 -1.0039 -0.0983  0.1444
   30CHL1   C15 2164   5.600   3.321   7.958  0.3113 -0.2081  0.9414
   30CHL1  H15A 2165   5.709   3.341   7.970 -0.0412  2.7423  0.0217
   30CHL1  H15B 2166   5.556   3.421   7.938  2.9094  0.8056 -0.2203
   30CHL1   C16 2167   5.545   3.243   8.071  0.4186  0.6356 -0.4797
   30CHL1  H16A 2168   5.616   3.246   8.157  0.1695  2.9970 -0.3096
   30CHL1  H16B 2169   5.451   3.284   8.112  1.1248  1.8521 -0.0180
   30CHL1   C17 2170   5.541   3.089   8.023  0.1540  0.0958 -0.3239
   30CHL1   H17 2171   5.432   3.076   8.006 -0.1114 -1.2589  1.9635
   30CHL1   C13 2172   5.608   3.089   7.885  0.1404 -0.6189 -0.2190
   30CHL1   C18 2173   5.761   3.077   7.908  0.1312  0.7701  0.1791
   30CHL1  H18A 2174   5.805   3.149   7.979 -0.7271  2.1595 -0.6594
   30CHL1  H18B 2175   5.785   2.978   7.954 -0.4426  0.1096 -0.8887
   30CHL1  H18C 2176   5.812   3.084   7.809  2.1578 -1.2615  0.9825
   30CHL1   C12 2177   5.543   2.998   7.786 -0.0821 -0.5865 -0.5330
   30CHL1  H12A 2178   5.571   2.895   7.818 -3.0046 -1.1564  0.5399
   30CHL1  H12B 2179   5.433   2.998   7.804  0.0635  0.6857  0.5330
   30CHL1   C11 2180   5.589   3.028   7.644  0.4846 -0.0569  0.0824
   30CHL1  H11A 2181   5.693   2.991   7.647  0.1365 -1.1002 -0.3114
   30CHL1  H11B 2182   5.541   2.961   7.570  0.0641  1.2663 -0.9039
   30CHL1    C9 2183   5.586   3.174   7.602 -0.8475  0.8770  0.4546
   30CHL1    H9 2184   5.480   3.201   7.585 -0.8831  0.1297 -0.6178
   30CHL1   C10 2185   5.657   3.192   7.468 -0.0248 -0.6549 -0.1713
   30CHL1   C19 2186   5.808   3.141   7.471 -0.5804  0.4380  0.1620
   30CHL1  H19A 2187   5.855   3.179   7.565  1.4951 -1.7595  0.1124
   30CHL1  H19B 2188   5.822   3.031   7.465  0.8287  0.5574  0.7959
   30CHL1  H19C 2189   5.868   3.166   7.382  2.2082 -1.3817  1.3895
   30CHL1    C1 2190   5.578   3.106   7.363 -0.2840  0.5830  0.0612
   30CHL1   H1A 2191   5.589   2.995   7.366 -1.0919  0.4848 -0.2600
   30CHL1   H1B 2192   5.469   3.127   7.366 -1.1303 -2.3490 -2.9726
   30CHL1    C2 2193   5.612   3.140   7.209  0.4136 -0.1836 -0.1286
   30CHL1   H2A 2194   5.556   3.075   7.138  0.8937  1.4372 -2.1059
   30CHL1   H2B 2195   5.718   3.107   7.205  0.0266 -1.4706 -0.2665
   30CHL1   C20 2196   5.583   2.976   8.122  0.3032 -0.7559 -0.7436
   30CHL1   H20 2197   5.688   2.992   8.154 -0.1017 -1.7193  1.2449
   30CHL1   C21 2198   5.545   2.838   8.071  0.6690  0.7870  0.1925
   30CHL1  H21A 2199   5.454   2.848   8.009  1.6697  1.7441 -1.1787
   30CHL1  H21B 2200   5.536   2.767   8.156  0.6739 -0.0230 -0.4752
   30CHL1  H21C 2201   5.624   2.792   8.009  1.4254  1.5777  0.5316
   30CHL1   C22 2202   5.496   2.990   8.250  0.8172 -0.3340  0.1611
   30CHL1  H22A 2203   5.464   3.094   8.270 -2.5648 -1.2125 -0.0690
   30CHL1  H22B 2204   5.403   2.930   8.239  1.3660 -1.2667  0.4427
   30CHL1   C23 2205   5.561   2.933   8.377  0.0183 -0.2865  0.7942
   30CHL1  H23A 2206   5.572   2.823   8.363  0.8329 -0.2354  0.9937
   30CHL1  H23B 2207   5.658   2.987   8.376  0.3812 -0.8270 -2.2815
   30CHL1   C24 2208   5.488   2.968   8.506  0.1910  0.3976  0.5647
   30CHL1  H24A 2209   5.476   3.079   8.506  1.0840  0.5139  1.7577
   30CHL1  H24B 2210   5.387   2.922   8.500  1.2458 -2.3293  1.9367
   30CHL1   C25 2211   5.550   2.923   8.641 -0.1930  0.0108  0.8142
   30CHL1   H25 2212   5.501   2.982   8.721  2.2454  1.6634  1.2084
   30CHL1   C26 2213   5.525   2.776   8.652 -0.1915  0.2097 -0.2662
   30CHL1  H26A 2214   5.569   2.741   8.748 -0.3096  0.4930 -0.1104
   30CHL1  H26B 2215   5.417   2.751   8.648 -0.0847 -0.7108  1.5366
   30CHL1  H26C 2216   5.571   2.712   8.573 -0.8132 -1.1890  0.4752
   30CHL1   C27 2217   5.700   2.945   8.634 -0.3934 -0.0285 -0.3875
   30CHL1  H27A 2218   5.737   3.047   8.609  0.1990 -0.2236 -0.3330
   30CHL1  H27B 2219   5.753   2.915   8.727 -1.5658 -3.0497 -0.5782
   30CHL1  H27C 2220   5.749   2.877   8.560 -1.4785  0.7524 -1.8901
   31CHL1    C3 2221   5.227   5.116   6.941  0.0712 -0.2310  1.0212
   31CHL1    H3 2222   5.242   5.226   6.931 -1.8767 -0.0859 -1.1643
   31CHL1    O3 2223   5.190   5.073   6.809  0.1270  0.0537 -0.1030
   31CHL1   H3' 2224   5.191   4.978   6.801 -1.2684  0.0317 -0.3255
   31CHL1    C4 2225   5.353   5.045   6.980  0.4038 -0.0834 -0.4967
   31CHL1   H4A 2226   5.342   4.936   6.964 -1.5594  0.0821 -0.4393
   31CHL1   H4B 2227   5.432   5.088   6.914 -0.9490 -0.3236 -2.3547
   31CHL1    C5 2228   5.384   5.063   7.129 -0.0386  0.7286 -0.2667
   31CHL1    C6 2229   5.513   5.088   7.166 -0.3945 -0.5019  0.6296
   31CHL1    H6 2230   5.588   5.113   7.090 -1.6224 -0.6273 -0.6790
   31CHL1    C7 2231   5.555   5.086   7.308 -0.6886  0.5051 -0.5438
   31CHL1   H7A 2232   5.652   5.037   7.332 -1.2441 -0.3540  0.0008
   31CHL1   H7B 2233   5.564   5.196   7.322  1.2245  0.3300 -0.1537
   31CHL1    C8 2234   5.455   5.036   7.411  1.4804  0.4446 -0.0592
   31CHL1    H8 2235   5.455   4.925   7.417  2.5056  0.5071  2.1511
   31CHL1   C14 2236   5.499   5.098   7.544 -0.8953  0.4313  0.0240
   31CHL1   H14 2237   5.505   5.207   7.524  0.7520  0.6045  1.2394
   31CHL1   C15 2238   5.642   5.055   7.599  0.5162 -0.0560 -0.1562
   31CHL1  H15A 2239   5.650   4.944   7.589  2.7448  0.0685 -0.2733
   31CHL1  H15B 2240   5.721   5.111   7.545  1.5434 -1.8541 -0.6055
   31CHL1   C16 2241   5.638   5.095   7.751 -0.3357 -0.0748 -0.2553
   31CHL1  H16A 2242   5.657   5.005   7.814 -0.6695  0.4851  0.6786
   31CHL1  H16B 2243   5.709   5.177   7.778  0.0001 -0.9142  1.5820
   31CHL1   C17 2244   5.484   5.137   7.784  0.1711 -0.2998  0.5029
   31CHL1   H17 2245   5.479   5.247   7.768  1.4659 -0.0560  1.5601
   31CHL1   C13 2246   5.402   5.074   7.661 -0.6058 -0.5454  0.0471
   31CHL1   C18 2247   5.386   4.926   7.703  0.5663  0.5214  0.7801
   31CHL1  H18A 2248   5.299   4.918   7.772 -0.9285  1.9457 -0.8261
   31CHL1  H18B 2249   5.353   4.863   7.617 -0.7486  0.0062  1.6345
   31CHL1  H18C 2250   5.476   4.880   7.749  0.6787  2.3613  2.5518
   31CHL1   C12 2251   5.266   5.143   7.616  0.3240  0.1896  0.0617
   31CHL1  H12A 2252   5.186   5.136   7.693  0.4528 -0.1518  0.1639
   31CHL1  H12B 2253   5.283   5.250   7.590  2.6208 -0.5055 -1.6158
   31CHL1   C11 2254   5.215   5.072   7.494  0.4994  1.0528  0.5482
   31CHL1  H11A 2255   5.206   4.964   7.517 -1.9366  0.9403 -0.6944
   31CHL1  H11B 2256   5.113   5.109   7.472 -0.5935 -1.6965  0.6961
   31CHL1    C9 2257   5.315   5.088   7.375  0.3870 -0.2750 -0.4426
   31CHL1    H9 2258   5.327   5.197   7.363  0.2909 -0.2134  0.0176
   31CHL1   C10 2259   5.267   5.036   7.234  0.0985 -0.2611  0.0584
   31CHL1   C19 2260   5.250   4.879   7.225  0.3769  0.0846  0.3389
   31CHL1  H19A 2261   5.339   4.813   7.218 -0.5364 -1.1084 -0.5053
   31CHL1  H19B 2262   5.205   4.842   7.320 -1.1647  0.2567 -0.3032
   31CHL1  H19C 2263   5.188   4.868   7.134 -0.0892  1.5771  0.4546
   31CHL1    C1 2264   5.143   5.106   7.182  0.4009 -0.2508  0.3280
   31CHL1   H1A 2265   5.052   5.069   7.235 -1.3187  3.0827 -0.0579
   31CHL1   H1B 2266   5.148   5.214   7.209  0.4258 -0.7070  2.2976
   31CHL1    C2 2267   5.112   5.091   7.036  0.1352  0.0159 -0.4912
   31CHL1   H2A 2268   5.022   5.155   7.021  0.3042  0.8730  1.7720
   31CHL1   H2B 2269   5.071   4.988   7.025 -3.1883  1.3859 -2.6004
   31CHL1   C20 2270   5.439   5.109   7.926  0.0319 -0.1698  0.2092
   31CHL1   H20 2271   5.442   4.999   7.940  1.2445 -0.0063  1.5524
   31CHL1   C21 2272   5.298   5.149   7.949 -0.2849 -0.2991  0.2774
   31CHL1  H21A 2273   5.224   5.068   7.929  0.4003 -0.9141  0.1794
   31CHL1  H21B 2274   5.269   5.239   7.890 -3.0463 -0.3596  1.3695
   31CHL1  H21C 2275   5.275   5.175   8.054 -0.8002  1.2756 -0.1958
   31CHL1   C22 2276   5.528   5.173   8.038 -0.1879 -0.9638 -0.4154
   31CHL1  H22A 2277   5.620   5.215   7.991  0.9849 -2.9036  0.0701
   31CHL1  H22B 2278   5.476   5.268   8.065 -1.0872 -1.0859 -1.6168
   31CHL1   C23 2279   5.549   5.089   8.167 -0.1169  0.8238  0.6859
   31CHL1  H23A 2280   5.452   5.085   8.221 -0.3266  1.5191  0.3719
   31CHL1  H23B 2281   5.578   4.986   8.139 -0.6877  1.0821 -0.9456
   31CHL1   C24 2282   5.662   5.158   8.250  0.4784  0.0378 -0.8039
   31CHL1  H24A 2283   5.745   5.192   8.185  1.0775 -1.2526 -0.7368
   31CHL1  H24B 2284   5.644   5.262   8.284  2.0883  0.6092 -1.6101
   31CHL1   C25 2285   5.720   5.075   8.368 -0.1343 -0.1224  0.3862
   31CHL1   H25 2286   5.761   4.984   8.319 -2.1049  0.0434 -1.7591
   31CHL1   C26 2287   5.837   5.144   8.445  0.2036  0.3841  0.1473
   31CHL1  H26A 2288   5.870   5.071   8.523 -2.8859 -1.9057 -0.5201
   31CHL1  H26B 2289   5.931   5.154   8.386  1.1270 -0.8174  1.3294
   31CHL1  H26C 2290   5.801   5.241   8.486  0.3768  0.9860 -1.0734
   31CHL1   C27 2291   5.602   5.029   8.451  0.5635 -0.4885 -0.2118
   31CHL1  H27A 2292   5.545   5.114   8.495  2.4086  0.9714 -0.5126
   31CHL1  H27B 2293   5.631   4.992   8.552  2.0499 -0.9911 -0.8062
   31CHL1  H27C 2294   5.534   4.967   8.389  0.0751 -0.6097  0.4239
   32CHL1    C3 2295   6.456   3.726   6.910 -0.1392 -0.9759  0.0264
   32CHL1    H3 2296   6.472   3.620   6.941 -3.2875 -1.8119 -0.8445
   32CHL1    O3 2297   6.424   3.703   6.777  0.0529 -0.1417 -0.0902
   32CHL1   H3' 2298   6.384   3.787   6.753  1.5427  0.6511  0.0205
   32CHL1    C4 2299   6.333   3.794   6.985 -0.0481 -0.0063  0.4228
   32CHL1   H4A 2300   6.315   3.892   6.935  0.9479 -0.9300 -1.9040
   32CHL1   H4B 2301   6.242   3.734   6.960 -1.9373  2.5912  0.6819
   32CHL1    C5 2302   6.364   3.810   7.132  0.3509  0.4544 -0.2935
   32CHL1    C6 2303   6.289   3.763   7.230 -0.7624  0.3918  0.3041
   32CHL1    H6 2304   6.200   3.703   7.205 -0.0106 -0.1019 -1.3520
   32CHL1    C7 2305   6.306   3.781   7.374  0.1906  1.1509 -0.3766
   32CHL1   H7A 2306   6.206   3.801   7.420 -0.2533 -1.8249  0.1428
   32CHL1   H7B 2307   6.346   3.683   7.408  0.8011  0.4490 -2.9252
   32CHL1    C8 2308   6.396   3.903   7.405 -0.1517  0.4305  0.7950
   32CHL1    H8 2309   6.343   3.998   7.383  2.5318  1.5963 -1.2153
   32CHL1   C14 2310   6.444   3.901   7.551  0.0838  0.1112 -0.2417
   32CHL1   H14 2311   6.492   3.802   7.564 -1.3154 -0.3540  1.8499
   32CHL1   C15 2312   6.337   3.884   7.663  0.5310  0.0054  0.4671
   32CHL1  H15A 2313   6.262   3.961   7.638  1.5709  0.3031 -2.0146
   32CHL1  H15B 2314   6.292   3.782   7.664  2.5320 -0.9948 -1.0417
   32CHL1   C16 2315   6.415   3.926   7.789 -0.5850  0.0240 -0.1514
   32CHL1  H16A 2316   6.365   4.017   7.830 -0.4561  0.3759 -0.7615
   32CHL1  H16B 2317   6.402   3.841   7.859 -0.4980 -0.1394 -0.3337
   32CHL1   C17 2318   6.561   3.963   7.749 -0.1819 -0.3348  0.0922
   32CHL1   H17 2319   6.623   3.871   7.750  0.9240  0.3588 -1.2054
   32CHL1   C13 2320   6.544   4.006   7.599 -0.1115 -0.1672  0.0073
   32CHL1   C18 2321   6.486   4.151   7.599 -0.0578 -0.0334 -0.1351
   32CHL1  H18A 2322   6.407   4.162   7.677 -1.5479  0.7968 -1.7044
   32CHL1  H18B 2323   6.565   4.227   7.617  0.8503 -1.3055  1.5350
   32CHL1  H18C 2324   6.436   4.169   7.502 -1.7887 -0.0951  0.7112
   32CHL1   C12 2325   6.657   3.984   7.503  0.3116 -0.1827 -0.1157
   32CHL1  H12A 2326   6.747   4.044   7.526  0.3396 -0.1071 -0.4270
   32CHL1  H12B 2327   6.687   3.879   7.526 -1.8192 -0.8075  0.0159
   32CHL1   C11 2328   6.622   3.997   7.352  0.4326 -0.2862 -0.4201
   32CHL1  H11A 2329   6.594   4.104   7.347 -2.4837 -0.9161  0.7402
   32CHL1  H11B 2330   6.712   3.978   7.289  1.2699 -0.8552  0.9029
   32CHL1    C9 2331   6.518   3.889   7.311 -0.8455 -0.4234 -0.9252
   32CHL1    H9 2332   6.561   3.790   7.337 -1.3803 -0.6067 -0.7172
   32CHL1   C10 2333   6.494   3.896   7.157 -0.8259  0.5560 -0.0185
   32CHL1   C19 2334   6.461   4.042   7.123 -0.3607  0.3010  0.2431
   32CHL1  H19A 2335   6.388   4.064   7.042  0.7511 -0.0169 -0.8768
   32CHL1  H19B 2336   6.417   4.082   7.217 -1.2065 -1.2185  0.5221
   32CHL1  H19C 2337   6.557   4.095   7.101 -0.4336 -0.2790 -1.5798
   32CHL1    C1 2338   6.609   3.833   7.076  0.4201 -0.5466 -0.1420
   32CHL1   H1A 2339   6.698   3.899   7.093 -0.0561  1.1719 -3.4291
   32CHL1   H1B 2340   6.626   3.732   7.119 -0.5764  0.1124  1.9372
   32CHL1    C2 2341   6.588   3.807   6.927  0.0287  0.0140 -0.2384
   32CHL1   H2A 2342   6.672   3.755   6.877 -1.2718 -0.8215 -1.6550
   32CHL1   H2B 2343   6.590   3.905   6.874  1.4593 -0.2437 -0.6947
   32CHL1   C20 2344   6.630   4.063   7.846  1.3792  0.8309 -0.1235
   32CHL1   H20 2345   6.574   4.158   7.833  1.7176  0.7204 -2.9909
   32CHL1   C21 2346   6.778   4.086   7.816  0.2614 -0.6635  0.1360
   32CHL1  H21A 2347   6.829   3.988   7.803 -0.2783 -1.1219  1.3566
   32CHL1  H21B 2348   6.835   4.146   7.890  3.1165 -3.5583  0.5080
   32CHL1  H21C 2349   6.791   4.131   7.715  1.4646 -0.2953  0.4459
   32CHL1   C22 2350   6.599   4.022   7.998 -0.8668  0.4818 -0.5387
   32CHL1  H22A 2351   6.530   3.937   8.012  0.4711 -0.2784  2.0915
   32CHL1  H22B 2352   6.697   3.990   8.040 -1.2331  0.5244  0.3815
   32CHL1   C23 2353   6.527   4.135   8.075  0.7439 -1.2390  0.3413
   32CHL1  H23A 2354   6.583   4.231   8.073 -1.0305 -0.1469 -2.4051
   32CHL1  H23B 2355   6.427   4.162   8.035  1.1355 -0.5134 -0.1745
   32CHL1   C24 2356   6.498   4.109   8.226 -0.5748  0.0767  0.3444
   32CHL1  H24A 2357   6.414   4.036   8.231  0.8043 -1.4754  2.2225
   32CHL1  H24B 2358   6.587   4.072   8.282 -0.2807  1.9347  1.1867
   32CHL1   C25 2359   6.451   4.227   8.304  1.2466  0.2002 -0.3774
   32CHL1   H25 2360   6.397   4.303   8.243  1.5207  0.2440 -0.5638
   32CHL1   C26 2361   6.352   4.183   8.414 -0.6429  0.2457 -1.0453
   32CHL1  H26A 2362   6.314   4.272   8.468 -0.2520  0.4824 -1.1576
   32CHL1  H26B 2363   6.264   4.136   8.366 -0.6506  0.2585 -1.0434
   32CHL1  H26C 2364   6.399   4.114   8.487 -1.3543 -0.8776 -1.6138
   32CHL1   C27 2365   6.567   4.306   8.367  0.2606 -0.0898  0.1061
   32CHL1  H27A 2366   6.651   4.332   8.300  0.5219 -2.4699 -0.6033
   32CHL1  H27B 2367   6.526   4.407   8.388  0.9753 -0.0648  1.5645
   32CHL1  H27C 2368   6.599   4.251   8.459  1.5902  0.4461 -0.0172
   33CHL1    C3 2369   0.574   3.747   6.773  0.1802 -0.2001 -0.4650
   33CHL1    H3 2370   0.575   3.636   6.783  0.4881 -0.2867 -1.3258
   33CHL1    O3 2371   0.518   3.788   6.650 -0.4688  0.0791  0.2464
   33CHL1   H3' 2372   0.524   3.883   6.655 -2.3610  0.2484  0.0542
   33CHL1    C4 2373   0.483   3.803   6.886 -0.1842  0.0414 -0.1575
   33CHL1   H4A 2374   0.475   3.914   6.880  2.5126  0.3157  0.2003
   33CHL1   H4B 2375   0.382   3.757   6.882  0.6471 -2.3896  3.2249
   33CHL1    C5 2376   0.553   3.759   7.020 -0.4020  0.0001 -0.4570
   33CHL1    C6 2377   0.494   3.682   7.106  0.1711  0.2856 -0.2549
   33CHL1    H6 2378   0.403   3.628   7.079 -0.3178  0.6233  0.6792
   33CHL1    C7 2379   0.541   3.652   7.243 -0.3533  0.2060  0.1232
   33CHL1   H7A 2380   0.457   3.667   7.315 -1.3995 -0.8073 -0.8652
   33CHL1   H7B 2381   0.565   3.544   7.246  1.4282  0.5700  0.2502
   33CHL1    C8 2382   0.657   3.741   7.279 -0.0322 -0.6869  0.7686
   33CHL1    H8 2383   0.606   3.839   7.292  1.3034 -0.0937  1.8165
   33CHL1   C14 2384   0.725   3.690   7.403 -1.0155 -0.6227  0.2960
   33CHL1   H14 2385   0.774   3.598   7.363 -0.3760 -0.2494  0.2167
   33CHL1   C15 2386   0.652   3.653   7.532 -0.4614 -0.0343  0.4395
   33CHL1  H15A 2387   0.557   3.710   7.539 -1.0366 -1.0366  1.0332
   33CHL1  H15B 2388   0.614   3.549   7.528 -2.2585  0.5877  0.5527
   33CHL1   C16 2389   0.750   3.675   7.644 -0.2725  0.1629  0.3675
   33CHL1  H16A 2390   0.720   3.759   7.709  1.5758  1.3189 -0.1958
   33CHL1  H16B 2391   0.748   3.577   7.696  2.4322  0.4598  1.1719
   33CHL1   C17 2392   0.884   3.704   7.576  0.4580 -0.2642  0.0072
   33CHL1   H17 2393   0.931   3.607   7.548  0.4955 -0.4885  0.8337
   33CHL1   C13 2394   0.840   3.782   7.455 -0.5790  0.1146  0.5480
   33CHL1   C18 2395   0.791   3.921   7.489 -0.4721 -0.4391 -0.0855
   33CHL1  H18A 2396   0.736   3.930   7.585  1.0956  0.8460  0.7171
   33CHL1  H18B 2397   0.868   4.000   7.496 -2.9117  1.9691  0.9087
   33CHL1  H18C 2398   0.728   3.962   7.407 -0.2827 -2.0167 -1.0758
   33CHL1   C12 2399   0.946   3.774   7.341 -0.3473 -0.1498  0.2533
   33CHL1  H12A 2400   1.043   3.826   7.360  1.2183 -1.7981 -2.5395
   33CHL1  H12B 2401   0.971   3.668   7.319  0.6349  0.3683 -1.2552
   33CHL1   C11 2402   0.895   3.832   7.209 -0.4368  0.4896  0.3667
   33CHL1  H11A 2403   0.877   3.941   7.219 -0.1510  0.8504 -2.1415
   33CHL1  H11B 2404   0.979   3.822   7.137 -0.8729  2.3929 -0.4908
   33CHL1    C9 2405   0.765   3.759   7.163 -0.8047 -0.1730 -0.2949
   33CHL1    H9 2406   0.799   3.656   7.140 -0.9128 -0.5903  1.2763
   33CHL1   C10 2407   0.692   3.822   7.047 -0.2714 -0.0535  0.2931
   33CHL1   C19 2408   0.674   3.984   7.058 -0.4171  0.4755 -0.6513
   33CHL1  H19A 2409   0.624   4.029   6.970 -0.2669  1.4506 -0.2392
   33CHL1  H19B 2410   0.604   4.002   7.141 -0.1223 -0.4014 -0.1985
   33CHL1  H19C 2411   0.776   4.027   7.073 -0.4154 -0.4079  2.6734
   33CHL1    C1 2412   0.781   3.780   6.926 -0.4053  0.0979  0.2752
   33CHL1   H1A 2413   0.878   3.833   6.931 -0.4845  0.5944 -2.3696
   33CHL1   H1B 2414   0.817   3.675   6.929  4.2650  1.4380 -0.6318
   33CHL1    C2 2415   0.717   3.815   6.793  0.1156 -0.2979 -1.0204
   33CHL1   H2A 2416   0.787   3.791   6.710  1.9809  1.3109  0.0054
   33CHL1   H2B 2417   0.701   3.925   6.789 -1.0959 -0.3711  0.4989
   33CHL1   C20 2418   0.987   3.767   7.671 -0.9146 -0.8848  0.6768
   33CHL1   H20 2419   0.963   3.876   7.673 -3.7552 -1.2722 -2.3004
   33CHL1   C21 2420   1.125   3.722   7.630 -0.6256  0.5258  0.1026
   33CHL1  H21A 2421   1.141   3.732   7.520  0.8208 -0.6562  0.1740
   33CHL1  H21B 2422   1.139   3.618   7.666  1.6871  0.6993 -0.0997
   33CHL1  H21C 2423   1.202   3.776   7.690  0.5311 -1.4399  0.4782
   33CHL1   C22 2424   0.972   3.732   7.823  1.0980  0.2980  0.3134
   33CHL1  H22A 2425   1.057   3.777   7.878  0.3539 -0.1145  1.8569
   33CHL1  H22B 2426   0.886   3.783   7.872  0.2966 -0.7664  0.0465
   33CHL1   C23 2427   0.967   3.588   7.872  0.2430  0.1448 -0.7103
   33CHL1  H23A 2428   0.866   3.543   7.859 -0.3611  1.5014 -0.8423
   33CHL1  H23B 2429   1.042   3.531   7.813 -0.2002 -0.0602 -1.0799
   33CHL1   C24 2430   1.002   3.576   8.020  0.0338 -0.1630  0.2702
   33CHL1  H24A 2431   1.035   3.472   8.042  2.6301  0.3253 -0.9369
   33CHL1  H24B 2432   1.079   3.651   8.048  0.0384  0.3315 -0.9920
   33CHL1   C25 2433   0.884   3.604   8.114 -0.0025 -0.2398  1.1606
   33CHL1   H25 2434   0.832   3.700   8.094 -0.6600 -0.5579  1.3094
   33CHL1   C26 2435   0.767   3.500   8.103 -0.3174  0.1580  0.1687
   33CHL1  H26A 2436   0.809   3.397   8.098 -1.5334 -0.5944  3.0649
   33CHL1  H26B 2437   0.700   3.516   8.190 -0.7806 -0.2453 -0.1109
   33CHL1  H26C 2438   0.711   3.524   8.010  3.8729  0.8578 -2.4322
   33CHL1   C27 2439   0.934   3.591   8.264  0.4845 -0.1872  1.3862
   33CHL1  H27A 2440   1.039   3.627   8.260 -0.4471  2.7910  0.8604
   33CHL1  H27B 2441   0.872   3.660   8.326  0.2044 -0.6224  1.5925
   33CHL1  H27C 2442   0.936   3.492   8.314  0.2080  0.3128  2.4182
   34CHL1    C3 2443   0.806   3.194   6.946  0.5177 -0.5021 -0.0542
   34CHL1    H3 2444   0.703   3.198   6.988  1.0913  2.2411  1.2966
   34CHL1    O3 2445   0.816   3.250   6.812  0.3454 -0.4978 -0.8469
   34CHL1   H3' 2446   0.910   3.267   6.808  0.0825  2.0129  1.1625
   34CHL1    C4 2447   0.904   3.279   7.033  0.4528 -0.2551 -0.5220
   34CHL1   H4A 2448   1.007   3.275   6.992 -0.3649 -0.4412 -2.6971
   34CHL1   H4B 2449   0.870   3.383   7.014 -0.1214 -0.7596 -2.4467
   34CHL1    C5 2450   0.903   3.237   7.177  0.3483 -0.2614  0.1861
   34CHL1    C6 2451   0.871   3.322   7.274 -0.0808 -0.4104 -0.2744
   34CHL1    H6 2452   0.847   3.425   7.245 -1.1992 -0.6172 -0.1263
   34CHL1    C7 2453   0.866   3.287   7.420  0.1276 -0.3433  0.3622
   34CHL1   H7A 2454   0.919   3.359   7.486 -0.6520  0.7925 -0.2188
   34CHL1   H7B 2455   0.761   3.292   7.455  0.1419 -1.4021  0.5857
   34CHL1    C8 2456   0.918   3.149   7.456 -0.4506 -0.0556 -0.3763
   34CHL1    H8 2457   1.029   3.163   7.460 -0.0532 -2.9410  1.0515
   34CHL1   C14 2458   0.858   3.109   7.595  0.5481  0.6075  0.1159
   34CHL1   H14 2459   0.750   3.093   7.576  0.4450  1.0186  0.3363
   34CHL1   C15 2460   0.869   3.204   7.719  0.2697  0.0004 -0.1878
   34CHL1  H15A 2461   0.975   3.235   7.731  0.5301 -0.8842 -0.1385
   34CHL1  H15B 2462   0.806   3.295   7.709  0.4453 -0.0774 -2.3058
   34CHL1   C16 2463   0.851   3.109   7.841  0.5726 -0.0078 -0.3079
   34CHL1  H16A 2464   0.931   3.119   7.918  1.1355 -2.1146 -0.5710
   34CHL1  H16B 2465   0.754   3.143   7.883  1.4408  0.2990  1.5313
   34CHL1   C17 2466   0.839   2.966   7.789  0.2772 -0.5478  0.6534
   34CHL1   H17 2467   0.731   2.956   7.764  0.0617  0.7851  0.9893
   34CHL1   C13 2468   0.912   2.979   7.651  0.7381 -0.6683  0.4547
   34CHL1   C18 2469   1.064   2.976   7.669  0.2933  0.6942 -0.2661
   34CHL1  H18A 2470   1.124   2.982   7.576 -0.9457 -0.0378 -1.1494
   34CHL1  H18B 2471   1.100   3.054   7.738  1.0215 -2.9727  3.9915
   34CHL1  H18C 2472   1.097   2.881   7.717  1.3736  1.7774  1.2058
   34CHL1   C12 2473   0.869   2.869   7.544  0.7659 -0.5564 -0.3092
   34CHL1  H12A 2474   0.896   2.772   7.591 -2.5996 -1.5488 -0.1213
   34CHL1  H12B 2475   0.758   2.865   7.540  0.5000  2.9325  0.9253
   34CHL1   C11 2476   0.912   2.896   7.401  0.2967  0.4484  0.4800
   34CHL1  H11A 2477   1.022   2.879   7.402 -0.1543 -3.1487 -0.2187
   34CHL1  H11B 2478   0.864   2.828   7.328 -0.2039  3.2448 -2.0003
   34CHL1    C9 2479   0.889   3.044   7.354  0.3999 -0.6099  0.3951
   34CHL1    H9 2480   0.779   3.054   7.346  0.5900  1.3153 -0.2211
   34CHL1   C10 2481   0.930   3.083   7.207  1.5290  0.4907  0.0458
   34CHL1   C19 2482   1.081   3.052   7.187  0.1055 -0.5704 -0.1196
   34CHL1  H19A 2483   1.143   3.107   7.261  0.8027 -1.4206 -0.0568
   34CHL1  H19B 2484   1.105   2.944   7.178 -0.8366 -0.8471  0.5064
   34CHL1  H19C 2485   1.124   3.106   7.100 -1.0783 -1.8215 -1.5349
   34CHL1    C1 2486   0.840   3.001   7.115 -0.3448  0.2903  1.5096
   34CHL1   H1A 2487   0.838   2.891   7.132 -1.1749  0.0038 -0.2360
   34CHL1   H1B 2488   0.735   3.034   7.129 -1.2353 -1.5532 -0.2214
   34CHL1    C2 2489   0.849   3.042   6.960 -0.0297 -0.8433  0.1822
   34CHL1   H2A 2490   0.771   2.982   6.910 -1.6330  0.6801  0.7617
   34CHL1   H2B 2491   0.951   3.026   6.919  0.1861 -2.1384  1.1645
   34CHL1   C20 2492   0.870   2.858   7.888  0.2786  0.5444 -0.1772
   34CHL1   H20 2493   0.893   2.764   7.834  0.2756 -0.5451  1.6532
   34CHL1   C21 2494   0.726   2.846   7.954  0.3139 -0.3696  0.6938
   34CHL1  H21A 2495   0.655   2.809   7.876 -2.1813  1.1622  2.0945
   34CHL1  H21B 2496   0.700   2.947   7.993 -2.2408 -0.3244 -0.8737
   34CHL1  H21C 2497   0.721   2.780   8.043 -1.2044 -0.6720  0.4218
   34CHL1   C22 2498   0.976   2.875   7.993 -0.2440  0.6591  0.5426
   34CHL1  H22A 2499   1.081   2.890   7.960 -0.0305 -0.7199  0.5267
   34CHL1  H22B 2500   0.956   2.961   8.059 -0.2600 -0.3424  1.8877
   34CHL1   C23 2501   0.990   2.741   8.072 -0.0567 -0.6081  0.4393
   34CHL1  H23A 2502   0.908   2.750   8.147 -3.2962 -1.8125 -2.6997
   34CHL1  H23B 2503   0.956   2.664   8.000 -1.4748 -0.7945  1.2637
   34CHL1   C24 2504   1.125   2.720   8.145  0.2338  0.4917  0.2293
   34CHL1  H24A 2505   1.122   2.624   8.200  0.2809 -0.2342 -1.0015
   34CHL1  H24B 2506   1.210   2.712   8.074  0.7332  3.9082  0.2681
   34CHL1   C25 2507   1.155   2.827   8.254 -0.7357 -0.8085  0.4081
   34CHL1   H25 2508   1.115   2.922   8.214  1.0399 -1.3431 -3.1475
   34CHL1   C26 2509   1.085   2.778   8.383 -0.3421  0.7852  0.0319
   34CHL1  H26A 2510   0.974   2.787   8.371 -0.2541  2.0383  0.0456
   34CHL1  H26B 2511   1.107   2.671   8.402  3.0303  1.3380 -0.3004
   34CHL1  H26C 2512   1.119   2.832   8.473  0.3820  2.7472 -1.3397
   34CHL1   C27 2513   1.306   2.837   8.277 -0.0234  0.0523  0.1586
   34CHL1  H27A 2514   1.322   2.889   8.374 -1.7032 -2.1708  1.7396
   34CHL1  H27B 2515   1.345   2.733   8.282  0.5400  0.3359  3.0965
   34CHL1  H27C 2516   1.369   2.877   8.195  1.2991 -1.4813  0.3652
   35CHL1    C3 2517   5.425   2.064   7.241  0.1297  0.0616 -0.0479
   35CHL1    H3 2518   5.514   2.129   7.225 -1.2716  1.8477 -1.0019
   35CHL1    O3 2519   5.371   2.057   7.112  0.9038  0.7368 -0.2995
   35CHL1   H3' 2520   5.291   2.005   7.119  1.2941  0.2235  0.6309
   35CHL1    C4 2521   5.469   1.928   7.286 -0.2176 -0.2750 -0.5950
   35CHL1   H4A 2522   5.381   1.862   7.270  0.4360 -1.2202 -0.3622
   35CHL1   H4B 2523   5.551   1.889   7.222  0.9034 -0.8466  1.0983
   35CHL1    C5 2524   5.515   1.927   7.434  0.4325 -0.6219  0.3043
   35CHL1    C6 2525   5.633   1.866   7.473  0.0528 -0.1588 -0.3626
   35CHL1    H6 2526   5.695   1.820   7.395 -1.4894  0.7447 -2.2309
   35CHL1    C7 2527   5.685   1.867   7.612  0.0795 -0.2692 -0.3292
   35CHL1   H7A 2528   5.729   1.768   7.639 -0.2059 -0.9117 -2.0968
   35CHL1   H7B 2529   5.770   1.936   7.630 -0.4674  0.5819 -0.9426
   35CHL1    C8 2530   5.580   1.900   7.719 -0.9742  0.2858  0.4496
   35CHL1    H8 2531   5.516   1.809   7.724  0.9801 -1.2197 -0.4066
   35CHL1   C14 2532   5.646   1.929   7.852  0.3301  0.8040 -0.3672
   35CHL1   H14 2533   5.698   2.023   7.825 -0.5329  1.4835  0.2925
   35CHL1   C15 2534   5.757   1.835   7.903 -0.4905  0.8494 -0.5802
   35CHL1  H15A 2535   5.739   1.725   7.911 -0.0615  0.7513 -0.8822
   35CHL1  H15B 2536   5.851   1.856   7.847 -0.7527  0.7429 -1.0708
   35CHL1   C16 2537   5.771   1.875   8.052 -0.0339 -0.0766 -0.3589
   35CHL1  H16A 2538   5.736   1.795   8.121  2.8024 -1.7253 -0.7022
   35CHL1  H16B 2539   5.872   1.916   8.074 -0.7693  1.8008 -0.2906
   35CHL1   C17 2540   5.657   1.994   8.070 -0.6662 -0.2563 -0.3018
   35CHL1   H17 2541   5.711   2.087   8.040 -2.1466  0.2916 -1.3467
   35CHL1   C13 2542   5.552   1.980   7.962  0.2882  0.3297  0.0517
   35CHL1   C18 2543   5.455   1.866   7.988  0.0953 -0.0609 -0.2930
   35CHL1  H18A 2544   5.392   1.844   7.899 -1.8134 -1.0561  1.2205
   35CHL1  H18B 2545   5.491   1.767   8.026 -1.9782  0.0356  2.1311
   35CHL1  H18C 2546   5.380   1.910   8.056  1.1681  2.7887 -0.8066
   35CHL1   C12 2547   5.478   2.114   7.913  0.2079  0.5664 -0.2590
   35CHL1  H12A 2548   5.402   2.149   7.986 -0.9132  0.0582 -1.1580
   35CHL1  H12B 2549   5.550   2.196   7.892  0.0618  1.4765  2.4495
   35CHL1   C11 2550   5.400   2.086   7.781 -0.6756  0.0633 -0.2241
   35CHL1  H11A 2551   5.314   2.019   7.804 -0.0935 -1.0929 -1.2804
   35CHL1  H11B 2552   5.355   2.184   7.755 -0.1892  0.2039 -0.5457
   35CHL1    C9 2553   5.495   2.026   7.675  0.0406  1.0142 -0.5137
   35CHL1    H9 2554   5.568   2.102   7.639 -0.5096  0.1248 -3.8777
   35CHL1   C10 2555   5.420   2.004   7.538  0.4862 -0.1246 -0.1413
   35CHL1   C19 2556   5.296   1.910   7.555 -0.1315 -0.0982 -0.2230
   35CHL1  H19A 2557   5.210   1.973   7.584  0.2709  1.0748 -1.4368
   35CHL1  H19B 2558   5.266   1.855   7.463 -0.7748  0.5396 -0.4012
   35CHL1  H19C 2559   5.321   1.833   7.630 -2.7587  0.9938  1.9147
   35CHL1    C1 2560   5.381   2.141   7.477 -0.7336 -0.7151  0.9563
   35CHL1   H1A 2561   5.303   2.178   7.547 -0.3323 -1.3255  1.7294
   35CHL1   H1B 2562   5.474   2.202   7.481  1.6214 -3.2165 -4.7143
   35CHL1    C2 2563   5.326   2.127   7.337 -0.0486 -0.4835  0.1276
   35CHL1   H2A 2564   5.290   2.225   7.297 -0.7862 -0.1592  1.4962
   35CHL1   H2B 2565   5.232   2.068   7.338 -0.6524  0.4485  0.3976
   35CHL1   C20 2566   5.613   2.030   8.211 -0.1710 -0.5141 -0.3372
   35CHL1   H20 2567   5.531   2.105   8.215  0.3320  0.0856 -0.9058
   35CHL1   C21 2568   5.740   2.094   8.274  0.3659  0.5441 -0.2194
   35CHL1  H21A 2569   5.776   2.190   8.229  2.1006  0.9060  1.7739
   35CHL1  H21B 2570   5.826   2.024   8.283 -1.7216 -1.9047  2.9611
   35CHL1  H21C 2571   5.715   2.116   8.380 -1.2636  1.3375 -0.7330
   35CHL1   C22 2572   5.565   1.916   8.298  0.8661  0.0907  0.0521
   35CHL1  H22A 2573   5.479   1.861   8.254  0.1060  0.6427  0.8056
   35CHL1  H22B 2574   5.645   1.841   8.312 -0.7084 -1.2921  2.3103
   35CHL1   C23 2575   5.508   1.964   8.432 -0.1809 -0.0648  0.7454
   35CHL1  H23A 2576   5.586   2.013   8.494  0.1286  1.4535 -0.7828
   35CHL1  H23B 2577   5.425   2.029   8.399  0.3479 -1.0857 -3.0863
   35CHL1   C24 2578   5.454   1.837   8.514  0.0155 -0.0944 -0.0526
   35CHL1  H24A 2579   5.378   1.789   8.448  0.9766 -0.0746 -1.2037
   35CHL1  H24B 2580   5.534   1.760   8.516 -0.6209 -1.0363 -3.2367
   35CHL1   C25 2581   5.388   1.870   8.654  0.5851  0.1255  0.2215
   35CHL1   H25 2582   5.459   1.929   8.716  0.9724 -0.2510  0.1438
   35CHL1   C26 2583   5.257   1.954   8.645  0.7782 -0.4962 -0.3834
   35CHL1  H26A 2584   5.282   2.052   8.600  1.0316  0.0120  0.8198
   35CHL1  H26B 2585   5.183   1.908   8.576 -0.1332 -0.1852  0.3602
   35CHL1  H26C 2586   5.211   1.956   8.746 -0.3671 -1.1536 -0.8681
   35CHL1   C27 2587   5.352   1.742   8.735 -0.2842  0.2172  0.4970
   35CHL1  H27A 2588   5.319   1.776   8.836  0.3205  4.4730 -0.5392
   35CHL1  H27B 2589   5.438   1.677   8.762  0.9573  1.6978  0.2526
   35CHL1  H27C 2590   5.264   1.692   8.691 -0.3180 -0.3493  1.1883
   36CHL1    C3 2591   6.771   3.454   7.001 -0.1937  0.1937  0.4550
   36CHL1    H3 2592   6.724   3.554   6.990 -1.0163 -0.4021 -2.5895
   36CHL1    O3 2593   6.806   3.413   6.875  0.3122 -0.1288  0.2023
   36CHL1   H3' 2594   6.820   3.318   6.874  1.8548  0.0618  0.8470
   36CHL1    C4 2595   6.888   3.457   7.094 -0.3796  0.8058  0.1842
   36CHL1   H4A 2596   6.929   3.354   7.095 -1.1979  0.4581  2.1357
   36CHL1   H4B 2597   6.959   3.531   7.050 -0.0231 -0.3738 -1.2926
   36CHL1    C5 2598   6.853   3.493   7.241 -0.0852  0.4595  1.0643
   36CHL1    C6 2599   6.920   3.586   7.310  0.1998 -0.6301  0.1047
   36CHL1    H6 2600   7.009   3.642   7.278  0.8005 -1.4388  0.3297
   36CHL1    C7 2601   6.878   3.624   7.451 -0.2257 -0.1110  0.2511
   36CHL1   H7A 2602   6.969   3.644   7.512 -1.0931 -1.0360  1.8835
   36CHL1   H7B 2603   6.830   3.724   7.449 -0.5512 -0.2745 -0.7280
   36CHL1    C8 2604   6.791   3.520   7.523  0.0102 -0.7467 -0.4308
   36CHL1    H8 2605   6.856   3.436   7.555  0.5913  0.1429  0.8096
   36CHL1   C14 2606   6.729   3.579   7.649  0.1327  0.1572  0.3170
   36CHL1   H14 2607   6.657   3.658   7.620 -3.3298 -2.1661  1.8722
   36CHL1   C15 2608   6.824   3.655   7.744 -0.5653 -0.4154  0.3134
   36CHL1  H15A 2609   6.921   3.602   7.750 -0.6453 -0.4116  1.9827
   36CHL1  H15B 2610   6.841   3.753   7.695 -0.9685  0.7986  2.4844
   36CHL1   C16 2611   6.740   3.661   7.880  0.2462  0.1796  0.0461
   36CHL1  H16A 2612   6.809   3.611   7.952  1.2574 -0.6132 -1.4088
   36CHL1  H16B 2613   6.729   3.771   7.895  1.8863  0.4122 -0.2088
   36CHL1   C17 2614   6.615   3.579   7.857  0.0152  0.2303 -0.4124
   36CHL1   H17 2615   6.549   3.652   7.805  0.8558  0.8264 -0.6655
   36CHL1   C13 2616   6.648   3.486   7.736  0.2620 -0.2389 -0.1236
   36CHL1   C18 2617   6.732   3.368   7.784 -0.1767  0.1388 -0.3119
   36CHL1  H18A 2618   6.686   3.322   7.874 -0.1164  0.4231 -0.1347
   36CHL1  H18B 2619   6.758   3.291   7.709  0.1149 -0.1183  0.0525
   36CHL1  H18C 2620   6.826   3.425   7.802 -1.3515  3.3133 -3.0755
   36CHL1   C12 2621   6.523   3.449   7.649  1.1550 -0.4183  0.3651
   36CHL1  H12A 2622   6.456   3.374   7.696  0.1672  1.5434  2.2809
   36CHL1  H12B 2623   6.455   3.535   7.632 -0.9901 -1.8720  1.0883
   36CHL1   C11 2624   6.570   3.386   7.512 -0.2537 -0.1196 -0.1171
   36CHL1  H11A 2625   6.623   3.291   7.534  1.1227  0.5966 -0.2377
   36CHL1  H11B 2626   6.478   3.372   7.451 -1.5523  1.6485  1.3154
   36CHL1    C9 2627   6.679   3.468   7.432  0.0505 -0.1568 -0.1419
   36CHL1    H9 2628   6.623   3.555   7.391 -1.7653 -2.2241 -2.3781
   36CHL1   C10 2629   6.727   3.415   7.295  0.5759 -0.4867  0.5255
   36CHL1   C19 2630   6.772   3.268   7.327 -0.5103  0.1143 -0.9114
   36CHL1  H19A 2631   6.842   3.230   7.249  0.3269  1.7248 -0.9817
   36CHL1  H19B 2632   6.836   3.270   7.418 -2.1206 -0.0231  0.2632
   36CHL1  H19C 2633   6.689   3.195   7.334 -0.2888 -0.0879 -0.2695
   36CHL1    C1 2634   6.609   3.414   7.189 -0.0654 -0.2133  0.3066
   36CHL1   H1A 2635   6.535   3.346   7.235  0.6635 -0.8383  0.5631
   36CHL1   H1B 2636   6.554   3.511   7.185 -1.3736 -0.9371  0.2683
   36CHL1    C2 2637   6.656   3.366   7.051  1.4679 -0.8696 -0.7961
   36CHL1   H2A 2638   6.570   3.369   6.980  0.7359 -0.4189  0.0894
   36CHL1   H2B 2639   6.692   3.261   7.051  1.5374 -0.8451 -0.5778
   36CHL1   C20 2640   6.544   3.529   7.986  0.7478 -0.7144  0.4431
   36CHL1   H20 2641   6.602   3.442   8.022 -1.0455 -0.9269  3.0779
   36CHL1   C21 2642   6.395   3.502   7.959 -0.0247  0.1336 -0.3091
   36CHL1  H21A 2643   6.334   3.467   8.046 -0.3132  0.0625 -0.5374
   36CHL1  H21B 2644   6.377   3.419   7.886 -2.4224 -0.0640  0.4077
   36CHL1  H21C 2645   6.348   3.596   7.925 -0.9748  0.5530  1.9640
   36CHL1   C22 2646   6.555   3.633   8.106 -1.2160 -0.9190  0.7761
   36CHL1  H22A 2647   6.653   3.686   8.099 -1.6378 -0.2274 -0.2696
   36CHL1  H22B 2648   6.473   3.708   8.099 -1.4537 -1.2648 -0.3820
   36CHL1   C23 2649   6.553   3.569   8.242 -0.3104  0.4930  0.0476
   36CHL1  H23A 2650   6.455   3.517   8.246 -0.2453  0.3895  0.3182
   36CHL1  H23B 2651   6.629   3.490   8.262 -1.0754 -0.1837  0.3236
   36CHL1   C24 2652   6.573   3.667   8.360  0.3559  0.5680  0.7536
   36CHL1  H24A 2653   6.486   3.736   8.358 -1.3226 -1.4703  0.2304
   36CHL1  H24B 2654   6.563   3.604   8.451  0.8952  1.1528  1.2271
   36CHL1   C25 2655   6.695   3.764   8.364  0.0710  0.2360 -0.4245
   36CHL1   H25 2656   6.692   3.818   8.267  0.4937  0.4690 -0.3102
   36CHL1   C26 2657   6.687   3.868   8.472 -0.3521 -0.4566 -0.1530
   36CHL1  H26A 2658   6.591   3.925   8.466 -0.1645 -0.2020 -0.7946
   36CHL1  H26B 2659   6.687   3.821   8.573  1.3631  0.1714  0.1667
   36CHL1  H26C 2660   6.761   3.950   8.470 -0.4354 -0.3922 -0.6398
   36CHL1   C27 2661   6.829   3.692   8.359  0.3251  0.0893 -0.1894
   36CHL1  H27A 2662   6.842   3.639   8.456  0.2264  0.0707 -0.1849
   36CHL1  H27B 2663   6.822   3.617   8.277 -1.4930  0.4705 -0.4338
   36CHL1  H27C 2664   6.914   3.760   8.339 -0.1735  1.0721  0.9103
   37CHL1    C3 2665   2.763   4.185   7.122 -0.7927  0.4417  0.2113
   37CHL1    H3 2666   2.874   4.188   7.119 -0.7966  1.6198  0.7726
   37CHL1    O3 2667   2.717   4.190   6.988 -0.1305  0.3154 -0.3159
   37CHL1   H3' 2668   2.771   4.122   6.946 -1.2079 -1.3668  0.8780
   37CHL1    C4 2669   2.712   4.053   7.189 -0.4619  0.7565 -0.4398
   37CHL1   H4A 2670   2.602   4.056   7.171 -0.4439  1.5684 -0.4642
   37CHL1   H4B 2671   2.766   3.969   7.143 -1.6147 -0.2001 -0.0962
   37CHL1    C5 2672   2.747   4.055   7.336  0.0895  0.0586 -0.6440
   37CHL1    C6 2673   2.819   3.956   7.395 -0.8887 -0.5538  0.6136
   37CHL1    H6 2674   2.853   3.868   7.338  0.8806  1.0355 -0.9056
   37CHL1    C7 2675   2.871   3.955   7.540 -0.5993  0.1134 -0.0074
   37CHL1   H7A 2676   2.855   3.853   7.581 -2.3190  0.4811  0.3211
   37CHL1   H7B 2677   2.975   3.988   7.557 -0.8270 -0.5083  3.2996
   37CHL1    C8 2678   2.782   4.048   7.626  0.2168 -0.0269  0.2143
   37CHL1    H8 2679   2.676   4.014   7.624 -0.7917  2.8603 -0.1348
   37CHL1   C14 2680   2.839   4.065   7.765 -0.3047  0.1500 -0.6395
   37CHL1   H14 2681   2.940   4.109   7.750 -0.7097  1.0027 -0.9020
   37CHL1   C15 2682   2.855   3.939   7.847 -0.1783  0.2043  0.5634
   37CHL1  H15A 2683   2.779   3.863   7.818  0.1326  0.7930 -2.0783
   37CHL1  H15B 2684   2.948   3.884   7.822 -0.8760 -0.4357 -0.7515
   37CHL1   C16 2685   2.852   3.985   8.000 -0.2023  0.0381  0.0483
   37CHL1  H16A 2686   2.765   3.935   8.047 -1.2851  0.5712 -1.3136
   37CHL1  H16B 2687   2.936   3.958   8.067 -1.3795  2.9750  3.0190
   37CHL1   C17 2688   2.824   4.140   7.996 -0.4863 -0.0984 -0.2773
   37CHL1   H17 2689   2.927   4.179   7.979  0.2672 -1.6546  0.4963
   37CHL1   C13 2690   2.754   4.159   7.856 -0.4607  0.3352  0.2857
   37CHL1   C18 2691   2.607   4.117   7.856  0.2952  0.0163  0.1431
   37CHL1  H18A 2692   2.548   4.186   7.919  0.2883  0.5266 -0.4118
   37CHL1  H18B 2693   2.567   4.127   7.753 -0.5343 -1.2943  0.3114
   37CHL1  H18C 2694   2.595   4.012   7.892  0.2858 -0.8995 -2.2760
   37CHL1   C12 2695   2.770   4.295   7.804 -0.0275 -0.5504 -0.3403
   37CHL1  H12A 2696   2.702   4.365   7.859 -0.1842 -1.2685  0.3966
   37CHL1  H12B 2697   2.866   4.351   7.805 -0.0828 -0.4531 -0.4546
   37CHL1   C11 2698   2.727   4.300   7.654 -0.0062  0.1789 -0.3295
   37CHL1  H11A 2699   2.616   4.309   7.659  0.0132  0.6587 -0.7340
   37CHL1  H11B 2700   2.759   4.400   7.620 -2.2115  1.3422  0.7649
   37CHL1    C9 2701   2.775   4.185   7.562  0.4852 -0.1354 -0.6919
   37CHL1    H9 2702   2.882   4.211   7.559  0.6729 -0.8661 -0.7164
   37CHL1   C10 2703   2.719   4.181   7.419 -0.3223  0.2594  0.2387
   37CHL1   C19 2704   2.560   4.182   7.432  0.8148 -0.3191  0.0707
   37CHL1  H19A 2705   2.510   4.189   7.333 -0.5722  1.9066  0.8521
   37CHL1  H19B 2706   2.530   4.090   7.486  1.1986 -0.3127  0.3007
   37CHL1  H19C 2707   2.525   4.269   7.491  1.5988 -0.6487  1.0615
   37CHL1    C1 2708   2.761   4.307   7.338  0.1814 -0.0951  0.4917
   37CHL1   H1A 2709   2.708   4.387   7.395 -1.6215 -0.1848 -0.9498
   37CHL1   H1B 2710   2.871   4.311   7.351 -0.0141 -0.6547  2.6665
   37CHL1    C2 2711   2.712   4.307   7.193 -0.5956 -0.3276  0.0646
   37CHL1   H2A 2712   2.756   4.394   7.140  2.1543 -0.9113  1.2137
   37CHL1   H2B 2713   2.602   4.316   7.185 -0.5658  1.2149  1.1784
   37CHL1   C20 2714   2.747   4.206   8.115 -0.4896  0.1037 -0.5196
   37CHL1   H20 2715   2.682   4.288   8.079  0.5658  0.1848 -2.3894
   37CHL1   C21 2716   2.864   4.279   8.187  0.4685 -0.0819  0.1087
   37CHL1  H21A 2717   2.894   4.358   8.115 -0.8617 -2.0688 -2.8157
   37CHL1  H21B 2718   2.950   4.213   8.211  2.0205  1.3344 -1.3147
   37CHL1  H21C 2719   2.841   4.335   8.280  3.3798  2.0444 -0.3089
   37CHL1   C22 2720   2.671   4.112   8.213 -0.4695 -0.6526  0.0627
   37CHL1  H22A 2721   2.601   4.045   8.159 -0.1315 -1.4066  0.5547
   37CHL1  H22B 2722   2.749   4.056   8.269  0.2634 -0.4758 -0.7597
   37CHL1   C23 2723   2.587   4.191   8.315 -0.2343  0.1016 -0.1852
   37CHL1  H23A 2724   2.660   4.245   8.380 -1.0576 -0.8566  1.6081
   37CHL1  H23B 2725   2.512   4.265   8.281 -1.7597 -1.5693 -0.5611
   37CHL1   C24 2726   2.495   4.099   8.396 -0.3423 -0.4180 -0.7822
   37CHL1  H24A 2727   2.429   4.060   8.315  0.1750  1.0310 -1.9465
   37CHL1  H24B 2728   2.552   4.012   8.436 -3.7294 -1.6331  1.9257
   37CHL1   C25 2729   2.396   4.162   8.496 -0.0020  0.4036 -0.1862
   37CHL1   H25 2730   2.373   4.269   8.474 -0.0059  0.2612 -0.8970
   37CHL1   C26 2731   2.270   4.083   8.506  0.7655  0.3624 -0.1122
   37CHL1  H26A 2732   2.283   3.974   8.520 -2.0891 -0.0858 -0.2847
   37CHL1  H26B 2733   2.201   4.125   8.583 -1.7775 -0.6191 -1.7101
   37CHL1  H26C 2734   2.211   4.101   8.414 -1.1021  1.6387  1.2440
   37CHL1   C27 2735   2.453   4.160   8.638 -0.1811  0.1841 -0.8711
   37CHL1  H27A 2736   2.491   4.059   8.664  2.0476  0.0671 -3.9633
   37CHL1  H27B 2737   2.551   4.211   8.639  0.4882 -1.0483 -1.0968
   37CHL1  H27C 2738   2.381   4.207   8.708  1.1389  0.9095  0.0379
   38CHL1    C3 2739   4.261   5.318   6.879  0.1546 -0.0959  0.1396
   38CHL1    H3 2740   4.168   5.256   6.875 -0.2715  0.5324  0.1126
   38CHL1    O3 2741   4.300   5.333   6.741 -0.6309 -0.0880 -0.0896
   38CHL1   H3' 2742   4.268   5.257   6.692 -1.0772  0.8438 -1.3134
   38CHL1    C4 2743   4.234   5.464   6.934 -0.1488 -0.0238 -0.1195
   38CHL1   H4A 2744   4.331   5.516   6.920  0.3111 -0.8737 -0.1605
   38CHL1   H4B 2745   4.153   5.511   6.875 -0.4754 -2.5652 -1.8553
   38CHL1    C5 2746   4.208   5.466   7.081 -0.4710 -0.1402 -0.1309
   38CHL1    C6 2747   4.092   5.523   7.131 -0.8187 -0.2922 -0.0874
   38CHL1    H6 2748   4.027   5.572   7.058  0.0791 -2.4590 -2.4750
   38CHL1    C7 2749   4.074   5.566   7.280  1.0185  0.9056 -0.7179
   38CHL1   H7A 2750   4.033   5.669   7.294 -2.0743 -0.3761  0.5511
   38CHL1   H7B 2751   3.998   5.496   7.321  1.3972  0.6196 -0.5005
   38CHL1    C8 2752   4.196   5.539   7.361 -0.5188 -0.0983 -0.4610
   38CHL1    H8 2753   4.271   5.617   7.337 -2.7589  1.8881 -1.5465
   38CHL1   C14 2754   4.151   5.543   7.507 -0.4148  0.0486  0.1289
   38CHL1   H14 2755   4.066   5.473   7.516 -3.7019  3.7316  0.6772
   38CHL1   C15 2756   4.092   5.676   7.550  0.2844  0.4709 -0.4275
   38CHL1  H15A 2757   4.170   5.753   7.532  1.1334  0.1522  1.5490
   38CHL1  H15B 2758   3.996   5.714   7.510 -0.5207  0.7930  1.6878
   38CHL1   C16 2759   4.092   5.653   7.700 -0.4546 -0.3712 -0.0433
   38CHL1  H16A 2760   4.129   5.738   7.760 -0.6755 -0.0280 -0.3873
   38CHL1  H16B 2761   3.987   5.633   7.733 -0.7796  0.8749 -0.2579
   38CHL1   C17 2762   4.165   5.515   7.732  0.0725 -0.2667 -0.2468
   38CHL1   H17 2763   4.097   5.428   7.732  0.7534 -0.8159  0.3254
   38CHL1   C13 2764   4.263   5.497   7.608 -0.3100 -0.1132 -0.9926
   38CHL1   C18 2765   4.385   5.597   7.616 -0.0926  0.3681  0.0442
   38CHL1  H18A 2766   4.412   5.620   7.511 -1.0792  2.0577  0.1232
   38CHL1  H18B 2767   4.343   5.688   7.663 -1.6438  0.0928 -0.7405
   38CHL1  H18C 2768   4.464   5.552   7.680  1.3164 -1.0195 -2.5046
   38CHL1   C12 2769   4.309   5.354   7.573 -0.2187  0.3548  0.1892
   38CHL1  H12A 2770   4.397   5.324   7.633  0.4649  0.5153 -0.6978
   38CHL1  H12B 2771   4.224   5.284   7.585  2.5130 -3.3786 -0.4696
   38CHL1   C11 2772   4.357   5.353   7.425 -0.4548  0.0098 -0.8261
   38CHL1  H11A 2773   4.450   5.413   7.419 -0.9814  0.7783 -1.4786
   38CHL1  H11B 2774   4.383   5.245   7.413  0.5403 -0.3490  3.1239
   38CHL1    C9 2775   4.256   5.405   7.319  0.6452  0.6316 -0.2818
   38CHL1    H9 2776   4.172   5.334   7.333  0.0756  1.7763  3.1555
   38CHL1   C10 2777   4.310   5.400   7.169 -0.9417  0.8317 -0.1609
   38CHL1   C19 2778   4.441   5.482   7.161  0.5143  0.1001 -0.6893
   38CHL1  H19A 2779   4.489   5.465   7.062  1.3412 -1.7585 -0.0289
   38CHL1  H19B 2780   4.414   5.589   7.174 -1.4014 -0.1018 -2.4221
   38CHL1  H19C 2781   4.511   5.446   7.239 -0.5079  0.2234  0.2982
   38CHL1    C1 2782   4.340   5.246   7.115 -0.4495 -0.6510  0.1580
   38CHL1   H1A 2783   4.420   5.191   7.169  0.4688  2.2176  1.9457
   38CHL1   H1B 2784   4.249   5.187   7.142 -3.9957  2.7099 -3.1272
   38CHL1    C2 2785   4.365   5.236   6.962  0.5410 -0.2283 -0.1490
   38CHL1   H2A 2786   4.356   5.128   6.937 -0.4753 -0.1127 -0.3564
   38CHL1   H2B 2787   4.468   5.259   6.929  1.4142 -3.3129  0.0700
   38CHL1   C20 2788   4.218   5.511   7.879 -0.5424 -0.2551  0.1005
   38CHL1   H20 2789   4.292   5.593   7.892 -0.8456  0.0485 -0.0588
   38CHL1   C21 2790   4.294   5.377   7.897  0.1777  0.4048 -0.0859
   38CHL1  H21A 2791   4.393   5.386   7.848 -0.0064  1.7037 -0.2515
   38CHL1  H21B 2792   4.245   5.291   7.848 -1.5308  0.6836  1.0559
   38CHL1  H21C 2793   4.305   5.356   8.005  1.5198  1.7400  0.0733
   38CHL1   C22 2794   4.100   5.527   7.985 -0.0248 -0.5133  0.0596
   38CHL1  H22A 2795   4.035   5.610   7.951  0.4433 -0.4428 -0.6675
   38CHL1  H22B 2796   4.056   5.425   7.987 -2.7200  0.5235 -1.2410
   38CHL1   C23 2797   4.147   5.560   8.132 -0.5268  0.4237  0.1030
   38CHL1  H23A 2798   4.055   5.583   8.191  0.6309 -1.5553  2.9179
   38CHL1  H23B 2799   4.184   5.467   8.179 -1.4828  0.5251  1.1019
   38CHL1   C24 2800   4.251   5.674   8.144  0.0583 -0.3037  0.1471
   38CHL1  H24A 2801   4.344   5.664   8.085  1.5457 -3.8434  2.7285
   38CHL1  H24B 2802   4.196   5.767   8.119 -2.6280 -1.3729  1.6259
   38CHL1   C25 2803   4.306   5.699   8.285 -0.0489 -0.4796 -0.4061
   38CHL1   H25 2804   4.220   5.720   8.351 -0.0816  2.5475 -1.2821
   38CHL1   C26 2805   4.403   5.582   8.319 -0.1483  0.3329  0.1666
   38CHL1  H26A 2806   4.457   5.597   8.415  1.8582 -1.4140 -0.5934
   38CHL1  H26B 2807   4.355   5.482   8.321  1.0016 -0.2707 -1.1135
   38CHL1  H26C 2808   4.485   5.578   8.243 -0.6655 -0.4176 -0.3699
   38CHL1   C27 2809   4.385   5.830   8.293  0.4299 -0.1742 -0.0108
   38CHL1  H27A 2810   4.400   5.855   8.400 -0.1314 -1.1352  0.3004
   38CHL1  H27B 2811   4.484   5.821   8.243  0.9945  1.0703  0.8382
   38CHL1  H27C 2812   4.328   5.916   8.250 -0.5856 -0.6851  0.2886
   39CHL1    C3 2813   4.819   4.102   6.961  0.2908 -0.0817  0.0706
   39CHL1    H3 2814   4.766   4.181   7.018 -0.8316 -0.2589 -0.7076
   39CHL1    O3 2815   4.806   4.130   6.819  0.1893  0.2369  0.3908
   39CHL1   H3' 2816   4.839   4.053   6.773  2.2805  1.5581 -0.4850
   39CHL1    C4 2817   4.968   4.106   7.014  0.1997  0.6009 -0.8404
   39CHL1   H4A 2818   5.014   4.021   6.960  0.2917  0.2844 -0.2722
   39CHL1   H4B 2819   5.018   4.195   6.970 -0.8237  0.7818 -1.6947
   39CHL1    C5 2820   4.985   4.094   7.168  1.1077  0.3651 -0.4996
   39CHL1    C6 2821   5.045   4.182   7.249 -0.1307 -0.3928 -0.5311
   39CHL1    H6 2822   5.100   4.263   7.198  0.9666 -1.9044 -1.8076
   39CHL1    C7 2823   5.076   4.161   7.396 -0.6271  0.2032 -0.7492
   39CHL1   H7A 2824   5.183   4.178   7.417 -0.7779 -0.8493  1.0347
   39CHL1   H7B 2825   5.014   4.228   7.459 -0.3307 -0.6697  0.4914
   39CHL1    C8 2826   5.044   4.012   7.438 -0.2614  0.7376 -0.9356
   39CHL1    H8 2827   5.136   3.954   7.413 -0.6149 -0.0850 -0.3778
   39CHL1   C14 2828   5.030   4.015   7.591 -0.0354  0.1901 -0.4677
   39CHL1   H14 2829   4.944   4.086   7.592 -0.4206 -0.0278 -4.1564
   39CHL1   C15 2830   5.128   4.089   7.686  0.8379  0.2591 -0.1944
   39CHL1  H15A 2831   5.234   4.068   7.662  1.2257  0.9417  0.8772
   39CHL1  H15B 2832   5.110   4.198   7.680  0.5156  0.4295  2.5640
   39CHL1   C16 2833   5.100   4.027   7.825 -0.7170 -0.0562  0.3502
   39CHL1  H16A 2834   5.194   3.990   7.871  0.4486 -0.7412 -2.3564
   39CHL1  H16B 2835   5.052   4.105   7.889 -4.1300 -1.5507 -0.1310
   39CHL1   C17 2836   4.994   3.913   7.809  0.0502 -0.2310 -0.6939
   39CHL1   H17 2837   4.893   3.959   7.820  0.7775  1.6135 -1.3081
   39CHL1   C13 2838   5.002   3.882   7.656 -0.5767  0.1789  0.4745
   39CHL1   C18 2839   5.126   3.787   7.642  0.1350  0.8450 -0.0473
   39CHL1  H18A 2840   5.104   3.683   7.673 -0.3352  0.7843 -0.5555
   39CHL1  H18B 2841   5.150   3.771   7.534  0.4413 -1.7205  0.3263
   39CHL1  H18C 2842   5.212   3.823   7.702 -0.2903  1.9196 -0.0666
   39CHL1   C12 2843   4.873   3.821   7.589  0.6180  0.0340 -0.5622
   39CHL1  H12A 2844   4.843   3.720   7.624 -0.9070  0.0784 -1.6379
   39CHL1  H12B 2845   4.789   3.889   7.616 -0.7395 -1.4860 -0.7734
   39CHL1   C11 2846   4.882   3.807   7.438 -0.0835 -0.7815  0.3523
   39CHL1  H11A 2847   4.964   3.735   7.418  2.0870  1.9860 -1.6246
   39CHL1  H11B 2848   4.782   3.776   7.400 -0.5166  1.2853 -0.3231
   39CHL1    C9 2849   4.921   3.948   7.371  0.1482  0.2544 -0.0740
   39CHL1    H9 2850   4.840   4.019   7.398  2.2095  1.8032  2.4617
   39CHL1   C10 2851   4.925   3.954   7.214  0.4554 -0.6869 -0.0658
   39CHL1   C19 2852   5.017   3.836   7.160 -0.4007  0.0405 -0.2362
   39CHL1  H19A 2853   4.951   3.746   7.173 -0.1457 -0.0090  0.8681
   39CHL1  H19B 2854   5.035   3.838   7.051 -0.9766  0.4251 -0.3277
   39CHL1  H19C 2855   5.116   3.828   7.209 -0.8507 -1.2936  0.5288
   39CHL1    C1 2856   4.774   3.938   7.158 -0.3336  0.1206  0.1207
   39CHL1   H1A 2857   4.756   3.832   7.185 -0.2365 -0.3989 -1.7558
   39CHL1   H1B 2858   4.707   3.992   7.228 -0.5749  0.5674 -0.4494
   39CHL1    C2 2859   4.752   3.972   7.005  0.6397  0.1779 -0.1915
   39CHL1   H2A 2860   4.642   3.977   6.992  0.1747 -1.3105  2.4691
   39CHL1   H2B 2861   4.804   3.894   6.946  0.5416 -1.5117  1.8281
   39CHL1   C20 2862   5.000   3.801   7.917 -0.7956  0.4833  0.3789
   39CHL1   H20 2863   5.096   3.748   7.896 -2.5590 -1.5392 -3.5603
   39CHL1   C21 2864   4.889   3.687   7.899  0.5129  0.0631  0.3182
   39CHL1  H21A 2865   4.788   3.734   7.894  0.9536  0.9077 -1.4923
   39CHL1  H21B 2866   4.900   3.615   7.983  1.6382  0.3242  0.4053
   39CHL1  H21C 2867   4.911   3.619   7.814 -1.0949 -2.2321  1.6259
   39CHL1   C22 2868   5.009   3.847   8.066  0.0278 -0.1578 -0.0899
   39CHL1  H22A 2869   5.049   3.765   8.129  0.6562  0.5084  0.3971
   39CHL1  H22B 2870   5.092   3.920   8.072  0.8975 -1.0228 -1.1763
   39CHL1   C23 2871   4.875   3.900   8.128  0.2790 -0.5134 -0.6101
   39CHL1  H23A 2872   4.863   4.000   8.082  1.8279  0.0691  0.1691
   39CHL1  H23B 2873   4.782   3.844   8.108 -0.4626  0.3484  0.3231
   39CHL1   C24 2874   4.882   3.920   8.289  0.0862 -0.8127 -0.4523
   39CHL1  H24A 2875   4.940   3.845   8.347 -1.4513 -0.2128  2.0221
   39CHL1  H24B 2876   4.936   4.011   8.324 -3.5357  0.1186  3.5622
   39CHL1   C25 2877   4.739   3.920   8.360  0.4223 -0.0452 -0.0547
   39CHL1   H25 2878   4.701   3.816   8.368  0.2236 -0.0135 -0.5364
   39CHL1   C26 2879   4.736   3.960   8.507 -0.8767  1.0019 -0.4830
   39CHL1  H26A 2880   4.748   4.069   8.522 -0.8985  1.0861 -1.0665
   39CHL1  H26B 2881   4.632   3.944   8.544 -1.1313  3.4170 -0.0030
   39CHL1  H26C 2882   4.818   3.918   8.570 -0.9801  2.7916  0.9259
   39CHL1   C27 2883   4.627   4.002   8.278  0.1578  0.2532  0.1241
   39CHL1  H27A 2884   4.612   3.953   8.180  0.3812  0.6138 -0.0915
   39CHL1  H27B 2885   4.529   4.004   8.330  0.3953  1.1363  0.5557
   39CHL1  H27C 2886   4.665   4.104   8.257 -0.5279  0.5033  0.0588
   40CHL1    C3 2887   1.791   2.312   6.954  1.0512 -0.0959 -0.0801
   40CHL1    H3 2888   1.692   2.313   7.004  1.7128 -0.9503  1.3088
   40CHL1    O3 2889   1.770   2.320   6.815  0.4247 -0.1409 -0.3928
   40CHL1   H3' 2890   1.844   2.282   6.767  1.5736  1.6860 -0.1863
   40CHL1    C4 2891   1.870   2.441   6.991  0.3660  0.1877  0.6597
   40CHL1   H4A 2892   1.955   2.457   6.922  1.3254 -1.4534  1.3992
   40CHL1   H4B 2893   1.793   2.518   6.972 -0.3548 -0.4709  0.8542
   40CHL1    C5 2894   1.904   2.455   7.138 -0.4103 -0.0493  0.1862
   40CHL1    C6 2895   1.866   2.557   7.213 -0.6061 -0.1253  0.4803
   40CHL1    H6 2896   1.816   2.645   7.168 -0.7593  0.2781  1.4178
   40CHL1    C7 2897   1.890   2.569   7.358 -0.1199  0.1439  0.0404
   40CHL1   H7A 2898   1.936   2.666   7.391  1.1790 -0.6211  0.5677
   40CHL1   H7B 2899   1.788   2.559   7.401 -1.0330  0.6960 -1.8794
   40CHL1    C8 2900   1.988   2.463   7.414 -0.3333  0.3550 -0.1577
   40CHL1    H8 2901   2.092   2.495   7.390 -0.4085 -0.3356 -1.4702
   40CHL1   C14 2902   1.974   2.453   7.562 -0.6597 -0.2553  0.0409
   40CHL1   H14 2903   1.871   2.418   7.584 -0.8239  0.8146  1.0599
   40CHL1   C15 2904   2.000   2.583   7.637 -0.1854 -0.3173  0.1837
   40CHL1  H15A 2905   2.092   2.625   7.590  0.9448 -0.2486  2.3148
   40CHL1  H15B 2906   1.915   2.654   7.636  0.4200  0.4298  1.0535
   40CHL1   C16 2907   2.033   2.539   7.778  0.2214  0.0599  0.2312
   40CHL1  H16A 2908   2.126   2.590   7.812 -1.1338  1.1222  2.6096
   40CHL1  H16B 2909   1.952   2.580   7.843 -2.4039 -1.6212 -1.7842
   40CHL1   C17 2910   2.043   2.386   7.776 -0.8239  0.0601  0.3802
   40CHL1   H17 2911   1.942   2.354   7.809 -1.8463  2.1399 -0.5807
   40CHL1   C13 2912   2.064   2.357   7.631 -0.1626 -0.3280  0.4725
   40CHL1   C18 2913   2.213   2.382   7.591 -0.2519 -0.0080  0.3119
   40CHL1  H18A 2914   2.263   2.472   7.632 -0.1751  0.1063 -0.0293
   40CHL1  H18B 2915   2.272   2.291   7.616  0.5076  0.9148  1.9973
   40CHL1  H18C 2916   2.222   2.381   7.480  0.3466  0.2964  0.3584
   40CHL1   C12 2917   2.009   2.225   7.583  0.3598 -0.3233 -0.5175
   40CHL1  H12A 2918   2.057   2.134   7.625  3.3908  1.2519 -0.2937
   40CHL1  H12B 2919   1.904   2.218   7.618 -0.1778  0.6226 -1.8470
   40CHL1   C11 2920   2.007   2.206   7.429  0.0473  0.9960 -0.8986
   40CHL1  H11A 2921   2.114   2.188   7.408 -0.0200 -0.2760 -0.2621
   40CHL1  H11B 2922   1.955   2.111   7.404  2.0614 -0.5637  0.6006
   40CHL1    C9 2923   1.949   2.327   7.357  0.7768 -0.2779  0.2311
   40CHL1    H9 2924   1.840   2.326   7.375  0.2377 -1.2532 -2.5356
   40CHL1   C10 2925   1.967   2.323   7.199 -0.6488 -0.4519  0.0606
   40CHL1   C19 2926   2.113   2.318   7.165  0.3798 -0.8197  0.0490
   40CHL1  H19A 2927   2.152   2.214   7.160  0.3764 -0.9407  1.7304
   40CHL1  H19B 2928   2.145   2.356   7.066  2.0720 -1.3137  0.3754
   40CHL1  H19C 2929   2.174   2.377   7.237  1.3462 -1.9443  0.1912
   40CHL1    C1 2930   1.893   2.198   7.147  0.0572 -0.1350  0.5290
   40CHL1   H1A 2931   1.945   2.110   7.191 -0.8797 -0.3660  1.2021
   40CHL1   H1B 2932   1.792   2.186   7.192 -0.8928 -0.2111 -1.4952
   40CHL1    C2 2933   1.870   2.189   6.995 -0.7155  1.0423 -0.0993
   40CHL1   H2A 2934   1.791   2.114   6.973 -1.0158  0.9527  1.2247
   40CHL1   H2B 2935   1.965   2.180   6.938 -1.6314 -0.1972 -1.5128
   40CHL1   C20 2936   2.151   2.327   7.885  0.1069  0.1981 -0.1629
   40CHL1   H20 2937   2.256   2.349   7.858  0.0421  3.0864  1.5679
   40CHL1   C21 2938   2.128   2.175   7.894  0.2730 -0.0193 -0.1824
   40CHL1  H21A 2939   2.146   2.135   7.791 -0.6357  0.7659 -0.6582
   40CHL1  H21B 2940   2.020   2.155   7.910 -0.3771  1.5883 -2.1865
   40CHL1  H21C 2941   2.187   2.117   7.968  0.0914 -0.4587 -0.3735
   40CHL1   C22 2942   2.120   2.392   8.022  0.1167  0.7377  0.0725
   40CHL1  H22A 2943   2.098   2.500   8.029 -0.4669  0.9747 -3.4570
   40CHL1  H22B 2944   2.023   2.357   8.064 -0.0945  1.8220  0.5062
   40CHL1   C23 2945   2.235   2.343   8.122 -0.0261 -0.0205 -0.3688
   40CHL1  H23A 2946   2.212   2.236   8.143 -1.1544  0.2251 -0.2638
   40CHL1  H23B 2947   2.338   2.351   8.081  2.1907 -2.1544  4.1325
   40CHL1   C24 2948   2.232   2.408   8.264 -0.8495  0.0317 -0.7772
   40CHL1  H24A 2949   2.245   2.518   8.251  0.3613  0.3289  2.1780
   40CHL1  H24B 2950   2.133   2.383   8.307  0.0153 -2.7766 -0.1863
   40CHL1   C25 2951   2.338   2.356   8.368 -0.1713 -0.4065 -0.1015
   40CHL1   H25 2952   2.440   2.357   8.324  0.1801  0.3961  0.7008
   40CHL1   C26 2953   2.355   2.447   8.488 -0.0053 -0.0514 -0.4265
   40CHL1  H26A 2954   2.407   2.542   8.462 -0.3421  0.5956  1.1510
   40CHL1  H26B 2955   2.262   2.473   8.544 -0.7143  0.1480 -1.6397
   40CHL1  H26C 2956   2.416   2.412   8.573 -0.5159 -2.6456 -1.0498
   40CHL1   C27 2957   2.311   2.211   8.421 -0.0809  0.6266 -1.1423
   40CHL1  H27A 2958   2.405   2.172   8.466 -1.2075  0.6753  1.4660
   40CHL1  H27B 2959   2.239   2.218   8.505  0.3775  0.8073 -0.7554
   40CHL1  H27C 2960   2.274   2.146   8.339  0.4201 -1.3111  0.0994
   41CHL1    C3 2961   2.101   3.323   6.947  0.3048  0.1048 -0.4970
   41CHL1    H3 2962   2.017   3.250   6.952 -0.4875  0.9615 -0.8577
   41CHL1    O3 2963   2.142   3.337   6.810  0.4096 -0.4634  0.2889
   41CHL1   H3' 2964   2.175   3.251   6.781  2.7311  0.5768 -0.4275
   41CHL1    C4 2965   2.059   3.456   7.014 -0.4780 -0.7934 -0.5831
   41CHL1   H4A 2966   2.140   3.532   7.011  0.6123 -1.8232  1.0402
   41CHL1   H4B 2967   1.977   3.508   6.961 -0.7546  2.6400  2.7926
   41CHL1    C5 2968   2.026   3.442   7.163 -0.7549  0.0149 -0.1226
   41CHL1    C6 2969   1.907   3.476   7.216  0.3450 -0.0326 -0.0734
   41CHL1    H6 2970   1.835   3.534   7.156  4.5283  2.9632 -2.8315
   41CHL1    C7 2971   1.881   3.465   7.358 -0.1884 -0.1206 -0.3153
   41CHL1   H7A 2972   1.817   3.551   7.385 -2.1324 -1.2442 -1.1604
   41CHL1   H7B 2973   1.812   3.379   7.371  0.4181 -0.2763  2.4105
   41CHL1    C8 2974   2.008   3.446   7.451  0.1570 -0.3123 -0.4275
   41CHL1    H8 2975   2.060   3.545   7.448 -1.8499  0.8723  1.0743
   41CHL1   C14 2976   1.968   3.405   7.590  0.2463 -0.4015 -0.2607
   41CHL1   H14 2977   1.926   3.302   7.584 -0.8191 -0.0070  0.2297
   41CHL1   C15 2978   1.856   3.479   7.654  0.7694  0.0934 -0.3213
   41CHL1  H15A 2979   1.868   3.589   7.639 -0.5872  0.2113 -0.6786
   41CHL1  H15B 2980   1.755   3.456   7.613 -0.6080  3.6873  0.6802
   41CHL1   C16 2981   1.872   3.444   7.801  0.4199 -0.5658  0.4828
   41CHL1  H16A 2982   1.892   3.544   7.846 -2.1632  0.4679 -0.4532
   41CHL1  H16B 2983   1.772   3.413   7.839  0.0959  1.6248  1.6196
   41CHL1   C17 2984   1.998   3.346   7.817  0.8974 -0.0027 -0.9940
   41CHL1   H17 2985   1.978   3.237   7.802 -0.6763 -0.2464  2.0563
   41CHL1   C13 2986   2.083   3.385   7.696  0.5516 -0.7732 -1.1896
   41CHL1   C18 2987   2.150   3.522   7.735 -0.4040 -0.0902  0.1483
   41CHL1  H18A 2988   2.243   3.517   7.796 -0.3684  1.3501  0.2418
   41CHL1  H18B 2989   2.183   3.571   7.641 -0.5809  0.1408  0.2071
   41CHL1  H18C 2990   2.078   3.590   7.786 -3.0063 -3.1301  0.9102
   41CHL1   C12 2991   2.187   3.294   7.634  0.0292  0.1253 -0.6253
   41CHL1  H12A 2992   2.272   3.286   7.705 -1.1982  0.4586  0.9530
   41CHL1  H12B 2993   2.148   3.191   7.623  0.6079  0.0716 -2.4881
   41CHL1   C11 2994   2.226   3.345   7.497 -0.4774  0.7544  0.0363
   41CHL1  H11A 2995   2.273   3.446   7.497 -0.4215  0.7453 -1.4090
   41CHL1  H11B 2996   2.302   3.278   7.451  0.5841  0.5207  2.0404
   41CHL1    C9 2997   2.108   3.350   7.396 -0.1554  0.5053  0.5606
   41CHL1    H9 2998   2.059   3.250   7.389  0.1062  0.4006  0.1457
   41CHL1   C10 2999   2.142   3.378   7.248  0.3186  0.3993  0.7815
   41CHL1   C19 3000   2.256   3.477   7.248  0.2314 -0.1568  0.8341
   41CHL1  H19A 3001   2.350   3.436   7.291  1.4203 -1.2426 -2.4447
   41CHL1  H19B 3002   2.286   3.507   7.145 -0.3235 -1.7830  0.1651
   41CHL1  H19C 3003   2.240   3.575   7.296  3.3090  0.9800 -0.1966
   41CHL1    C1 3004   2.176   3.244   7.173  0.1061  0.9271 -0.4203
   41CHL1   H1A 3005   2.268   3.213   7.227 -0.9287 -1.7209 -0.0251
   41CHL1   H1B 3006   2.107   3.159   7.191  0.2244  0.6649 -1.1864
   41CHL1    C2 3007   2.211   3.264   7.026 -0.0718  0.2590  0.2001
   41CHL1   H2A 3008   2.252   3.172   6.979  0.1127 -0.7116  2.1731
   41CHL1   H2B 3009   2.302   3.329   7.019  0.4960 -0.6778 -2.3417
   41CHL1   C20 3010   2.037   3.342   7.963 -0.5081 -0.6979 -0.3717
   41CHL1   H20 3011   2.076   3.440   7.998  1.6887 -2.0542  1.2589
   41CHL1   C21 3012   2.159   3.251   7.962 -0.4444  0.5120 -0.0775
   41CHL1  H21A 3013   2.128   3.146   7.943 -3.8247  1.0096  1.9648
   41CHL1  H21B 3014   2.205   3.244   8.064 -3.4467  0.0760  1.3427
   41CHL1  H21C 3015   2.243   3.293   7.902  0.1930  3.0680  2.3581
   41CHL1   C22 3016   1.941   3.294   8.069  0.7163 -0.3449 -0.6676
   41CHL1  H22A 3017   1.841   3.338   8.047 -0.0058 -0.8943  1.3021
   41CHL1  H22B 3018   1.931   3.184   8.070 -0.1824 -0.2763 -0.1894
   41CHL1   C23 3019   1.988   3.344   8.205 -0.2357 -0.1308  0.8060
   41CHL1  H23A 3020   2.089   3.303   8.230 -0.2483 -0.5231  0.2221
   41CHL1  H23B 3021   2.004   3.453   8.188  0.8009 -0.3515  0.2818
   41CHL1   C24 3022   1.887   3.324   8.316 -0.0038 -0.5668 -0.1731
   41CHL1  H24A 3023   1.789   3.359   8.276  1.2043  1.5324 -1.4016
   41CHL1  H24B 3024   1.875   3.216   8.340  0.9674 -0.4678  0.7942
   41CHL1   C25 3025   1.926   3.390   8.452 -0.0172  0.0528  0.3630
   41CHL1   H25 3026   1.948   3.498   8.441  2.2674 -0.5037 -1.1852
   41CHL1   C26 3027   1.809   3.364   8.554  0.7190 -0.2849  0.3745
   41CHL1  H26A 3028   1.819   3.257   8.583  0.6022 -0.0476  1.3318
   41CHL1  H26B 3029   1.815   3.426   8.647 -0.5403  1.6727 -0.7808
   41CHL1  H26C 3030   1.712   3.396   8.511  1.0302 -1.6965 -1.5141
   41CHL1   C27 3031   2.065   3.346   8.503 -0.0926  0.4243 -0.1079
   41CHL1  H27A 3032   2.068   3.237   8.520 -1.4094  0.6953  2.2432
   41CHL1  H27B 3033   2.150   3.379   8.438  0.7375  0.2417  0.8590
   41CHL1  H27C 3034   2.081   3.393   8.603  2.2431 -0.3701 -0.0446
   42CHL1    C3 3035   2.437   6.683   6.943  0.4818 -0.5747 -0.3099
   42CHL1    H3 3036   2.330   6.702   6.924  0.2989 -0.7346  0.5307
   42CHL1    O3 3037   2.489   6.633   6.822 -0.0478 -0.4178  0.8140
   42CHL1   H3' 3038   2.518   6.543   6.835 -2.9479 -2.0275 -2.2965
   42CHL1    C4 3039   2.516   6.817   6.975  0.0395  0.1061 -0.8121
   42CHL1   H4A 3040   2.625   6.796   6.987  0.0612  1.3937  2.4182
   42CHL1   H4B 3041   2.495   6.882   6.888  0.3319 -1.0982 -1.8044
   42CHL1    C5 3042   2.475   6.873   7.113 -0.1453  0.3031  0.4315
   42CHL1    C6 3043   2.435   7.004   7.124  0.0645  0.2313  0.2466
   42CHL1    H6 3044   2.432   7.070   7.035 -1.0678 -1.8448 -1.3504
   42CHL1    C7 3045   2.386   7.055   7.261 -0.4957  0.8739 -0.5690
   42CHL1   H7A 3046   2.433   7.156   7.258  0.4562  0.4139 -1.3273
   42CHL1   H7B 3047   2.277   7.073   7.248 -0.4341  0.4169 -1.8646
   42CHL1    C8 3048   2.417   6.979   7.386  0.7742  0.8792 -0.8559
   42CHL1    H8 3049   2.522   6.991   7.421  0.3807 -2.0281  1.7566
   42CHL1   C14 3050   2.325   7.016   7.492 -0.0103  0.0974 -0.1190
   42CHL1   H14 3051   2.221   6.992   7.463  0.2766 -0.3480 -0.8010
   42CHL1   C15 3052   2.307   7.168   7.521 -0.2242 -0.0491 -0.2355
   42CHL1  H15A 3053   2.403   7.225   7.520  1.1653 -2.0243  2.8263
   42CHL1  H15B 3054   2.231   7.200   7.448 -3.3034  0.5809  2.9657
   42CHL1   C16 3055   2.251   7.168   7.662  0.4210  0.0480  0.0263
   42CHL1  H16A 3056   2.322   7.207   7.739 -1.4555  1.2183  1.2570
   42CHL1  H16B 3057   2.156   7.223   7.674 -0.7271 -2.2576  2.7719
   42CHL1   C17 3058   2.231   7.014   7.710  0.1358 -0.0791 -0.4026
   42CHL1   H17 3059   2.137   6.974   7.667 -0.1140  0.0068  0.0576
   42CHL1   C13 3060   2.344   6.943   7.629 -0.4897  0.6377  0.6078
   42CHL1   C18 3061   2.486   6.966   7.690  0.8812 -0.1248 -0.8121
   42CHL1  H18A 3062   2.519   7.070   7.671 -2.5494  1.0555 -0.9941
   42CHL1  H18B 3063   2.505   6.930   7.793 -4.0006  0.0355  0.3724
   42CHL1  H18C 3064   2.563   6.909   7.634  2.7524  1.2436  0.2475
   42CHL1   C12 3065   2.329   6.789   7.611 -0.3246  0.4300  0.3682
   42CHL1  H12A 3066   2.360   6.737   7.704 -0.4668 -2.8238 -1.2417
   42CHL1  H12B 3067   2.224   6.758   7.595 -1.1160  2.7617  0.6731
   42CHL1   C11 3068   2.408   6.739   7.485 -0.1732 -0.5442  0.2893
   42CHL1  H11A 3069   2.516   6.734   7.511  0.3430 -0.8771 -1.7913
   42CHL1  H11B 3070   2.377   6.634   7.472 -0.3880 -0.6305  1.4173
   42CHL1    C9 3071   2.398   6.825   7.355  0.6385 -0.4773 -0.1641
   42CHL1    H9 3072   2.293   6.817   7.320  0.4170  1.3018 -0.0009
   42CHL1   C10 3073   2.477   6.775   7.232  0.4144  0.6061  1.0582
   42CHL1   C19 3074   2.621   6.737   7.265  0.6030  0.0933 -0.2801
   42CHL1  H19A 3075   2.666   6.829   7.307  1.0396  0.3510 -1.2674
   42CHL1  H19B 3076   2.624   6.652   7.337  0.8771  0.7051  0.4409
   42CHL1  H19C 3077   2.676   6.704   7.174  3.5417 -0.6333  1.6092
   42CHL1    C1 3078   2.396   6.653   7.184 -0.2192 -1.3909  0.4592
   42CHL1   H1A 3079   2.387   6.578   7.266  1.4040 -0.9319  1.0999
   42CHL1   H1B 3080   2.289   6.678   7.168 -0.1879 -1.0841  0.7374
   42CHL1    C2 3081   2.452   6.585   7.057  0.2135 -0.0234 -1.2855
   42CHL1   H2A 3082   2.408   6.484   7.042 -0.5047 -0.5303  3.0401
   42CHL1   H2B 3083   2.559   6.559   7.073 -0.6965 -2.1049  2.7026
   42CHL1   C20 3084   2.212   6.989   7.865 -0.4287  0.5201 -0.2481
   42CHL1   H20 3085   2.319   6.975   7.892  0.0833  2.0950 -1.3235
   42CHL1   C21 3086   2.143   6.859   7.899 -0.1840  0.5815 -0.0127
   42CHL1  H21A 3087   2.033   6.872   7.891  0.0226  1.0831 -3.4595
   42CHL1  H21B 3088   2.166   6.827   8.003  1.0052  2.2313  0.2716
   42CHL1  H21C 3089   2.171   6.777   7.829 -2.0813  0.5031 -0.7398
   42CHL1   C22 3090   2.154   7.111   7.931 -0.3593 -0.5588 -0.0876
   42CHL1  H22A 3091   2.222   7.197   7.916  0.3464 -1.3475 -1.6118
   42CHL1  H22B 3092   2.054   7.144   7.895 -0.1686  4.1113  2.6888
   42CHL1   C23 3093   2.136   7.109   8.086 -0.1116  0.0302 -0.7380
   42CHL1  H23A 3094   2.045   7.051   8.112 -0.2297  1.0945  1.3617
   42CHL1  H23B 3095   2.221   7.046   8.122  0.0923  0.4884 -0.4140
   42CHL1   C24 3096   2.144   7.248   8.145  0.0720  0.0711 -0.3375
   42CHL1  H24A 3097   2.247   7.287   8.134  0.0310 -0.2128 -1.8652
   42CHL1  H24B 3098   2.072   7.321   8.103 -0.3975 -1.1041 -1.6567
   42CHL1   C25 3099   2.121   7.251   8.299 -0.0066  0.2822  0.5992
   42CHL1   H25 3100   2.205   7.195   8.345 -0.5369 -0.6337  0.4796
   42CHL1   C26 3101   2.136   7.405   8.344 -0.5364  0.5449  0.4654
   42CHL1  H26A 3102   2.100   7.420   8.449  1.4215  0.2113  1.2181
   42CHL1  H26B 3103   2.239   7.444   8.334 -1.8558  4.1105 -0.5335
   42CHL1  H26C 3104   2.068   7.467   8.282 -0.1045 -1.2770 -1.9780
   42CHL1   C27 3105   1.984   7.191   8.352 -0.8128  0.4146 -0.3462
   42CHL1  H27A 3106   1.954   7.236   8.448  0.4492 -1.3641  0.9438
   42CHL1  H27B 3107   1.979   7.080   8.361 -1.0625  0.4512 -0.0374
   42CHL1  H27C 3108   1.914   7.223   8.271  0.4247  0.2064 -1.5447
   43CHL1    C3 3109   3.035   4.955   6.756 -0.2869 -0.0640  0.2036
   43CHL1    H3 3110   3.094   4.868   6.792 -1.2855 -0.7112  0.3189
   43CHL1    O3 3111   3.084   4.982   6.621  0.0935 -0.3705 -0.5425
   43CHL1   H3' 3112   3.059   5.072   6.600 -1.9629 -0.6076  0.5669
   43CHL1    C4 3113   2.883   4.939   6.763  0.6747  0.0183 -0.0085
   43CHL1   H4A 3114   2.827   5.025   6.722  1.5473 -0.5964 -2.6519
   43CHL1   H4B 3115   2.865   4.863   6.685 -1.8622  2.2002 -1.6938
   43CHL1    C5 3116   2.838   4.905   6.908 -0.3625  0.2447 -0.1042
   43CHL1    C6 3117   2.782   4.786   6.939 -0.7172 -0.3990  0.1778
   43CHL1    H6 3118   2.787   4.708   6.862  3.2219  1.1681 -1.4382
   43CHL1    C7 3119   2.735   4.750   7.075  0.4649 -0.0273 -0.4356
   43CHL1   H7A 3120   2.632   4.707   7.073  0.2555  0.3098  1.5277
   43CHL1   H7B 3121   2.791   4.665   7.119 -3.4637 -1.5455  2.2175
   43CHL1    C8 3122   2.747   4.860   7.171  0.3927  0.0764 -0.3353
   43CHL1    H8 3123   2.651   4.916   7.175 -0.8836 -1.7362 -2.8526
   43CHL1   C14 3124   2.761   4.797   7.310  0.1039 -0.1916  0.0534
   43CHL1   H14 3125   2.860   4.746   7.304 -0.0048 -0.2757 -1.6450
   43CHL1   C15 3126   2.653   4.695   7.334 -0.7841  0.6894  0.2218
   43CHL1  H15A 3127   2.557   4.729   7.289 -0.7805  1.6448  0.9141
   43CHL1  H15B 3128   2.685   4.600   7.285  1.3193  1.2757  0.3605
   43CHL1   C16 3129   2.658   4.689   7.492  0.0740 -0.0470 -0.1803
   43CHL1  H16A 3130   2.564   4.733   7.532 -0.1010  1.7104 -2.2811
   43CHL1  H16B 3131   2.663   4.584   7.529 -0.1289 -1.0891 -2.8486
   43CHL1   C17 3132   2.774   4.779   7.541 -0.3824  0.5078  0.2812
   43CHL1   H17 3133   2.867   4.721   7.530 -0.2247 -0.0721  3.6027
   43CHL1   C13 3134   2.779   4.887   7.432  0.5216  0.1702 -0.1259
   43CHL1   C18 3135   2.652   4.977   7.455  0.3489 -0.1766 -0.1203
   43CHL1  H18A 3136   2.669   5.038   7.547  0.8984 -2.0386  1.0677
   43CHL1  H18B 3137   2.637   5.042   7.366 -2.6862  0.9076  1.0427
   43CHL1  H18C 3138   2.561   4.916   7.474 -0.2426  1.0324  1.1497
   43CHL1   C12 3139   2.902   4.977   7.408 -1.0635 -0.4711 -0.0326
   43CHL1  H12A 3140   2.905   5.056   7.486  2.8946 -1.5373  1.1488
   43CHL1  H12B 3141   2.998   4.921   7.414 -0.9675 -0.5667 -1.9053
   43CHL1   C11 3142   2.899   5.045   7.269  0.7397  0.1150  0.3255
   43CHL1  H11A 3143   2.819   5.122   7.276  0.7642  0.0167  2.8737
   43CHL1  H11B 3144   2.992   5.100   7.241  1.1927 -1.9632 -2.7335
   43CHL1    C9 3145   2.874   4.947   7.150  0.1556  0.1185 -0.3180
   43CHL1    H9 3146   2.956   4.872   7.156 -0.9560 -1.3666 -2.3103
   43CHL1   C10 3147   2.878   5.011   7.011  0.1965  0.0624 -0.2086
   43CHL1   C19 3148   2.798   5.140   7.005 -0.0421 -0.2500 -0.1175
   43CHL1  H19A 3149   2.793   5.181   6.902  0.5750 -2.0103 -0.8883
   43CHL1  H19B 3150   2.699   5.131   7.055  0.3964  0.1713  0.8491
   43CHL1  H19C 3151   2.850   5.223   7.056  0.1184  0.0021 -0.6914
   43CHL1    C1 3152   3.027   5.042   6.987  0.2704 -1.0020  0.1132
   43CHL1   H1A 3153   3.055   5.127   7.054 -2.7780 -0.4616  0.8705
   43CHL1   H1B 3154   3.082   4.950   7.015 -0.2987 -1.5347 -0.4906
   43CHL1    C2 3155   3.062   5.079   6.847  0.5142  0.0930  0.5600
   43CHL1   H2A 3156   3.166   5.113   6.832 -0.3807  2.5241 -0.7587
   43CHL1   H2B 3157   2.996   5.160   6.807 -1.0465 -0.3678  2.0690
   43CHL1   C20 3158   2.773   4.831   7.690  0.1272  0.2130  0.1766
   43CHL1   H20 3159   2.692   4.904   7.712  0.5475  0.5253  0.7264
   43CHL1   C21 3160   2.907   4.900   7.722 -0.8185 -0.5771 -0.3398
   43CHL1  H21A 3161   2.939   4.975   7.647  1.8120 -2.6014 -1.4253
   43CHL1  H21B 3162   2.989   4.825   7.728 -0.4733 -0.1556  0.3034
   43CHL1  H21C 3163   2.895   4.953   7.819  0.6902  1.5723 -1.2385
   43CHL1   C22 3164   2.753   4.707   7.786  0.6110  0.6884  0.5416
   43CHL1  H22A 3165   2.654   4.660   7.769  0.5105  0.7615  0.9158
   43CHL1  H22B 3166   2.824   4.627   7.755  0.7640  1.4477 -1.1739
   43CHL1   C23 3167   2.765   4.752   7.933  0.1551  0.1908  0.3707
   43CHL1  H23A 3168   2.858   4.810   7.953  0.4221  0.2540 -0.9549
   43CHL1  H23B 3169   2.686   4.823   7.963  0.7361 -0.4232  3.7595
   43CHL1   C24 3170   2.753   4.642   8.037  0.2787  0.5072  0.1379
   43CHL1  H24A 3171   2.682   4.563   8.006 -1.1440  2.1204 -0.9051
   43CHL1  H24B 3172   2.849   4.592   8.060  1.0252  1.9092  0.1625
   43CHL1   C25 3173   2.705   4.690   8.179  0.0691  0.8766 -0.5162
   43CHL1   H25 3174   2.605   4.736   8.168 -0.0858  0.4563 -0.8942
   43CHL1   C26 3175   2.688   4.574   8.277  0.4232 -0.8003 -0.1579
   43CHL1  H26A 3176   2.647   4.486   8.223  1.3824 -0.7901 -0.9406
   43CHL1  H26B 3177   2.790   4.544   8.310  0.2888 -1.5899 -0.4561
   43CHL1  H26C 3178   2.620   4.596   8.362 -0.5423  1.0303 -1.3531
   43CHL1   C27 3179   2.810   4.793   8.233 -0.6294  0.4387 -0.5572
   43CHL1  H27A 3180   2.834   4.866   8.153 -2.0134  0.7136 -0.7570
   43CHL1  H27B 3181   2.762   4.855   8.311  0.1248  0.7204 -0.3096
   43CHL1  H27C 3182   2.907   4.750   8.266  0.3701  2.7476 -0.3394
   44CHL1    C3 3183   3.457   2.427   6.825  0.8319 -0.7423 -0.4682
   44CHL1    H3 3184   3.413   2.325   6.833  0.8435 -0.7506 -0.5073
   44CHL1    O3 3185   3.480   2.452   6.684  0.4361 -0.5145  0.2218
   44CHL1   H3' 3186   3.388   2.461   6.660  0.5124 -0.0495  0.0940
   44CHL1    C4 3187   3.347   2.524   6.878 -0.1369 -0.0263  0.2395
   44CHL1   H4A 3188   3.373   2.625   6.843 -0.9087 -0.5609 -2.0201
   44CHL1   H4B 3189   3.252   2.499   6.826  0.2791  1.4947 -1.3175
   44CHL1    C5 3190   3.340   2.525   7.031 -0.5655  0.5341  0.3555
   44CHL1    C6 3191   3.221   2.506   7.091  0.0530 -0.4919 -0.5481
   44CHL1    H6 3192   3.129   2.485   7.035 -0.0936 -0.5866 -0.2749
   44CHL1    C7 3193   3.191   2.514   7.231 -0.8029  0.3116 -0.4013
   44CHL1   H7A 3194   3.106   2.580   7.260  0.0866  0.5556  1.8868
   44CHL1   H7B 3195   3.171   2.412   7.271  0.2914  0.7539  1.3748
   44CHL1    C8 3196   3.312   2.563   7.315  0.0121 -0.2567  0.1755
   44CHL1    H8 3197   3.306   2.673   7.301 -0.6449 -0.4035 -0.7671
   44CHL1   C14 3198   3.302   2.515   7.457 -0.2086  0.1644  0.5002
   44CHL1   H14 3199   3.319   2.406   7.463  0.3954  0.0975 -1.6366
   44CHL1   C15 3200   3.166   2.556   7.521  0.2589  0.1568  0.5793
   44CHL1  H15A 3201   3.144   2.663   7.501  1.8190  0.1387 -1.6471
   44CHL1  H15B 3202   3.083   2.491   7.487  0.6439  1.0083 -2.2978
   44CHL1   C16 3203   3.197   2.541   7.673  0.4053  0.3178  0.0766
   44CHL1  H16A 3204   3.155   2.631   7.723 -1.1097 -0.9126  1.1119
   44CHL1  H16B 3205   3.150   2.448   7.712  2.0669  0.0908  1.6645
   44CHL1   C17 3206   3.353   2.539   7.688  0.0428  0.0506  0.6795
   44CHL1   H17 3207   3.376   2.432   7.707 -1.5276 -0.1536  1.5939
   44CHL1   C13 3208   3.412   2.581   7.547  0.5233 -0.1312  1.1872
   44CHL1   C18 3209   3.413   2.738   7.537  0.2513  0.3404  0.5426
   44CHL1  H18A 3210   3.311   2.770   7.568  0.2185 -0.8025  1.6969
   44CHL1  H18B 3211   3.485   2.800   7.594 -0.1988  1.3939 -0.0005
   44CHL1  H18C 3212   3.424   2.772   7.432 -1.2561 -0.6725  0.0235
   44CHL1   C12 3213   3.545   2.527   7.503 -0.1831 -0.4075 -1.0043
   44CHL1  H12A 3214   3.630   2.574   7.558  1.1042 -0.7157 -2.6412
   44CHL1  H12B 3215   3.557   2.418   7.519  0.6195 -0.1210  0.5925
   44CHL1   C11 3216   3.573   2.548   7.353  0.3806  0.4718  0.1551
   44CHL1  H11A 3217   3.602   2.654   7.341  2.4161  0.2107  2.0782
   44CHL1  H11B 3218   3.658   2.486   7.316  0.6016  1.5509 -1.1964
   44CHL1    C9 3219   3.445   2.513   7.264 -0.0477  0.4282  0.5261
   44CHL1    H9 3220   3.428   2.403   7.273  0.3539  0.2911 -0.2800
   44CHL1   C10 3221   3.468   2.540   7.109 -0.7292 -0.7685 -0.6301
   44CHL1   C19 3222   3.502   2.691   7.096 -0.0981 -0.3478 -0.3064
   44CHL1  H19A 3223   3.601   2.721   7.137 -0.0708  1.4014 -1.5339
   44CHL1  H19B 3224   3.504   2.719   6.989 -0.1664 -1.0236 -0.4875
   44CHL1  H19C 3225   3.434   2.760   7.152  1.3175 -1.0655  2.5129
   44CHL1    C1 3226   3.575   2.442   7.062  0.2627  0.0520 -0.3060
   44CHL1   H1A 3227   3.673   2.470   7.105 -0.7302 -1.1483  3.1282
   44CHL1   H1B 3228   3.558   2.336   7.093  0.5696  0.1938  0.3799
   44CHL1    C2 3229   3.590   2.438   6.908  0.4727 -0.0763  0.9987
   44CHL1   H2A 3230   3.659   2.358   6.875  1.0981  0.3650  1.2120
   44CHL1   H2B 3231   3.631   2.534   6.870  1.9915 -0.6316  1.1528
   44CHL1   C20 3232   3.402   2.628   7.811 -0.9639  0.5440 -0.6859
   44CHL1   H20 3233   3.390   2.736   7.786  1.3972  1.2124  0.7470
   44CHL1   C21 3234   3.553   2.608   7.838 -0.2641  0.8297 -0.3379
   44CHL1  H21A 3235   3.557   2.504   7.878 -1.5394 -0.0771 -2.4140
   44CHL1  H21B 3236   3.592   2.685   7.907  0.3602  1.8473 -1.7815
   44CHL1  H21C 3237   3.617   2.617   7.748 -0.7502  1.0948 -0.6622
   44CHL1   C22 3238   3.332   2.610   7.948  0.1890  0.3783  0.6642
   44CHL1  H22A 3239   3.373   2.689   8.015  3.9067  0.1595 -1.0894
   44CHL1  H22B 3240   3.227   2.643   7.936  0.0772  0.3115  1.3923
   44CHL1   C23 3241   3.345   2.477   8.018  0.2428  0.2634 -0.5237
   44CHL1  H23A 3242   3.327   2.399   7.941 -0.7979 -0.2819  0.2411
   44CHL1  H23B 3243   3.447   2.464   8.059 -0.5648  1.4427  2.0557
   44CHL1   C24 3244   3.228   2.424   8.110  0.1540 -0.0140 -0.4189
   44CHL1  H24A 3245   3.134   2.438   8.053  1.4644 -1.9491 -3.2928
   44CHL1  H24B 3246   3.235   2.313   8.106  0.8073  0.0556 -1.3092
   44CHL1   C25 3247   3.215   2.481   8.250 -0.3323  0.9899  0.0568
   44CHL1   H25 3248   3.314   2.504   8.294 -1.2684  0.2244  2.7662
   44CHL1   C26 3249   3.132   2.602   8.251 -0.4422  0.3592 -0.2433
   44CHL1  H26A 3250   3.175   2.682   8.186  0.3402  0.4140  0.3137
   44CHL1  H26B 3251   3.032   2.575   8.213  0.3437 -3.6876  0.1969
   44CHL1  H26C 3252   3.119   2.640   8.355 -1.3098  0.5189 -0.4074
   44CHL1   C27 3253   3.158   2.356   8.337  0.2013 -0.0153 -0.1421
   44CHL1  H27A 3254   3.054   2.333   8.304  0.3834 -0.1888 -0.6003
   44CHL1  H27B 3255   3.229   2.272   8.319  2.1430  1.2194  1.3494
   44CHL1  H27C 3256   3.159   2.375   8.447  0.1159 -1.6308  0.1706
   45CHL1    C3 3257   3.428   0.650   6.612  0.0743 -0.1340 -0.1036
   45CHL1    H3 3258   3.443   0.543   6.639 -3.4334 -1.1392 -1.4532
   45CHL1    O3 3259   3.437   0.670   6.468  0.3222 -0.8345  0.0332
   45CHL1   H3' 3260   3.394   0.754   6.453 -0.9965 -1.9044 -2.8903
   45CHL1    C4 3261   3.285   0.674   6.652  0.4126  0.9575  0.3120
   45CHL1   H4A 3262   3.258   0.776   6.619 -1.3351 -0.0503 -1.5319
   45CHL1   H4B 3263   3.220   0.609   6.591  2.4515  1.2915 -2.3736
   45CHL1    C5 3264   3.264   0.665   6.800 -0.1218 -0.7054 -0.6069
   45CHL1    C6 3265   3.177   0.578   6.859  0.0219 -1.0818  0.3269
   45CHL1    H6 3266   3.104   0.517   6.804  1.3564 -1.3414 -1.2490
   45CHL1    C7 3267   3.161   0.564   7.004 -0.6166 -0.2110 -0.0990
   45CHL1   H7A 3268   3.053   0.559   7.029 -0.5393  1.0625  0.5794
   45CHL1   H7B 3269   3.213   0.470   7.034 -0.4491  0.4372  1.8209
   45CHL1    C8 3270   3.222   0.685   7.079  0.0769  0.3104 -0.1089
   45CHL1    H8 3271   3.151   0.770   7.068  1.8098  1.9446  0.6362
   45CHL1   C14 3272   3.236   0.649   7.233  0.4211  0.2511 -0.6257
   45CHL1   H14 3273   3.300   0.558   7.240 -2.1106 -2.3352 -5.3802
   45CHL1   C15 3274   3.101   0.592   7.301 -0.4193 -0.4685  0.1002
   45CHL1  H15A 3275   3.029   0.670   7.270 -0.0230  0.0413  0.4500
   45CHL1  H15B 3276   3.079   0.489   7.265 -0.0410 -0.1814 -0.9857
   45CHL1   C16 3277   3.133   0.609   7.451  0.1144  0.3011  0.0770
   45CHL1  H16A 3278   3.057   0.685   7.479  0.0626  0.6210 -0.8949
   45CHL1  H16B 3279   3.107   0.516   7.506 -0.2593  0.7703  0.7214
   45CHL1   C17 3280   3.275   0.672   7.458  0.9223  0.0376 -0.4081
   45CHL1   H17 3281   3.350   0.590   7.458  1.6076  0.6648 -0.4865
   45CHL1   C13 3282   3.288   0.753   7.331 -0.4023 -0.8516 -0.1704
   45CHL1   C18 3283   3.201   0.880   7.330  0.1528  0.5233 -0.2083
   45CHL1  H18A 3284   3.234   0.958   7.402  0.3027  0.6539 -0.4177
   45CHL1  H18B 3285   3.201   0.918   7.225 -0.6605 -2.5217 -1.4242
   45CHL1  H18C 3286   3.095   0.854   7.349  0.2401  1.0951  1.1651
   45CHL1   C12 3287   3.420   0.782   7.279 -0.0950 -0.8010 -1.1415
   45CHL1  H12A 3288   3.470   0.868   7.328  1.4877 -1.6576 -1.1615
   45CHL1  H12B 3289   3.494   0.702   7.300 -0.0474 -0.4151  0.2166
   45CHL1   C11 3290   3.437   0.818   7.128  0.1493 -0.0492 -0.7149
   45CHL1  H11A 3291   3.394   0.920   7.118 -0.4985 -0.1681  0.6875
   45CHL1  H11B 3292   3.545   0.829   7.103  0.3080 -0.4764 -0.2423
   45CHL1    C9 3293   3.361   0.720   7.032 -0.2049 -0.2031 -0.0140
   45CHL1    H9 3294   3.411   0.620   7.039 -0.7644 -0.4175  1.1525
   45CHL1   C10 3295   3.361   0.759   6.884 -0.2320 -0.4867 -0.1356
   45CHL1   C19 3296   3.313   0.908   6.869  0.2089  0.6535  0.3398
   45CHL1  H19A 3297   3.298   0.928   6.760  0.7600 -1.6767 -0.2188
   45CHL1  H19B 3298   3.216   0.917   6.923 -1.3680  0.2370 -2.2028
   45CHL1  H19C 3299   3.384   0.988   6.899 -0.2238  0.6190  1.4982
   45CHL1    C1 3300   3.511   0.749   6.834 -0.8767 -0.0498  0.4706
   45CHL1   H1A 3301   3.580   0.829   6.868 -0.8223  0.3669 -0.5641
   45CHL1   H1B 3302   3.555   0.651   6.861  1.4190  0.6139 -0.5862
   45CHL1    C2 3303   3.519   0.757   6.674 -0.4547  0.3226  0.0537
   45CHL1   H2A 3304   3.623   0.751   6.636  0.5804  3.4402  1.9926
   45CHL1   H2B 3305   3.476   0.852   6.636  1.4882  1.5736  0.8460
   45CHL1   C20 3306   3.291   0.741   7.591 -0.0828 -0.0306  0.4900
   45CHL1   H20 3307   3.222   0.828   7.594 -0.1407  0.0239 -1.2311
   45CHL1   C21 3308   3.440   0.777   7.612  0.5217  0.1432 -0.1140
   45CHL1  H21A 3309   3.493   0.680   7.613 -0.8629 -0.6519 -0.4989
   45CHL1  H21B 3310   3.455   0.817   7.714 -0.7806 -3.1102  1.4801
   45CHL1  H21C 3311   3.465   0.854   7.535 -1.4903  1.5361  0.5360
   45CHL1   C22 3312   3.230   0.661   7.712 -0.6634  0.3414  0.1370
   45CHL1  H22A 3313   3.120   0.653   7.702 -0.9935  2.7399  1.2919
   45CHL1  H22B 3314   3.272   0.558   7.701 -1.1244  0.0979  0.6172
   45CHL1   C23 3315   3.262   0.719   7.848 -0.1158  0.1310  0.8974
   45CHL1  H23A 3316   3.368   0.738   7.875  1.0312 -3.1101 -0.8035
   45CHL1  H23B 3317   3.223   0.823   7.845  3.2075  1.5272 -1.2914
   45CHL1   C24 3318   3.197   0.629   7.958  0.0313 -0.3651  0.2758
   45CHL1  H24A 3319   3.092   0.613   7.924 -0.4621  2.9730 -0.1446
   45CHL1  H24B 3320   3.251   0.532   7.955  0.6549 -0.0788  1.5049
   45CHL1   C25 3321   3.204   0.690   8.102  1.4413  0.1634  0.0993
   45CHL1   H25 3322   3.310   0.698   8.135  1.2458 -0.4960  0.9034
   45CHL1   C26 3323   3.157   0.833   8.116  0.3184 -0.1228  0.1749
   45CHL1  H26A 3324   3.201   0.893   8.034  0.3939 -2.2788 -1.4392
   45CHL1  H26B 3325   3.050   0.850   8.089  0.6391 -0.9495 -1.7700
   45CHL1  H26C 3326   3.188   0.884   8.210  0.9919  1.4058 -0.8348
   45CHL1   C27 3327   3.126   0.593   8.194 -0.3331  0.0440 -0.6566
   45CHL1  H27A 3328   3.017   0.603   8.178 -0.2269 -0.4638 -1.7713
   45CHL1  H27B 3329   3.154   0.487   8.177 -0.8560  0.1024 -2.0002
   45CHL1  H27C 3330   3.144   0.617   8.301 -2.7287  1.1285 -0.4297
   46CHL1    C3 3331   3.474   1.581   7.209 -0.1320 -0.1994  0.4106
   46CHL1    H3 3332   3.544   1.497   7.230 -2.4442 -1.8962  1.8035
   46CHL1    O3 3333   3.453   1.601   7.066  0.2376  0.0459 -0.5507
   46CHL1   H3' 3334   3.428   1.513   7.036 -1.0930  0.4178 -0.6220
   46CHL1    C4 3335   3.347   1.553   7.276  0.4132 -0.0362 -0.1740
   46CHL1   H4A 3336   3.282   1.642   7.266  0.2320 -0.3579 -2.2740
   46CHL1   H4B 3337   3.307   1.463   7.225  3.5478 -1.7633  0.1207
   46CHL1    C5 3338   3.363   1.537   7.426 -0.4532 -0.4865 -0.1109
   46CHL1    C6 3339   3.333   1.419   7.487  0.2569  0.5844 -0.6755
   46CHL1    H6 3340   3.297   1.333   7.429 -1.5996 -1.0962  2.6643
   46CHL1    C7 3341   3.339   1.401   7.641 -0.3373 -0.0688 -0.1600
   46CHL1   H7A 3342   3.239   1.374   7.683 -1.9125  3.5865 -1.0995
   46CHL1   H7B 3343   3.428   1.342   7.670  0.1424  1.6436  2.1870
   46CHL1    C8 3344   3.369   1.535   7.711 -0.4965 -0.7489  0.1350
   46CHL1    H8 3345   3.271   1.587   7.722 -0.5463 -0.8616  0.2383
   46CHL1   C14 3346   3.414   1.513   7.853  0.1235 -0.4335 -0.3623
   46CHL1   H14 3347   3.510   1.458   7.840 -0.0781 -0.6808 -0.8436
   46CHL1   C15 3348   3.337   1.429   7.949 -0.5007 -0.1262  0.2814
   46CHL1  H15A 3349   3.234   1.472   7.956 -1.1748 -1.9276  2.7280
   46CHL1  H15B 3350   3.332   1.321   7.924 -2.2223 -0.0948  0.3560
   46CHL1   C16 3351   3.403   1.466   8.090  0.0930 -0.4003 -0.3468
   46CHL1  H16A 3352   3.322   1.500   8.158 -0.5237 -0.5293 -1.0146
   46CHL1  H16B 3353   3.445   1.377   8.142  1.2135 -0.2144 -0.8942
   46CHL1   C17 3354   3.509   1.578   8.072  0.1626  0.4532  0.6627
   46CHL1   H17 3355   3.604   1.530   8.040 -0.0922  0.4039 -0.0419
   46CHL1   C13 3356   3.461   1.634   7.938 -0.6721  0.0250  0.1348
   46CHL1   C18 3357   3.341   1.729   7.958 -0.3768 -0.1033 -0.0170
   46CHL1  H18A 3358   3.266   1.673   8.018  1.0040 -3.5804 -1.2641
   46CHL1  H18B 3359   3.378   1.815   8.017  2.2284 -1.4196  0.4070
   46CHL1  H18C 3360   3.292   1.755   7.862 -0.6239  1.4524  0.4987
   46CHL1   C12 3361   3.571   1.707   7.860 -0.5063  0.0082 -0.6706
   46CHL1  H12A 3362   3.620   1.795   7.906 -0.6879 -0.6286  0.7799
   46CHL1  H12B 3363   3.653   1.633   7.859  0.7859  1.3835 -2.2954
   46CHL1   C11 3364   3.524   1.743   7.716 -0.5273  0.2655 -0.2577
   46CHL1  H11A 3365   3.441   1.816   7.730 -1.6089 -1.2284  1.6521
   46CHL1  H11B 3366   3.604   1.795   7.661  0.1913  1.5816  1.9162
   46CHL1    C9 3367   3.474   1.621   7.632  0.2128  0.0826  0.8691
   46CHL1    H9 3368   3.566   1.560   7.625  0.4651  0.5970 -0.9121
   46CHL1   C10 3369   3.426   1.662   7.493  0.3085 -0.0085  0.1337
   46CHL1   C19 3370   3.320   1.779   7.501  0.8112 -0.0023 -0.2233
   46CHL1  H19A 3371   3.359   1.877   7.534 -0.2216  0.9660 -1.7359
   46CHL1  H19B 3372   3.268   1.802   7.405  0.2050  0.3817  0.1917
   46CHL1  H19C 3373   3.246   1.743   7.575  0.1936  1.0577 -0.3102
   46CHL1    C1 3374   3.540   1.720   7.411  0.4497 -0.2652 -0.1061
   46CHL1   H1A 3375   3.556   1.826   7.439  1.7270 -0.3836 -0.3267
   46CHL1   H1B 3376   3.628   1.658   7.440  0.7127  0.8429  1.6135
   46CHL1    C2 3377   3.516   1.717   7.259  0.3678 -0.4051 -0.0523
   46CHL1   H2A 3378   3.612   1.749   7.214  0.2246  0.7361  0.4307
   46CHL1   H2B 3379   3.437   1.786   7.224 -0.8415 -2.2399 -1.1431
   46CHL1   C20 3380   3.537   1.663   8.194  0.6415 -0.1072 -0.1878
   46CHL1   H20 3381   3.580   1.759   8.159  1.7598  0.2285  1.9253
   46CHL1   C21 3382   3.642   1.588   8.292  0.0445  0.5119 -0.7001
   46CHL1  H21A 3383   3.732   1.572   8.230  1.0430 -0.0805  0.8295
   46CHL1  H21B 3384   3.599   1.488   8.315  0.4233  0.6930  0.9207
   46CHL1  H21C 3385   3.679   1.646   8.380 -0.4492 -0.5156  0.2010
   46CHL1   C22 3386   3.411   1.703   8.276  0.5153 -0.1280  0.2711
   46CHL1  H22A 3387   3.330   1.749   8.216  0.2359  0.1637  0.8576
   46CHL1  H22B 3388   3.353   1.618   8.319  0.4839 -0.3018 -0.1077
   46CHL1   C23 3389   3.457   1.805   8.381  1.0669 -0.1818 -0.9099
   46CHL1  H23A 3390   3.538   1.780   8.453  3.0937 -1.0854 -3.3465
   46CHL1  H23B 3391   3.488   1.897   8.327 -0.6436  1.8916  1.3858
   46CHL1   C24 3392   3.326   1.839   8.464  0.2254  0.0608  0.2987
   46CHL1  H24A 3393   3.245   1.876   8.398  1.1248  2.6667  0.5350
   46CHL1  H24B 3394   3.303   1.738   8.503  0.7602 -0.9787 -1.9381
   46CHL1   C25 3395   3.341   1.956   8.562 -0.0255  0.1650 -0.0932
   46CHL1   H25 3396   3.429   1.925   8.623 -0.4270 -2.1128 -0.5908
   46CHL1   C26 3397   3.389   2.089   8.495 -0.6808 -0.3936  0.2902
   46CHL1  H26A 3398   3.478   2.083   8.428 -0.9258  0.3070 -0.1108
   46CHL1  H26B 3399   3.307   2.121   8.427 -0.9775 -0.2880  0.6906
   46CHL1  H26C 3400   3.414   2.167   8.570  1.9536 -3.0316  2.4024
   46CHL1   C27 3401   3.213   1.974   8.650 -0.3677  0.7740  0.2477
   46CHL1  H27A 3402   3.232   2.059   8.719 -1.6657 -0.2047  1.9062
   46CHL1  H27B 3403   3.123   1.999   8.589 -1.7182 -0.2273  1.7380
   46CHL1  H27C 3404   3.212   1.874   8.699  0.3868 -0.4026 -2.0029
   47CHL1    C3 3405   2.970   1.593   6.604 -0.3476 -0.6060 -0.4300
   47CHL1    H3 3406   3.015   1.491   6.608  0.1631 -0.4367 -1.6441
   47CHL1    O3 3407   2.967   1.638   6.471  0.3771 -0.3051  0.7616
   47CHL1   H3' 3408   3.003   1.570   6.413  1.6981  1.2534 -0.3271
   47CHL1    C4 3409   2.823   1.590   6.657  0.7779 -0.0036  0.4397
   47CHL1   H4A 3410   2.777   1.689   6.635  0.6018 -0.0885  0.4240
   47CHL1   H4B 3411   2.763   1.513   6.604 -0.0440 -0.1153  1.5025
   47CHL1    C5 3412   2.817   1.567   6.803  0.3171 -0.4388 -0.1667
   47CHL1    C6 3413   2.735   1.474   6.851  0.0820  0.3405 -0.6898
   47CHL1    H6 3414   2.667   1.415   6.787 -0.2257 -1.9707  1.6177
   47CHL1    C7 3415   2.718   1.439   6.996  0.1033 -0.4935  0.3037
   47CHL1   H7A 3416   2.608   1.437   7.014 -0.1077  0.9572 -0.6363
   47CHL1   H7B 3417   2.766   1.342   7.022  2.2641  0.1838 -0.8747
   47CHL1    C8 3418   2.762   1.561   7.079 -0.8638 -0.4059 -0.1708
   47CHL1    H8 3419   2.682   1.637   7.064 -0.7276  0.5141  2.9734
   47CHL1   C14 3420   2.764   1.537   7.235  0.2458 -0.3850  0.6061
   47CHL1   H14 3421   2.842   1.458   7.239 -0.3500 -0.9226  2.1992
   47CHL1   C15 3422   2.647   1.473   7.307  0.0645 -0.0448 -0.3489
   47CHL1  H15A 3423   2.555   1.533   7.291 -0.9074 -1.7220 -1.3225
   47CHL1  H15B 3424   2.639   1.366   7.278 -1.1768 -0.5474  1.6758
   47CHL1   C16 3425   2.686   1.478   7.455  0.0070  0.2927 -0.7746
   47CHL1  H16A 3426   2.603   1.535   7.502  0.9726  0.8680  0.2562
   47CHL1  H16B 3427   2.699   1.381   7.508  2.0965  0.5685 -0.7186
   47CHL1   C17 3428   2.814   1.572   7.468 -0.1544  1.0062  0.9610
   47CHL1   H17 3429   2.895   1.497   7.458 -1.8340 -0.6602 -1.1761
   47CHL1   C13 3430   2.828   1.640   7.327  0.3426 -1.0674 -0.4580
   47CHL1   C18 3431   2.739   1.765   7.314  0.0689  0.4399  0.0818
   47CHL1  H18A 3432   2.787   1.837   7.383  1.6113  0.3856 -0.8987
   47CHL1  H18B 3433   2.725   1.811   7.214 -0.6421  0.9351  0.3963
   47CHL1  H18C 3434   2.634   1.735   7.337 -0.6170  1.4955 -1.5341
   47CHL1   C12 3435   2.970   1.664   7.280  0.2903  0.5016 -0.0903
   47CHL1  H12A 3436   3.024   1.748   7.327 -2.3751  2.3588 -0.1337
   47CHL1  H12B 3437   3.034   1.573   7.285  1.2022  1.1276 -0.1647
   47CHL1   C11 3438   2.966   1.712   7.130 -0.3272  0.5979  0.1796
   47CHL1  H11A 3439   2.918   1.812   7.138 -0.0829  0.6530  1.0342
   47CHL1  H11B 3440   3.073   1.732   7.108  0.0590 -1.2746  0.1553
   47CHL1    C9 3441   2.898   1.616   7.033 -0.3938 -0.6149 -0.1297
   47CHL1    H9 3442   2.963   1.525   7.037 -1.0168 -1.2933 -2.8269
   47CHL1   C10 3443   2.905   1.662   6.889 -0.0585  0.2769  0.8540
   47CHL1   C19 3444   2.845   1.804   6.886 -0.4459  0.4027  0.2092
   47CHL1  H19A 3445   2.838   1.841   6.782  0.5194  2.1485  0.7293
   47CHL1  H19B 3446   2.751   1.792   6.943  0.1742 -1.5522  0.9297
   47CHL1  H19C 3447   2.915   1.873   6.937 -1.6014  1.0727  0.9316
   47CHL1    C1 3448   3.050   1.658   6.831  0.2145 -0.2693  0.3954
   47CHL1   H1A 3449   3.102   1.738   6.887 -2.4854  0.8645  1.4469
   47CHL1   H1B 3450   3.106   1.562   6.838  0.2323 -0.3966 -1.0237
   47CHL1    C2 3451   3.053   1.688   6.685  0.0624  0.1384  0.0174
   47CHL1   H2A 3452   3.160   1.675   6.658  0.0117 -0.9011  0.2740
   47CHL1   H2B 3453   3.030   1.795   6.665  0.3287 -0.0661 -1.5337
   47CHL1   C20 3454   2.835   1.659   7.592 -0.2006  0.5290  0.0857
   47CHL1   H20 3455   2.770   1.749   7.587  2.9996  3.1580  1.7333
   47CHL1   C21 3456   2.982   1.705   7.603  1.1748  0.4989  0.1805
   47CHL1  H21A 3457   2.998   1.800   7.547  0.3737  1.1102  0.9717
   47CHL1  H21B 3458   3.050   1.628   7.562  0.6254 -0.1109  0.4063
   47CHL1  H21C 3459   3.015   1.725   7.707  4.1323  1.3243 -0.7821
   47CHL1   C22 3460   2.787   1.572   7.716  0.6103 -0.9237 -0.1017
   47CHL1  H22A 3461   2.682   1.542   7.700  0.3324  0.8694 -2.3069
   47CHL1  H22B 3462   2.849   1.481   7.728 -0.4595 -1.4967  1.1895
   47CHL1   C23 3463   2.804   1.644   7.856 -0.6215  0.6454  0.0019
   47CHL1  H23A 3464   2.911   1.626   7.881 -0.8272 -0.7395 -0.0441
   47CHL1  H23B 3465   2.785   1.754   7.851 -1.0291  0.5337 -0.9687
   47CHL1   C24 3466   2.699   1.580   7.951  0.0155  0.0407 -0.2974
   47CHL1  H24A 3467   2.597   1.619   7.928  0.1022 -0.4502 -1.6064
   47CHL1  H24B 3468   2.704   1.473   7.921  0.2348 -0.4762  1.5210
   47CHL1   C25 3469   2.730   1.597   8.103 -0.1651  0.4203  0.5753
   47CHL1   H25 3470   2.720   1.705   8.125 -0.1059  1.3601 -3.2095
   47CHL1   C26 3471   2.619   1.538   8.193  0.5993  0.7499  0.4629
   47CHL1  H26A 3472   2.641   1.430   8.203  1.2474  0.9494  1.4075
   47CHL1  H26B 3473   2.624   1.579   8.296 -0.4906  1.8896  0.0981
   47CHL1  H26C 3474   2.518   1.550   8.148  0.4296 -2.1172 -0.0801
   47CHL1   C27 3475   2.873   1.544   8.140  0.5309  0.2655  0.2713
   47CHL1  H27A 3476   2.893   1.591   8.239  1.4994  0.6478 -0.1004
   47CHL1  H27B 3477   2.854   1.435   8.154  1.5488 -0.3049 -2.3110
   47CHL1  H27C 3478   2.956   1.578   8.074  0.0376  1.8058  0.3996
   48CHL1    C3 3479   0.739   5.811   6.470  0.4583 -0.1884  0.6553
   48CHL1    H3 3480   0.843   5.835   6.441  0.4938  0.1224  1.0404
   48CHL1    O3 3481   0.661   5.826   6.346  0.9167 -0.2645 -0.2115
   48CHL1   H3' 3482   0.589   5.763   6.354  3.0591 -2.7912  0.3444
   48CHL1    C4 3483   0.721   5.672   6.522  0.4217  0.4820 -0.9652
   48CHL1   H4A 3484   0.611   5.655   6.523  0.3454  0.8703 -1.7598
   48CHL1   H4B 3485   0.759   5.600   6.447  0.4725 -0.0316 -0.4577
   48CHL1    C5 3486   0.774   5.639   6.659 -0.7448 -0.4773  0.6619
   48CHL1    C6 3487   0.850   5.532   6.678 -0.2117  0.1094  0.0917
   48CHL1    H6 3488   0.868   5.456   6.601 -0.6526 -0.5014  0.5792
   48CHL1    C7 3489   0.925   5.512   6.807  0.4015 -0.1885  0.6696
   48CHL1   H7A 3490   0.958   5.408   6.829  1.8175  0.3396  1.1761
   48CHL1   H7B 3491   1.024   5.563   6.809  0.2154  0.1646  1.2964
   48CHL1    C8 3492   0.852   5.580   6.927  0.1942 -0.6209 -0.1351
   48CHL1    H8 3493   0.756   5.529   6.953 -0.4907 -0.1079 -1.5548
   48CHL1   C14 3494   0.946   5.567   7.043 -0.1361  0.0159  0.2769
   48CHL1   H14 3495   1.041   5.620   7.020  1.0012 -1.1616  1.9670
   48CHL1   C15 3496   0.980   5.418   7.096 -0.4238 -0.2857  0.2840
   48CHL1  H15A 3497   0.897   5.350   7.123  1.2204 -1.7526  1.8673
   48CHL1  H15B 3498   1.055   5.352   7.046 -0.6662 -0.7809  0.5723
   48CHL1   C16 3499   1.040   5.460   7.235 -0.6455  0.5544  0.1234
   48CHL1  H16A 3500   1.005   5.395   7.317  0.0487 -0.8909 -0.6907
   48CHL1  H16B 3501   1.151   5.454   7.231 -0.3410  3.9562 -0.1622
   48CHL1   C17 3502   1.010   5.603   7.265  0.3851 -0.7321 -0.9596
   48CHL1   H17 3503   1.101   5.663   7.244 -0.9994  1.8108 -0.0761
   48CHL1   C13 3504   0.898   5.643   7.167 -0.0481 -0.5212  0.3743
   48CHL1   C18 3505   0.762   5.589   7.219 -1.7645  0.4800 -0.0053
   48CHL1  H18A 3506   0.684   5.588   7.140 -0.6239  1.3367 -1.1862
   48CHL1  H18B 3507   0.767   5.479   7.239  0.5148  0.8629  1.9047
   48CHL1  H18C 3508   0.723   5.648   7.304 -2.9603  2.4455 -1.8168
   48CHL1   C12 3509   0.879   5.796   7.133 -0.4113  0.5208  0.4776
   48CHL1  H12A 3510   0.843   5.864   7.213 -0.3225  0.6560  0.4047
   48CHL1  H12B 3511   0.981   5.833   7.108  0.0527  0.8968  2.7093
   48CHL1   C11 3512   0.784   5.809   7.012  0.3687  0.0264 -0.9225
   48CHL1  H11A 3513   0.683   5.770   7.035  0.6188 -1.5530 -2.3309
   48CHL1  H11B 3514   0.797   5.915   6.980  0.3520  0.0914 -0.7134
   48CHL1    C9 3515   0.825   5.728   6.888  0.3245  0.0620  0.6997
   48CHL1    H9 3516   0.924   5.772   6.867  0.3370 -0.7968 -1.2427
   48CHL1   C10 3517   0.738   5.745   6.763 -0.0364  0.7528  0.0493
   48CHL1   C19 3518   0.591   5.719   6.797 -0.5550  0.0091 -0.0096
   48CHL1  H19A 3519   0.530   5.797   6.848  0.2311  1.7667 -1.6041
   48CHL1  H19B 3520   0.533   5.719   6.702  0.6830  1.6662 -0.8206
   48CHL1  H19C 3521   0.582   5.618   6.842  3.7447 -1.2815 -1.5440
   48CHL1    C1 3522   0.754   5.891   6.716  0.1144  0.2407  0.3701
   48CHL1   H1A 3523   0.701   5.959   6.786 -0.4614  0.3180 -0.1298
   48CHL1   H1B 3524   0.862   5.916   6.709  0.1444 -0.2043 -1.2933
   48CHL1    C2 3525   0.690   5.912   6.579  0.5948 -0.6847  0.3332
   48CHL1   H2A 3526   0.715   6.014   6.543  0.8815 -1.0515 -0.5262
   48CHL1   H2B 3527   0.580   5.913   6.596  0.6632 -0.0835  0.8128
   48CHL1   C20 3528   0.992   5.634   7.419 -0.0663  0.2251  0.3559
   48CHL1   H20 3529   0.898   5.584   7.451  0.0460 -0.0714  0.2229
   48CHL1   C21 3530   0.960   5.782   7.446  0.6940 -0.1212  0.3508
   48CHL1  H21A 3531   0.969   5.789   7.556  1.2079  1.6076  0.2302
   48CHL1  H21B 3532   0.856   5.812   7.422  0.8831  0.9561  0.8355
   48CHL1  H21C 3533   1.036   5.845   7.395  0.9184  0.4652  1.3985
   48CHL1   C22 3534   1.119   5.591   7.504  0.8302 -0.4786  0.3139
   48CHL1  H22A 3535   1.076   5.585   7.607  0.6247 -2.3774  0.1485
   48CHL1  H22B 3536   1.145   5.489   7.469  0.5206 -0.1846 -0.8266
   48CHL1   C23 3537   1.245   5.674   7.492  0.0378 -0.3887  0.7147
   48CHL1  H23A 3538   1.270   5.698   7.387  1.4096  0.9323  1.3165
   48CHL1  H23B 3539   1.228   5.767   7.549 -0.7280  0.8370 -1.3856
   48CHL1   C24 3540   1.368   5.603   7.560 -0.0804  0.8164  0.7083
   48CHL1  H24A 3541   1.359   5.594   7.671  1.7307 -2.1444  0.7427
   48CHL1  H24B 3542   1.371   5.499   7.519 -0.9746  0.7779  0.7172
   48CHL1   C25 3543   1.502   5.678   7.536  0.2690 -0.6567  0.0687
   48CHL1   H25 3544   1.500   5.700   7.427 -1.5830 -1.0107 -0.0038
   48CHL1   C26 3545   1.509   5.823   7.590 -0.2605 -0.5678  0.0873
   48CHL1  H26A 3546   1.502   5.829   7.701 -0.5288  1.1462 -0.0040
   48CHL1  H26B 3547   1.590   5.887   7.551 -0.3631 -0.9620 -0.7969
   48CHL1  H26C 3548   1.419   5.882   7.563  0.6930  0.1774 -1.5897
   48CHL1   C27 3549   1.630   5.588   7.568  0.6355  0.4503  0.1125
   48CHL1  H27A 3550   1.725   5.646   7.560  1.0832 -0.1916  0.7055
   48CHL1  H27B 3551   1.633   5.542   7.669  3.4444  1.0925  0.4010
   48CHL1  H27C 3552   1.640   5.508   7.492  1.1639  0.7425 -0.1295
   49CHL1    C3 3553   5.720   5.855   6.623 -0.6379  0.2819 -0.3126
   49CHL1    H3 3554   5.677   5.957   6.612  2.3063  1.5930 -0.4760
   49CHL1    O3 3555   5.730   5.800   6.499 -0.3381  0.7446  0.1725
   49CHL1   H3' 3556   5.688   5.713   6.501  0.1536  0.4994  0.1012
   49CHL1    C4 3557   5.861   5.862   6.682  0.2400  0.4759 -0.1098
   49CHL1   H4A 3558   5.898   5.757   6.671  0.6308  0.7197 -1.2323
   49CHL1   H4B 3559   5.931   5.925   6.624 -0.8648  1.1095 -0.7934
   49CHL1    C5 3560   5.860   5.912   6.820  0.3939 -0.7339 -0.7216
   49CHL1    C6 3561   5.922   6.030   6.845  0.5273 -0.0811 -0.0557
   49CHL1    H6 3562   5.968   6.085   6.761 -2.1693  3.9420  0.7904
   49CHL1    C7 3563   5.944   6.089   6.985  0.9704  0.5731  0.5389
   49CHL1   H7A 3564   6.052   6.101   7.008  1.4519 -1.0079 -0.7145
   49CHL1   H7B 3565   5.896   6.188   7.000 -1.4849 -0.6948  1.8027
   49CHL1    C8 3566   5.896   5.997   7.096 -0.6987  0.3548  0.0546
   49CHL1    H8 3567   5.982   5.931   7.122 -1.2438 -0.4924 -0.2576
   49CHL1   C14 3568   5.864   6.083   7.221  0.0192  0.3947 -0.4026
   49CHL1   H14 3569   5.783   6.149   7.183 -0.6015 -0.5265 -0.7149
   49CHL1   C15 3570   5.974   6.185   7.268 -0.3145 -0.5321 -0.1710
   49CHL1  H15A 3571   6.075   6.139   7.266  0.2139  0.6185 -0.1959
   49CHL1  H15B 3572   5.972   6.271   7.198  0.2396  0.5296  1.0945
   49CHL1   C16 3573   5.928   6.215   7.406  0.4082 -0.1634 -0.1169
   49CHL1  H16A 3574   6.006   6.190   7.481  2.2177  1.3696 -1.4099
   49CHL1  H16B 3575   5.891   6.319   7.417 -0.2504 -0.4415  0.3815
   49CHL1   C17 3576   5.800   6.121   7.437  0.2843 -0.8694  0.0214
   49CHL1   H17 3577   5.711   6.180   7.407  1.2065 -0.0657 -1.1983
   49CHL1   C13 3578   5.807   6.004   7.336 -0.9765 -0.2367 -0.4921
   49CHL1   C18 3579   5.917   5.904   7.378  0.1127 -0.2144 -0.2410
   49CHL1  H18A 3580   5.895   5.861   7.478  3.2929 -0.6607  0.4046
   49CHL1  H18B 3581   5.917   5.821   7.304  0.6908 -1.3855  1.0338
   49CHL1  H18C 3582   6.018   5.948   7.394  0.3581 -0.7721 -0.2107
   49CHL1   C12 3583   5.676   5.939   7.295 -0.9781  0.0652  0.6449
   49CHL1  H12A 3584   5.621   5.879   7.370 -0.7894 -0.8906  0.0318
   49CHL1  H12B 3585   5.612   6.025   7.263 -0.6344 -0.3618 -1.3182
   49CHL1   C11 3586   5.691   5.843   7.171 -0.1382 -0.1697 -0.0072
   49CHL1  H11A 3587   5.750   5.757   7.209  0.2575 -0.0020 -0.2277
   49CHL1  H11B 3588   5.594   5.808   7.131  0.5201 -1.8457 -0.1949
   49CHL1    C9 3589   5.768   5.914   7.058  0.5542  0.1838  0.2956
   49CHL1    H9 3590   5.685   5.984   7.033 -0.9927 -1.7827 -0.3409
   49CHL1   C10 3591   5.783   5.837   6.924 -0.4567 -0.1945 -0.3506
   49CHL1   C19 3592   5.861   5.705   6.961  0.3623  0.1035  0.1735
   49CHL1  H19A 3593   5.960   5.717   7.010 -0.1640  1.3014  0.9867
   49CHL1  H19B 3594   5.795   5.641   7.022  0.7399 -0.7060 -0.2420
   49CHL1  H19C 3595   5.875   5.650   6.865 -1.5286  0.4218 -0.3328
   49CHL1    C1 3596   5.640   5.807   6.865  0.2061  0.0249  0.7001
   49CHL1   H1A 3597   5.595   5.729   6.930  1.1097 -0.9040  0.2224
   49CHL1   H1B 3598   5.595   5.907   6.885  0.4674  0.2070  0.3724
   49CHL1    C2 3599   5.630   5.773   6.714  0.3296 -0.0739  0.7082
   49CHL1   H2A 3600   5.527   5.796   6.679  1.0518  1.5464 -0.4929
   49CHL1   H2B 3601   5.655   5.665   6.703  0.4456 -0.0629  0.8659
   49CHL1   C20 3602   5.788   6.089   7.586  0.3484  0.1274 -0.5488
   49CHL1   H20 3603   5.884   6.043   7.618  0.7484 -0.8058 -2.8344
   49CHL1   C21 3604   5.684   5.978   7.613 -0.3328  0.2982 -0.0163
   49CHL1  H21A 3605   5.679   5.955   7.722  1.4589 -0.3319 -0.0366
   49CHL1  H21B 3606   5.720   5.884   7.568 -0.5102 -0.2910  1.0256
   49CHL1  H21C 3607   5.582   6.001   7.576 -1.1945  1.3379  2.7525
   49CHL1   C22 3608   5.749   6.218   7.666 -0.0486  0.2284  0.2588
   49CHL1  H22A 3609   5.815   6.302   7.636 -0.7666  1.0548  0.9503
   49CHL1  H22B 3610   5.640   6.228   7.647  0.0117  4.9949  1.3093
   49CHL1   C23 3611   5.775   6.210   7.819 -0.3155  0.7272  0.2690
   49CHL1  H23A 3612   5.712   6.284   7.874  1.4955  2.7102 -0.1694
   49CHL1  H23B 3613   5.743   6.109   7.851  1.5147 -0.0085 -0.1336
   49CHL1   C24 3614   5.916   6.238   7.875 -0.3323 -0.0563 -0.2626
   49CHL1  H24A 3615   5.977   6.154   7.833 -4.2614 -3.1493 -0.4130
   49CHL1  H24B 3616   5.958   6.336   7.844 -1.0503  0.6453  0.9000
   49CHL1   C25 3617   5.921   6.241   8.030 -0.1559 -0.4530 -0.4748
   49CHL1   H25 3618   5.844   6.167   8.061 -0.1727 -0.4271 -0.4544
   49CHL1   C26 3619   6.061   6.179   8.078 -0.3800 -0.0794  0.5176
   49CHL1  H26A 3620   6.072   6.074   8.044  1.8493 -0.1363  1.2537
   49CHL1  H26B 3621   6.139   6.243   8.033 -1.6564  0.7335 -0.6170
   49CHL1  H26C 3622   6.063   6.174   8.189  1.2275  2.8497  0.7176
   49CHL1   C27 3623   5.895   6.379   8.093  0.4187  0.7113  0.1624
   49CHL1  H27A 3624   5.889   6.354   8.201 -0.3598 -0.0153 -0.0321
   49CHL1  H27B 3625   5.981   6.444   8.066  0.1334  0.8767 -0.3450
   49CHL1  H27C 3626   5.797   6.422   8.067 -1.3250 -0.8877  3.4669
   50CHL1    C3 3627   4.978   6.364   6.802  0.7274 -0.7487  0.6027
   50CHL1    H3 3628   5.035   6.269   6.807  0.7738 -0.9043 -1.7299
   50CHL1    O3 3629   4.976   6.376   6.659 -0.6632  0.1614  0.4739
   50CHL1   H3' 3630   4.937   6.462   6.639  2.1533  1.4361 -0.0584
   50CHL1    C4 3631   4.847   6.364   6.868  0.3382  0.0080  0.1105
   50CHL1   H4A 3632   4.793   6.446   6.816 -1.6886 -0.5454  1.2122
   50CHL1   H4B 3633   4.797   6.268   6.841 -1.8855  0.3616  2.5961
   50CHL1    C5 3634   4.837   6.383   7.019 -0.5194 -0.2344 -0.4864
   50CHL1    C6 3635   4.776   6.293   7.097 -0.3421  0.0722  0.0917
   50CHL1    H6 3636   4.712   6.218   7.047 -1.2351  2.0247 -1.8563
   50CHL1    C7 3637   4.774   6.303   7.248  0.0320  0.5792  0.2190
   50CHL1   H7A 3638   4.675   6.275   7.288  0.3076  1.9227  1.9946
   50CHL1   H7B 3639   4.852   6.226   7.267 -0.6143 -0.3358 -0.7627
   50CHL1    C8 3640   4.829   6.425   7.304 -0.4924  0.1585 -0.0410
   50CHL1    H8 3641   4.751   6.502   7.288 -0.0199  0.9194  1.1773
   50CHL1   C14 3642   4.859   6.405   7.450  0.5377 -0.2427 -0.8025
   50CHL1   H14 3643   4.943   6.334   7.462  0.3347 -0.3924 -0.2132
   50CHL1   C15 3644   4.744   6.344   7.533 -0.6233  0.2614  0.2977
   50CHL1  H15A 3645   4.649   6.390   7.498  0.8102  3.0713 -0.1020
   50CHL1  H15B 3646   4.739   6.235   7.513  1.1133  0.4576 -1.4208
   50CHL1   C16 3647   4.778   6.385   7.674  0.0690  0.1551  0.2701
   50CHL1  H16A 3648   4.700   6.460   7.702  0.8717  0.9512  0.4541
   50CHL1  H16B 3649   4.782   6.310   7.756  0.4662 -0.4843 -0.3237
   50CHL1   C17 3650   4.899   6.482   7.665 -0.1923  0.1496  0.2671
   50CHL1   H17 3651   4.987   6.414   7.672  0.0312  0.4843  0.7239
   50CHL1   C13 3652   4.905   6.531   7.519  0.2727  0.2909 -0.1499
   50CHL1   C18 3653   4.799   6.643   7.510 -0.1052 -0.8157 -0.4098
   50CHL1  H18A 3654   4.773   6.676   7.407 -2.4187  2.0917  0.9465
   50CHL1  H18B 3655   4.700   6.613   7.550  0.5998 -2.5888  0.0867
   50CHL1  H18C 3656   4.835   6.741   7.549 -0.6993 -1.3691  1.6840
   50CHL1   C12 3657   5.041   6.572   7.457  0.0023  0.2612  1.1615
   50CHL1  H12A 3658   5.076   6.663   7.509 -0.7526  0.2619  1.6770
   50CHL1  H12B 3659   5.109   6.489   7.486 -0.5343 -0.2659  0.9323
   50CHL1   C11 3660   5.030   6.597   7.309 -0.3053 -0.1566  0.5702
   50CHL1  H11A 3661   4.962   6.684   7.295 -3.4325 -2.6213 -0.7283
   50CHL1  H11B 3662   5.126   6.615   7.257 -1.3466 -0.7215 -1.6474
   50CHL1    C9 3663   4.961   6.476   7.233  0.2367  0.0784 -0.4650
   50CHL1    H9 3664   5.024   6.385   7.241  0.6997  0.1148 -2.8975
   50CHL1   C10 3665   4.937   6.486   7.078 -0.2939 -0.6529  0.0885
   50CHL1   C19 3666   4.869   6.624   7.051  0.1446  0.2630 -1.1318
   50CHL1  H19A 3667   4.770   6.641   7.099  0.8338  1.5574 -0.0853
   50CHL1  H19B 3668   4.941   6.699   7.091 -0.8511  0.9655 -0.5998
   50CHL1  H19C 3669   4.856   6.643   6.942 -1.6040  1.7814 -0.7137
   50CHL1    C1 3670   5.074   6.480   7.006 -0.1664 -0.2358  0.1897
   50CHL1   H1A 3671   5.137   6.568   7.029 -0.4084  0.1084 -0.4474
   50CHL1   H1B 3672   5.123   6.392   7.053 -1.1056 -1.2622 -0.7071
   50CHL1    C2 3673   5.072   6.474   6.853 -0.4006 -0.3899  0.2674
   50CHL1   H2A 3674   5.174   6.451   6.814 -1.2915 -0.0573 -2.4585
   50CHL1   H2B 3675   5.041   6.573   6.814 -0.3066 -0.2275  0.6061
   50CHL1   C20 3676   4.898   6.584   7.784 -0.5807  0.3711 -0.1659
   50CHL1   H20 3677   4.834   6.669   7.755  0.1355  0.7400 -0.7043
   50CHL1   C21 3678   5.046   6.631   7.801  0.8328  0.6484  0.2611
   50CHL1  H21A 3679   5.078   6.686   7.710 -1.1357  1.4650  0.0119
   50CHL1  H21B 3680   5.119   6.548   7.813  0.7451  0.6579  0.9022
   50CHL1  H21C 3681   5.049   6.705   7.884  0.3302  2.0032 -0.8867
   50CHL1   C22 3682   4.847   6.532   7.917  1.0921 -0.3195 -0.0000
   50CHL1  H22A 3683   4.844   6.618   7.988 -0.7214 -0.1051 -0.2854
   50CHL1  H22B 3684   4.744   6.492   7.924  0.8252  0.3853  0.1557
   50CHL1   C23 3685   4.922   6.423   7.989 -1.5195 -0.5087  0.2298
   50CHL1  H23A 3686   4.938   6.342   7.915  0.3843  1.2057 -1.3825
   50CHL1  H23B 3687   5.018   6.467   8.024 -0.2362 -2.2956 -0.8508
   50CHL1   C24 3688   4.843   6.383   8.117 -0.0181  0.7370  0.5927
   50CHL1  H24A 3689   4.817   6.470   8.180  1.8822  1.6674  0.1656
   50CHL1  H24B 3690   4.752   6.337   8.074  1.2225 -0.5078 -0.8670
   50CHL1   C25 3691   4.925   6.285   8.210 -0.2681 -0.6557  0.0229
   50CHL1   H25 3692   4.967   6.206   8.145 -2.3459  0.3776 -2.8065
   50CHL1   C26 3693   5.038   6.358   8.276 -0.5407 -1.0004  0.5234
   50CHL1  H26A 3694   4.993   6.429   8.348  1.9624  0.0237  1.1857
   50CHL1  H26B 3695   5.098   6.278   8.324 -0.0665 -2.2627 -1.9741
   50CHL1  H26C 3696   5.099   6.412   8.201  0.9438 -1.1011  1.6144
   50CHL1   C27 3697   4.827   6.223   8.310  0.7312  0.2367  0.2797
   50CHL1  H27A 3698   4.784   6.305   8.371  1.3314  0.3803  0.5216
   50CHL1  H27B 3699   4.744   6.169   8.259  3.2324 -2.3463 -1.3992
   50CHL1  H27C 3700   4.876   6.138   8.363  0.0916 -0.3849 -0.1086
   51CHL1    C3 3701   5.798   0.408   6.812  0.7295  0.3746 -0.6618
   51CHL1    H3 3702   5.788   0.518   6.811  0.4314  0.4581  2.0272
   51CHL1    O3 3703   5.825   0.373   6.677 -0.2008  0.1888  0.9044
   51CHL1   H3' 3704   5.746   0.406   6.634 -0.2366 -0.8933  0.1003
   51CHL1    C4 3705   5.913   0.361   6.904  0.0987  0.2473  0.5434
   51CHL1   H4A 3706   5.929   0.252   6.888 -2.1914  0.1813 -1.9143
   51CHL1   H4B 3707   6.003   0.409   6.860 -1.2475  1.2877 -1.1910
   51CHL1    C5 3708   5.892   0.391   7.045 -0.4510 -0.2548  0.8420
   51CHL1    C6 3709   5.972   0.473   7.109 -0.0775  0.1376 -0.4728
   51CHL1    H6 3710   6.060   0.506   7.052  0.0562  1.7876  0.6308
   51CHL1    C7 3711   5.970   0.506   7.253  0.0705 -0.2911  0.1800
   51CHL1   H7A 3712   6.068   0.496   7.305  0.8752  1.6217 -0.8692
   51CHL1   H7B 3713   5.925   0.607   7.266 -0.6995 -0.5575 -0.3586
   51CHL1    C8 3714   5.869   0.415   7.329 -0.3511 -0.5475 -0.1848
   51CHL1    H8 3715   5.927   0.322   7.349  1.9604  1.1517  1.5036
   51CHL1   C14 3716   5.839   0.481   7.460  0.2223  0.4973 -0.2309
   51CHL1   H14 3717   5.784   0.575   7.443 -1.5410 -0.6715 -1.3232
   51CHL1   C15 3718   5.964   0.495   7.547  0.7360 -0.3464  0.8593
   51CHL1  H15A 3719   6.028   0.404   7.541 -1.4543 -1.9064 -0.2294
   51CHL1  H15B 3720   6.016   0.589   7.518 -2.2091  1.7270  1.9022
   51CHL1   C16 3721   5.899   0.507   7.692 -0.8141  0.0780  0.6346
   51CHL1  H16A 3722   5.961   0.444   7.760 -0.9518 -0.1445  0.5531
   51CHL1  H16B 3723   5.909   0.611   7.728  1.8904 -0.6600  2.2889
   51CHL1   C17 3724   5.752   0.470   7.688 -0.0433  0.3307 -0.8622
   51CHL1   H17 3725   5.698   0.566   7.677 -1.2861 -0.2359  0.0975
   51CHL1   C13 3726   5.743   0.400   7.552  1.0070 -0.2009  0.1991
   51CHL1   C18 3727   5.790   0.251   7.567 -0.9668  0.2665 -0.5928
   51CHL1  H18A 3728   5.891   0.252   7.613 -1.0045  3.1331 -0.3949
   51CHL1  H18B 3729   5.719   0.193   7.630 -0.3580 -1.2522 -1.2539
   51CHL1  H18C 3730   5.804   0.208   7.466  0.3246 -0.7507 -0.0124
   51CHL1   C12 3731   5.610   0.397   7.486 -0.2123 -0.4193  0.2627
   51CHL1  H12A 3732   5.541   0.324   7.533  1.2771 -1.2098  1.2944
   51CHL1  H12B 3733   5.573   0.501   7.489  0.6673  0.0265 -1.8965
   51CHL1   C11 3734   5.622   0.341   7.338 -0.4362 -0.1098 -0.4632
   51CHL1  H11A 3735   5.628   0.231   7.353 -2.5934  0.0523  2.3791
   51CHL1  H11B 3736   5.531   0.354   7.276 -0.5522 -0.0544 -0.2807
   51CHL1    C9 3737   5.739   0.394   7.250  0.0803 -0.3657  0.1662
   51CHL1    H9 3738   5.707   0.497   7.225 -0.8077 -1.3041 -3.0490
   51CHL1   C10 3739   5.762   0.338   7.104  0.3781  0.6226 -0.8670
   51CHL1   C19 3740   5.765   0.191   7.128  0.4988 -0.6240 -0.1141
   51CHL1  H19A 3741   5.665   0.153   7.157  0.3729  1.5366  2.6541
   51CHL1  H19B 3742   5.780   0.124   7.041 -2.6584  0.0337 -1.2954
   51CHL1  H19C 3743   5.839   0.169   7.208  0.4934  1.0379  0.3664
   51CHL1    C1 3744   5.636   0.375   7.014  0.1160  0.0865 -0.0618
   51CHL1   H1A 3745   5.537   0.329   7.033 -0.6730  1.1537 -1.4168
   51CHL1   H1B 3746   5.619   0.484   7.032  1.8151  0.1848  1.2652
   51CHL1    C2 3747   5.666   0.343   6.868 -0.1926  0.1920  0.5209
   51CHL1   H2A 3748   5.586   0.382   6.802  1.0639  0.0193 -1.2002
   51CHL1   H2B 3749   5.662   0.232   6.862 -2.9272  0.2917 -1.5695
   51CHL1   C20 3750   5.703   0.402   7.813 -0.1602 -0.3644 -0.1987
   51CHL1   H20 3751   5.738   0.296   7.810  1.0738  0.0406 -1.5117
   51CHL1   C21 3752   5.548   0.404   7.814 -0.8191  0.2505  0.0454
   51CHL1  H21A 3753   5.511   0.343   7.728  2.5020 -1.4131 -0.3391
   51CHL1  H21B 3754   5.504   0.506   7.818  1.2441  1.1426  1.0389
   51CHL1  H21C 3755   5.502   0.354   7.902  1.2784  0.1574  1.1367
   51CHL1   C22 3756   5.750   0.471   7.944 -0.2220 -0.1541  0.6509
   51CHL1  H22A 3757   5.851   0.518   7.939 -0.5868  0.7401  1.3215
   51CHL1  H22B 3758   5.695   0.566   7.961 -1.5732 -1.1507  2.0412
   51CHL1   C23 3759   5.729   0.390   8.067  0.3073 -0.6863  0.4042
   51CHL1  H23A 3760   5.624   0.353   8.070 -0.1642  0.6169  1.3236
   51CHL1  H23B 3761   5.793   0.299   8.069 -0.9217 -1.5967 -0.0574
   51CHL1   C24 3762   5.740   0.468   8.202  0.7047  0.3772  0.6263
   51CHL1  H24A 3763   5.850   0.466   8.222  1.2207  1.5552 -1.7118
   51CHL1  H24B 3764   5.705   0.574   8.203 -2.3275 -0.5119  2.8208
   51CHL1   C25 3765   5.663   0.402   8.320  0.1181  0.0457  0.4671
   51CHL1   H25 3766   5.556   0.400   8.290 -0.2501  1.5370  1.5698
   51CHL1   C26 3767   5.714   0.266   8.353 -0.6716 -0.2583  0.1348
   51CHL1  H26A 3768   5.680   0.208   8.264  0.5146  0.7497 -1.0278
   51CHL1  H26B 3769   5.825   0.255   8.356 -0.7169 -0.5139  2.0500
   51CHL1  H26C 3770   5.681   0.215   8.446  1.0909 -2.1275 -0.1891
   51CHL1   C27 3771   5.664   0.491   8.446  0.9098  0.0895 -0.3218
   51CHL1  H27A 3772   5.590   0.445   8.514  1.3063 -0.7603 -0.4529
   51CHL1  H27B 3773   5.763   0.470   8.491  0.9667  0.9448 -0.0178
   51CHL1  H27C 3774   5.643   0.597   8.419 -0.9086 -0.1395  0.1257
   52CHL1    C3 3775   1.316   2.607   6.858  0.3232  0.8211  0.6431
   52CHL1    H3 3776   1.280   2.502   6.860  0.4348  0.7727  0.1474
   52CHL1    O3 3777   1.304   2.664   6.729 -0.6592 -0.2669  0.5298
   52CHL1   H3' 3778   1.360   2.742   6.732  0.3541 -0.9171 -0.3888
   52CHL1    C4 3779   1.226   2.684   6.951  1.0793 -0.3493  0.1385
   52CHL1   H4A 3780   1.249   2.790   6.930  0.9732  0.3205  3.0751
   52CHL1   H4B 3781   1.121   2.669   6.917  1.2173  1.3835 -1.1638
   52CHL1    C5 3782   1.225   2.627   7.092  0.5247 -0.1872 -0.3181
   52CHL1    C6 3783   1.116   2.592   7.159 -0.2100  0.0145 -0.0728
   52CHL1    H6 3784   1.020   2.602   7.106 -1.4560  0.6337  2.1891
   52CHL1    C7 3785   1.121   2.566   7.305 -0.4659 -0.4017  1.0227
   52CHL1   H7A 3786   1.032   2.621   7.344 -0.2672  1.6270 -1.1732
   52CHL1   H7B 3787   1.103   2.459   7.331 -2.6030 -0.1340  0.8489
   52CHL1    C8 3788   1.254   2.616   7.385  0.1938 -0.2078  0.3455
   52CHL1    H8 3789   1.250   2.727   7.381  1.5500 -0.1676 -0.3042
   52CHL1   C14 3790   1.265   2.560   7.524  0.4097 -0.4886  0.1442
   52CHL1   H14 3791   1.278   2.453   7.497  1.5168 -0.1075 -0.9065
   52CHL1   C15 3792   1.147   2.561   7.622 -0.9296 -0.5116  0.5036
   52CHL1  H15A 3793   1.099   2.660   7.634 -0.0976  0.1232 -1.0366
   52CHL1  H15B 3794   1.076   2.480   7.594 -0.0531 -0.4557 -2.1220
   52CHL1   C16 3795   1.217   2.534   7.758 -0.3205  0.1714 -0.1562
   52CHL1  H16A 3796   1.194   2.617   7.828  0.1777  0.2477 -0.0790
   52CHL1  H16B 3797   1.181   2.439   7.803  0.5370 -0.8243 -1.5144
   52CHL1   C17 3798   1.376   2.522   7.735  0.2836  0.3604  0.0559
   52CHL1   H17 3799   1.403   2.419   7.703  0.2475  1.0388 -2.4130
   52CHL1   C13 3800   1.396   2.600   7.600  0.5586 -0.5879 -0.1588
   52CHL1   C18 3801   1.387   2.751   7.626 -0.1080 -0.2416  0.4068
   52CHL1  H18A 3802   1.380   2.806   7.530  1.1117 -0.7574 -0.0011
   52CHL1  H18B 3803   1.300   2.778   7.688  0.0357 -0.9824  0.9418
   52CHL1  H18C 3804   1.469   2.788   7.691 -0.2677  0.3660  0.2619
   52CHL1   C12 3805   1.519   2.553   7.516  0.0812 -0.3310 -0.1467
   52CHL1  H12A 3806   1.601   2.611   7.564 -0.9921  3.4047 -2.4025
   52CHL1  H12B 3807   1.530   2.443   7.520 -2.6657 -0.8188 -2.6535
   52CHL1   C11 3808   1.510   2.604   7.367  0.8087  0.3300 -0.4312
   52CHL1  H11A 3809   1.514   2.714   7.383 -1.6467  0.6737 -1.7437
   52CHL1  H11B 3810   1.599   2.573   7.308  0.0676 -0.4455 -1.1607
   52CHL1    C9 3811   1.378   2.576   7.300  0.4801 -0.3096  0.0587
   52CHL1    H9 3812   1.372   2.465   7.305 -1.6057 -0.3014 -1.2378
   52CHL1   C10 3813   1.372   2.629   7.155 -0.4331 -0.8443  0.8988
   52CHL1   C19 3814   1.421   2.776   7.157  0.1410 -0.3647  1.0633
   52CHL1  H19A 3815   1.391   2.838   7.070  1.0734 -0.5279  0.6077
   52CHL1  H19B 3816   1.376   2.823   7.247 -0.7173 -0.8338  0.8802
   52CHL1  H19C 3817   1.531   2.797   7.152 -0.1405  0.8715 -1.9581
   52CHL1    C1 3818   1.462   2.548   7.049 -0.2663 -0.1448  0.0106
   52CHL1   H1A 3819   1.569   2.542   7.079 -0.0607  0.9459 -0.4502
   52CHL1   H1B 3820   1.416   2.447   7.052 -1.3201  0.1962 -2.2123
   52CHL1    C2 3821   1.462   2.606   6.904  0.1230  0.2548  0.0661
   52CHL1   H2A 3822   1.510   2.529   6.840 -1.3448 -0.5137 -0.1630
   52CHL1   H2B 3823   1.494   2.712   6.893 -2.1118  0.9950  0.1238
   52CHL1   C20 3824   1.463   2.552   7.860  0.4186  0.2820  0.2845
   52CHL1   H20 3825   1.456   2.662   7.870 -2.9983  0.0512  1.8557
   52CHL1   C21 3826   1.608   2.514   7.836 -0.0768 -0.1081  0.1304
   52CHL1  H21A 3827   1.656   2.574   7.756  1.0932 -0.7005  0.3735
   52CHL1  H21B 3828   1.613   2.407   7.805  0.9377 -1.1170  3.3976
   52CHL1  H21C 3829   1.672   2.532   7.925 -0.6933  2.0093  0.1952
   52CHL1   C22 3830   1.415   2.483   7.989 -0.8109 -0.4563 -0.4142
   52CHL1  H22A 3831   1.316   2.525   8.020  0.1301  1.0196  0.7298
   52CHL1  H22B 3832   1.411   2.375   7.964  0.0933 -0.6467  0.2346
   52CHL1   C23 3833   1.511   2.502   8.115 -0.5663 -0.1814 -0.1832
   52CHL1  H23A 3834   1.613   2.460   8.104  0.1774 -0.0336  4.2412
   52CHL1  H23B 3835   1.534   2.609   8.133 -0.5791 -0.3709  1.0041
   52CHL1   C24 3836   1.440   2.437   8.237  0.0977  0.2043  0.4774
   52CHL1  H24A 3837   1.358   2.509   8.254  1.2342  1.4370  0.9668
   52CHL1  H24B 3838   1.397   2.336   8.220  0.3263  0.1392  0.2746
   52CHL1   C25 3839   1.511   2.417   8.374 -0.4091  0.0144  0.2141
   52CHL1   H25 3840   1.571   2.510   8.387 -0.6079 -0.0526  1.8658
   52CHL1   C26 3841   1.415   2.407   8.492 -1.0901 -0.2103  0.2415
   52CHL1  H26A 3842   1.483   2.385   8.577 -0.4186 -2.3194 -0.7727
   52CHL1  H26B 3843   1.356   2.501   8.503  1.5916  1.3715  2.3668
   52CHL1  H26C 3844   1.342   2.324   8.498 -0.3039 -0.8452  1.4272
   52CHL1   C27 3845   1.623   2.312   8.368 -0.0027 -0.0743 -0.8814
   52CHL1  H27A 3846   1.693   2.318   8.281 -0.4034 -0.3722 -1.2289
   52CHL1  H27B 3847   1.657   2.312   8.474 -3.3193  2.3472  0.3488
   52CHL1  H27C 3848   1.574   2.214   8.352  1.2705 -0.8646 -0.1216
   53CHL1    C3 3849   3.874   2.030   7.162  0.8429  0.4088  0.7798
   53CHL1    H3 3850   3.795   1.952   7.165  1.8358 -0.6521  0.1333
   53CHL1    O3 3851   3.912   2.052   7.028  0.4642 -0.1630  0.2008
   53CHL1   H3' 3852   3.940   2.143   7.021 -1.0538  0.5017  2.0903
   53CHL1    C4 3853   3.802   2.151   7.224 -0.3142 -0.3699  0.2930
   53CHL1   H4A 3854   3.861   2.242   7.202 -0.5693 -0.4093 -0.5729
   53CHL1   H4B 3855   3.699   2.158   7.184  0.1597 -1.3899 -1.2051
   53CHL1    C5 3856   3.781   2.136   7.373 -0.2727 -0.0392 -0.4387
   53CHL1    C6 3857   3.654   2.144   7.427 -0.2765  0.2471  0.6056
   53CHL1    H6 3858   3.567   2.160   7.362 -0.1857  0.7139  0.5897
   53CHL1    C7 3859   3.629   2.133   7.574 -0.0388 -1.0932  0.1549
   53CHL1   H7A 3860   3.567   2.216   7.614  1.9193 -0.5166  2.1782
   53CHL1   H7B 3861   3.583   2.038   7.608 -0.0168 -0.7148  1.2863
   53CHL1    C8 3862   3.749   2.140   7.666 -0.1189 -0.1432  0.1392
   53CHL1    H8 3863   3.781   2.246   7.658  1.2004 -0.5132  0.1840
   53CHL1   C14 3864   3.724   2.097   7.812 -0.0626 -0.0371 -0.3704
   53CHL1   H14 3865   3.688   1.992   7.816  1.5195 -0.5913  2.8692
   53CHL1   C15 3866   3.609   2.172   7.890 -0.4086  0.1834  0.5342
   53CHL1  H15A 3867   3.626   2.281   7.874  0.8978 -0.1056 -0.2926
   53CHL1  H15B 3868   3.509   2.139   7.856  0.1317 -0.5567 -0.3993
   53CHL1   C16 3869   3.637   2.137   8.033  0.5837  0.3283  0.0375
   53CHL1  H16A 3870   3.624   2.224   8.101 -0.7157  0.3099 -0.1475
   53CHL1  H16B 3871   3.559   2.062   8.059 -2.1574  2.9091 -0.1221
   53CHL1   C17 3872   3.779   2.069   8.042  0.4197 -0.5138 -0.1517
   53CHL1   H17 3873   3.764   1.960   8.030  0.9059 -0.8144  1.7967
   53CHL1   C13 3874   3.843   2.106   7.904 -0.5476 -0.4956 -0.8804
   53CHL1   C18 3875   3.886   2.265   7.914 -0.1333  0.6568  0.0549
   53CHL1  H18A 3876   3.975   2.261   7.980  0.0980 -0.1301 -0.2965
   53CHL1  H18B 3877   3.921   2.298   7.813  0.7126  1.9894  0.7646
   53CHL1  H18C 3878   3.807   2.328   7.959  0.3176 -0.6244  2.8023
   53CHL1   C12 3879   3.947   2.010   7.849  0.9449  1.1638  0.1684
   53CHL1  H12A 3880   4.048   2.006   7.894  0.7179 -1.5369  0.6361
   53CHL1  H12B 3881   3.913   1.904   7.854 -0.3323  1.4481 -1.5181
   53CHL1   C11 3882   3.980   2.028   7.702  0.3813 -0.0470  0.8751
   53CHL1  H11A 3883   4.043   2.120   7.708 -0.7120  0.6399  2.6023
   53CHL1  H11B 3884   4.047   1.949   7.663 -0.1104  0.1431 -0.3783
   53CHL1    C9 3885   3.861   2.052   7.607 -0.4423 -0.2474  0.7991
   53CHL1    H9 3886   3.810   1.954   7.593  0.5723 -0.7390  0.4664
   53CHL1   C10 3887   3.895   2.099   7.463 -0.2885  0.4846 -0.4567
   53CHL1   C19 3888   3.996   2.217   7.476 -0.2717 -0.1321 -0.7972
   53CHL1  H19A 3889   4.026   2.257   7.377  1.6728 -0.9617 -0.5851
   53CHL1  H19B 3890   3.965   2.305   7.536  1.8476  2.0100 -2.6642
   53CHL1  H19C 3891   4.096   2.192   7.518 -0.2007  0.1251 -0.8088
   53CHL1    C1 3892   3.959   1.972   7.394  0.2122 -0.6867 -0.0976
   53CHL1   H1A 3893   4.052   1.937   7.443  0.5340  0.3625  0.0615
   53CHL1   H1B 3894   3.883   1.891   7.403  0.6063 -0.8877  2.0817
   53CHL1    C2 3895   3.993   1.990   7.245  0.6040  0.2942 -0.5722
   53CHL1   H2A 3896   4.031   1.894   7.202  1.5100  2.0123 -4.0224
   53CHL1   H2B 3897   4.073   2.066   7.235 -0.1393  1.3185  0.9864
   53CHL1   C20 3898   3.858   2.101   8.165  0.6196 -0.3951 -0.3232
   53CHL1   H20 3899   3.865   2.211   8.171  0.9236 -0.3503 -1.2694
   53CHL1   C21 3900   4.001   2.036   8.148  0.4359 -0.2149  0.3127
   53CHL1  H21A 3901   3.996   1.927   8.130  2.4873 -0.3438  0.2598
   53CHL1  H21B 3902   4.052   2.047   8.246 -1.7663 -3.0616  1.9346
   53CHL1  H21C 3903   4.065   2.088   8.073 -1.6158  1.1655 -0.5870
   53CHL1   C22 3904   3.793   2.054   8.304  0.1357  0.0667  0.2828
   53CHL1  H22A 3905   3.690   2.090   8.321 -0.1316 -0.9278  0.8782
   53CHL1  H22B 3906   3.786   1.944   8.288 -1.2227 -0.0780  1.6251
   53CHL1   C23 3907   3.877   2.097   8.426 -0.2083  0.3769  0.0253
   53CHL1  H23A 3908   3.971   2.038   8.424 -0.4328 -0.0556  1.3782
   53CHL1  H23B 3909   3.896   2.206   8.437  2.8723 -0.2983  3.1970
   53CHL1   C24 3910   3.817   2.070   8.569  0.2657  0.2498  0.8519
   53CHL1  H24A 3911   3.712   2.105   8.572  0.2498  0.4140 -0.5817
   53CHL1  H24B 3912   3.813   1.961   8.593  2.8472 -0.2170 -0.4369
   53CHL1   C25 3913   3.883   2.139   8.695  0.3559  0.1826  0.5679
   53CHL1   H25 3914   3.872   2.249   8.694 -1.0722  0.0814 -1.4874
   53CHL1   C26 3915   3.813   2.094   8.827 -0.3561 -0.2535  1.0987
   53CHL1  H26A 3916   3.867   2.151   8.905  0.4270  1.5562 -0.6849
   53CHL1  H26B 3917   3.702   2.108   8.827 -0.2043  1.3763 -0.9516
   53CHL1  H26C 3918   3.831   1.988   8.856  0.7227 -0.3632  0.0870
   53CHL1   C27 3919   4.030   2.104   8.710  0.9546 -0.4058  0.3950
   53CHL1  H27A 3920   4.079   2.146   8.620 -1.2405 -2.3571 -1.8361
   53CHL1  H27B 3921   4.067   2.140   8.809  1.5522  0.0537  0.0112
   53CHL1  H27C 3922   4.046   1.995   8.707  1.7511 -0.2810 -0.3419
   54CHL1    C3 3923   4.010   4.809   6.860 -0.1316 -0.3905  0.5435
   54CHL1    H3 3924   3.899   4.817   6.867 -0.1383 -0.7628  0.9110
   54CHL1    O3 3925   4.034   4.771   6.725  0.1720 -0.2279  0.2522
   54CHL1   H3' 3926   4.129   4.785   6.716  0.3723 -1.2507  0.7406
   54CHL1    C4 3927   4.079   4.935   6.904 -0.0164 -0.1502 -0.3054
   54CHL1   H4A 3928   4.189   4.931   6.889  0.1248 -0.1660  0.6761
   54CHL1   H4B 3929   4.047   5.011   6.830 -3.2366 -0.0301  1.0827
   54CHL1    C5 3930   4.045   4.977   7.046 -0.2656  0.3399 -0.6635
   54CHL1    C6 3931   3.990   5.091   7.083  0.9706 -0.0066  0.2098
   54CHL1    H6 3932   3.967   5.171   7.011  0.1848  0.0796  0.5485
   54CHL1    C7 3933   3.964   5.120   7.229 -0.0906  0.4263  0.1367
   54CHL1   H7A 3934   3.995   5.225   7.247  0.4968  0.1821  0.5947
   54CHL1   H7B 3935   3.854   5.115   7.241  0.0816 -0.6340  1.6029
   54CHL1    C8 3936   4.039   5.030   7.329 -0.0351 -0.2443 -0.3305
   54CHL1    H8 3937   4.144   5.064   7.341  0.3860 -1.9342  1.1784
   54CHL1   C14 3938   3.971   5.038   7.463  0.2941  0.3994 -1.2306
   54CHL1   H14 3939   3.869   4.995   7.451  0.9612 -2.4781  1.9700
   54CHL1   C15 3940   3.955   5.178   7.520 -0.1729 -0.3653  0.0845
   54CHL1  H15A 3941   4.047   5.234   7.493  0.8713 -1.6188  0.9023
   54CHL1  H15B 3942   3.869   5.232   7.476 -0.2521 -0.7649 -0.2577
   54CHL1   C16 3943   3.936   5.161   7.669  0.0773  0.3731 -0.1240
   54CHL1  H16A 3944   4.016   5.224   7.714  1.3954 -0.6354 -0.9914
   54CHL1  H16B 3945   3.833   5.182   7.705 -0.3000 -0.9832 -0.3300
   54CHL1   C17 3946   3.963   5.007   7.701 -0.6735  0.2921 -0.1399
   54CHL1   H17 3947   3.866   4.953   7.695 -0.0094 -1.2998  2.2326
   54CHL1   C13 3948   4.041   4.951   7.572 -0.0470  0.2426  0.4834
   54CHL1   C18 3949   4.190   4.984   7.594  0.2691  0.3806 -0.4655
   54CHL1  H18A 3950   4.247   4.971   7.499 -2.2089  0.0456 -1.9940
   54CHL1  H18B 3951   4.198   5.090   7.628 -0.1376  0.3619 -0.3107
   54CHL1  H18C 3952   4.230   4.914   7.670 -1.5912 -0.9830 -0.6789
   54CHL1   C12 3953   4.015   4.805   7.530 -0.4724  0.2375  0.4124
   54CHL1  H12A 3954   4.058   4.741   7.609  0.3031 -0.9976 -0.9678
   54CHL1  H12B 3955   3.906   4.786   7.538 -0.4218  0.2476  1.1900
   54CHL1   C11 3956   4.066   4.775   7.391  0.4893 -0.4472  0.1757
   54CHL1  H11A 3957   4.176   4.756   7.389  0.1445 -2.7508  0.3839
   54CHL1  H11B 3958   4.037   4.672   7.361  0.9155  0.0466 -2.1282
   54CHL1    C9 3959   4.018   4.882   7.287  0.9826 -0.2876  0.0623
   54CHL1    H9 3960   3.908   4.876   7.275  0.6118  1.5621  1.9962
   54CHL1   C10 3961   4.080   4.859   7.146 -0.1906 -0.9056 -0.6095
   54CHL1   C19 3962   4.238   4.853   7.157 -0.1216  0.9589  0.8360
   54CHL1  H19A 3963   4.286   4.855   7.057  0.2636  0.8875  1.0155
   54CHL1  H19B 3964   4.274   4.934   7.224  0.2619  1.7705 -0.3127
   54CHL1  H19C 3965   4.273   4.758   7.202  1.4750  1.7649  1.3819
   54CHL1    C1 3966   4.027   4.724   7.090  0.1075 -0.2295  0.3104
   54CHL1   H1A 3967   4.072   4.640   7.147 -0.1600 -0.8324 -0.3430
   54CHL1   H1B 3968   3.916   4.727   7.099  0.0280 -3.0588  1.4244
   54CHL1    C2 3969   4.054   4.685   6.941 -0.0844 -0.7869  0.4891
   54CHL1   H2A 3970   3.990   4.600   6.908  1.5031 -0.7117 -3.2775
   54CHL1   H2B 3971   4.160   4.657   6.926  0.4748  2.4071 -2.7765
   54CHL1   C20 3972   4.027   4.972   7.837 -0.4795 -0.0796  0.0577
   54CHL1   H20 3973   4.130   5.013   7.848  0.3704 -2.0757 -0.0438
   54CHL1   C21 3974   4.038   4.822   7.851 -0.4959 -0.7170  0.3984
   54CHL1  H21A 3975   4.138   4.785   7.819  0.0227  0.7653  0.2157
   54CHL1  H21B 3976   3.964   4.769   7.788  1.2683 -1.3599 -1.2278
   54CHL1  H21C 3977   4.024   4.787   7.955  1.1114  3.0058  2.0625
   54CHL1   C22 3978   3.951   5.034   7.958  0.6749  0.1644 -0.0677
   54CHL1  H22A 3979   3.941   5.145   7.953 -0.1400  0.1648  1.1050
   54CHL1  H22B 3980   3.848   4.993   7.953 -0.2695  2.1189  1.6111
   54CHL1   C23 3981   4.009   5.004   8.100  0.1430  0.2382 -0.4714
   54CHL1  H23A 3982   3.950   5.048   8.183  0.0393 -2.3978  0.9417
   54CHL1  H23B 3983   4.004   4.894   8.111 -0.9307  0.4394  1.5416
   54CHL1   C24 3984   4.153   5.060   8.120  0.1868  0.0171  0.2334
   54CHL1  H24A 3985   4.232   4.998   8.072  0.1828  0.2539 -0.0777
   54CHL1  H24B 3986   4.153   5.162   8.077 -0.1921  1.0473  2.5174
   54CHL1   C25 3987   4.210   5.070   8.263 -0.2723 -0.3660  0.5855
   54CHL1   H25 3988   4.161   5.144   8.329 -1.6455 -1.8481  1.3098
   54CHL1   C26 3989   4.197   4.940   8.339 -0.1949  0.4061 -0.1802
   54CHL1  H26A 3990   4.248   4.871   8.268 -1.0782  0.0767 -0.5127
   54CHL1  H26B 3991   4.259   4.950   8.430 -1.6368  1.0887  0.7719
   54CHL1  H26C 3992   4.094   4.907   8.366 -0.5909  1.7963  0.0705
   54CHL1   C27 3993   4.358   5.118   8.250 -0.8926 -1.4170  0.1477
   54CHL1  H27A 3994   4.415   5.060   8.174  1.8622  0.2805  0.7546
   54CHL1  H27B 3995   4.355   5.227   8.228  0.8625 -1.4651 -0.4950
   54CHL1  H27C 3996   4.413   5.104   8.346  0.0770  0.7162 -0.0426
   55CHL1    C3 3997   2.635   6.020   7.042  0.3212 -0.6962 -0.4851
   55CHL1    H3 3998   2.543   6.071   7.078  0.4660 -1.0225  0.3681
   55CHL1    O3 3999   2.632   6.025   6.905 -0.3946 -0.3785 -0.1274
   55CHL1   H3' 4000   2.698   5.957   6.891 -0.9180 -1.3414  1.7893
   55CHL1    C4 4001   2.761   6.088   7.098  0.6475  0.9602  0.2174
   55CHL1   H4A 4002   2.837   6.020   7.053 -1.6121  0.2762 -2.8527
   55CHL1   H4B 4003   2.781   6.193   7.065 -0.7859  1.0749 -0.3364
   55CHL1    C5 4004   2.780   6.065   7.244  0.0445 -0.1173 -0.3647
   55CHL1    C6 4005   2.808   6.172   7.318  0.2795 -0.1231  0.4530
   55CHL1    H6 4006   2.818   6.267   7.265  2.1049 -1.5073 -1.8941
   55CHL1    C7 4007   2.831   6.164   7.463  0.9387 -0.7587 -0.4680
   55CHL1   H7A 4008   2.926   6.216   7.486  1.0575 -1.7399  1.5183
   55CHL1   H7B 4009   2.750   6.213   7.521  2.2339  0.3940  0.4313
   55CHL1    C8 4010   2.845   6.025   7.526  0.0971  0.9236  0.4567
   55CHL1    H8 4011   2.945   5.982   7.504  0.2385  1.1432  0.6594
   55CHL1   C14 4012   2.822   6.039   7.676  0.0101  0.0883  0.1597
   55CHL1   H14 4013   2.716   6.068   7.690 -0.1525 -0.1256 -0.5799
   55CHL1   C15 4014   2.903   6.132   7.763  0.9230  0.4545 -0.2509
   55CHL1  H15A 4015   3.010   6.119   7.740  0.9019 -1.8922  0.7576
   55CHL1  H15B 4016   2.876   6.240   7.753  2.2166  0.8630  0.5152
   55CHL1   C16 4017   2.878   6.079   7.902  0.5165 -0.2516  0.6967
   55CHL1  H16A 4018   2.967   6.067   7.968 -0.8051 -1.2413  2.4225
   55CHL1  H16B 4019   2.803   6.144   7.953 -0.7035  0.5168 -1.9036
   55CHL1   C17 4020   2.804   5.941   7.887 -0.5710 -0.1537  0.0206
   55CHL1   H17 4021   2.696   5.964   7.892 -0.3782  0.9905 -0.6086
   55CHL1   C13 4022   2.820   5.898   7.739  0.1554  0.4450  0.8196
   55CHL1   C18 4023   2.956   5.836   7.720 -0.4949 -0.3083  0.3189
   55CHL1  H18A 4024   2.960   5.733   7.763 -1.1922 -0.8071 -0.7573
   55CHL1  H18B 4025   2.993   5.832   7.616  0.8776  2.7549  0.5790
   55CHL1  H18C 4026   3.034   5.895   7.773  1.4952 -1.3823 -1.2932
   55CHL1   C12 4027   2.704   5.809   7.679  0.0123 -0.5592 -0.1127
   55CHL1  H12A 4028   2.706   5.710   7.728 -1.2846 -0.3271  0.4626
   55CHL1  H12B 4029   2.603   5.848   7.704 -0.4267 -0.7876 -1.4789
   55CHL1   C11 4030   2.721   5.790   7.529  0.2236 -0.5000 -0.3129
   55CHL1  H11A 4031   2.810   5.726   7.507  0.0249 -1.5409  1.6845
   55CHL1  H11B 4032   2.627   5.737   7.504 -0.2429 -0.1435  0.6423
   55CHL1    C9 4033   2.740   5.927   7.462 -0.7447 -0.1671 -0.1133
   55CHL1    H9 4034   2.646   5.986   7.466 -0.0905  1.0944 -1.8549
   55CHL1   C10 4035   2.752   5.919   7.307 -0.4153  0.1845  0.2116
   55CHL1   C19 4036   2.867   5.828   7.266  0.5983 -0.6543 -0.0529
   55CHL1  H19A 4037   2.849   5.721   7.292  2.0004 -0.8581  0.1679
   55CHL1  H19B 4038   2.890   5.844   7.158  2.2590 -1.1971  0.1787
   55CHL1  H19C 4039   2.963   5.859   7.313  0.3788 -0.7753  0.4792
   55CHL1    C1 4040   2.619   5.868   7.247 -0.5799  0.0593  0.0783
   55CHL1   H1A 4041   2.608   5.760   7.271 -1.4880 -0.8370 -3.7205
   55CHL1   H1B 4042   2.538   5.928   7.295 -3.2986 -3.1411 -0.1753
   55CHL1    C2 4043   2.616   5.871   7.094  0.0413 -0.5387 -0.1182
   55CHL1   H2A 4044   2.520   5.838   7.049 -0.4673  1.7119 -0.8068
   55CHL1   H2B 4045   2.705   5.820   7.052  0.0217  1.7532 -3.2999
   55CHL1   C20 4046   2.846   5.838   7.993  0.4908  0.0118 -0.1294
   55CHL1   H20 4047   2.955   5.815   7.989 -0.2665 -4.5484 -0.9772
   55CHL1   C21 4048   2.776   5.701   7.982  0.1330  0.0486  1.3013
   55CHL1  H21A 4049   2.811   5.637   7.898  0.7355  0.6662  1.0679
   55CHL1  H21B 4050   2.669   5.718   7.961  0.8589  0.0167 -3.4989
   55CHL1  H21C 4051   2.789   5.631   8.068  1.9736 -1.0667  0.2122
   55CHL1   C22 4052   2.835   5.879   8.144  0.6829 -0.0098 -0.2782
   55CHL1  H22A 4053   2.882   5.796   8.202  1.0746  1.2789  1.3444
   55CHL1  H22B 4054   2.900   5.966   8.168 -0.0939  0.0617  1.7854
   55CHL1   C23 4055   2.692   5.914   8.192  0.4788  0.4514 -0.3047
   55CHL1  H23A 4056   2.654   5.987   8.117 -0.8607  0.1251  0.0404
   55CHL1  H23B 4057   2.623   5.827   8.186 -1.9693  2.1048  1.9292
   55CHL1   C24 4058   2.693   5.959   8.341 -0.6555 -0.4643  0.5071
   55CHL1  H24A 4059   2.767   5.901   8.400 -1.5987 -0.0970  2.1227
   55CHL1  H24B 4060   2.729   6.064   8.342  0.6614 -0.8780  2.4689
   55CHL1   C25 4061   2.560   5.958   8.418  0.0219 -0.4091 -0.5680
   55CHL1   H25 4062   2.483   6.001   8.351 -2.4859  0.0002  2.3371
   55CHL1   C26 4063   2.535   5.816   8.477  0.4888 -0.1288  0.0008
   55CHL1  H26A 4064   2.628   5.780   8.526  0.4388  1.2210  1.1609
   55CHL1  H26B 4065   2.443   5.811   8.539  0.1766  1.8887 -0.2169
   55CHL1  H26C 4066   2.518   5.763   8.381 -0.1874  3.4460 -2.0348
   55CHL1   C27 4067   2.551   6.068   8.528 -1.2559  0.2641 -0.7634
   55CHL1  H27A 4068   2.613   6.055   8.619 -3.2391 -0.6596  0.5246
   55CHL1  H27B 4069   2.574   6.168   8.485 -0.5395  1.0702  1.3688
   55CHL1  H27C 4070   2.444   6.075   8.559 -0.8444  0.7602  0.6027
   56CHL1    C3 4071   3.628   4.920   6.881  0.0114 -0.1509 -0.4322
   56CHL1    H3 4072   3.735   4.909   6.910  0.2428  1.4553 -0.6022
   56CHL1    O3 4073   3.603   4.901   6.744  0.4114  0.3694 -0.0022
   56CHL1   H3' 4074   3.507   4.906   6.742  0.4237  2.2538  1.4231
   56CHL1    C4 4075   3.550   4.810   6.957 -0.1733 -0.0662  0.2066
   56CHL1   H4A 4076   3.444   4.815   6.923  0.2032  0.2914 -0.9671
   56CHL1   H4B 4077   3.597   4.715   6.923  2.4318  0.5086  1.9219
   56CHL1    C5 4078   3.563   4.820   7.110 -0.9680 -0.5235 -0.4140
   56CHL1    C6 4079   3.611   4.722   7.191  0.6823 -0.2909  0.0244
   56CHL1    H6 4080   3.633   4.626   7.142 -0.7964  0.2319 -1.8128
   56CHL1    C7 4081   3.629   4.734   7.344 -0.1904 -0.0189  0.8297
   56CHL1   H7A 4082   3.600   4.637   7.389  1.3973 -1.1216 -0.3952
   56CHL1   H7B 4083   3.734   4.762   7.369 -0.9877  3.1278  0.9752
   56CHL1    C8 4084   3.544   4.855   7.401  0.5286  0.4102  0.0219
   56CHL1    H8 4085   3.437   4.827   7.392 -0.0431  2.8405 -1.9712
   56CHL1   C14 4086   3.574   4.880   7.544  0.5128 -1.3303 -0.0549
   56CHL1   H14 4087   3.680   4.914   7.533 -0.0700  0.0469 -2.1175
   56CHL1   C15 4088   3.584   4.765   7.644  0.4144  0.7164  0.7090
   56CHL1  H15A 4089   3.496   4.698   7.648  1.4055 -0.6650  0.3046
   56CHL1  H15B 4090   3.678   4.709   7.625  0.5640  1.6645 -1.6949
   56CHL1   C16 4091   3.588   4.832   7.780  0.0808 -0.1275 -0.0777
   56CHL1  H16A 4092   3.496   4.797   7.832 -1.0956  0.8068 -1.4770
   56CHL1  H16B 4093   3.677   4.815   7.844  0.5266 -0.1873 -0.7036
   56CHL1   C17 4094   3.572   4.989   7.753  0.3624  0.2990  0.3762
   56CHL1   H17 4095   3.671   5.034   7.731  0.9384 -2.0365 -2.5292
   56CHL1   C13 4096   3.503   4.996   7.612 -0.3395  0.2384  0.4064
   56CHL1   C18 4097   3.350   4.955   7.630 -0.6771 -0.1499  0.3112
   56CHL1  H18A 4098   3.285   5.024   7.689 -0.2167 -1.2621  2.2145
   56CHL1  H18B 4099   3.300   4.946   7.532  0.1344 -0.1270 -0.1144
   56CHL1  H18C 4100   3.349   4.858   7.684 -0.2983  0.2738  1.1037
   56CHL1   C12 4101   3.520   5.123   7.531  0.3229 -0.4650  0.2465
   56CHL1  H12A 4102   3.456   5.205   7.570  2.9539  1.8757 -0.0865
   56CHL1  H12B 4103   3.625   5.161   7.528 -0.2890  1.3429 -3.8430
   56CHL1   C11 4104   3.488   5.107   7.377 -0.5097  0.1355 -0.0250
   56CHL1  H11A 4105   3.377   5.104   7.373 -0.8406  0.1904  4.3504
   56CHL1  H11B 4106   3.527   5.204   7.340 -2.1044  0.6458 -0.4439
   56CHL1    C9 4107   3.561   4.981   7.314 -0.2971 -0.4620  0.0462
   56CHL1    H9 4108   3.670   4.999   7.312 -0.1666 -1.2388 -1.5210
   56CHL1   C10 4109   3.522   4.958   7.166  0.5101 -0.0792 -0.1502
   56CHL1   C19 4110   3.371   4.960   7.156  0.1131  0.3575 -0.3479
   56CHL1  H19A 4111   3.343   5.067   7.168  0.3243  0.5457 -1.4444
   56CHL1  H19B 4112   3.339   4.916   7.059 -0.7326 -0.1804  0.1589
   56CHL1  H19C 4113   3.313   4.900   7.230 -0.0331  2.1265  1.0409
   56CHL1    C1 4114   3.590   5.066   7.069  0.1221  0.2472 -0.5393
   56CHL1   H1A 4115   3.552   5.166   7.100 -1.7857 -0.2197 -1.2438
   56CHL1   H1B 4116   3.699   5.058   7.090 -0.0512  0.4593  0.5020
   56CHL1    C2 4117   3.561   5.052   6.923 -0.1113 -0.1896 -0.0361
   56CHL1   H2A 4118   3.600   5.134   6.859 -2.4558 -0.4338 -1.9682
   56CHL1   H2B 4119   3.451   5.046   6.909 -0.1309 -0.7248  0.3335
   56CHL1   C20 4120   3.502   5.066   7.870  0.4530  0.0779  0.4113
   56CHL1   H20 4121   3.408   5.013   7.892  0.0946 -0.9311 -2.9459
   56CHL1   C21 4122   3.467   5.213   7.830 -0.1147 -0.0838  0.6939
   56CHL1  H21A 4123   3.551   5.259   7.773 -0.6855 -0.5677 -0.5883
   56CHL1  H21B 4124   3.440   5.273   7.919 -0.0802  2.7224 -1.0722
   56CHL1  H21C 4125   3.376   5.205   7.766  0.0710  1.0269  0.2777
   56CHL1   C22 4126   3.584   5.065   8.006 -0.0462 -0.1534  0.7716
   56CHL1  H22A 4127   3.638   4.969   8.020  3.3729  1.6610  1.0977
   56CHL1  H22B 4128   3.665   5.141   7.995  1.6123 -1.1985  4.2680
   56CHL1   C23 4129   3.500   5.099   8.134 -0.3886  0.4279  0.2546
   56CHL1  H23A 4130   3.567   5.110   8.222  1.2279 -0.0847 -0.8700
   56CHL1  H23B 4131   3.440   5.190   8.113 -3.1847 -1.7407 -1.8586
   56CHL1   C24 4132   3.398   4.992   8.172 -0.3215 -0.6375  0.6457
   56CHL1  H24A 4133   3.313   4.988   8.100 -2.0288  1.5017  2.3903
   56CHL1  H24B 4134   3.453   4.896   8.162  0.8382 -0.0911  1.5342
   56CHL1   C25 4135   3.339   4.996   8.313 -0.3153  0.1676 -0.2998
   56CHL1   H25 4136   3.258   4.920   8.312  0.3407 -0.5940 -3.0066
   56CHL1   C26 4137   3.437   4.960   8.420  0.1380 -0.5520 -1.1789
   56CHL1  H26A 4138   3.514   5.038   8.438 -0.7749 -0.4246  3.3882
   56CHL1  H26B 4139   3.487   4.863   8.398  0.6378 -0.2724 -1.2885
   56CHL1  H26C 4140   3.395   4.956   8.523  1.5163 -0.5150 -0.5951
   56CHL1   C27 4141   3.275   5.132   8.324  0.2026 -0.4902 -0.4241
   56CHL1  H27A 4142   3.345   5.217   8.337  0.0834 -0.5353  0.5721
   56CHL1  H27B 4143   3.208   5.157   8.239  0.1154  1.5091  0.1863
   56CHL1  H27C 4144   3.196   5.126   8.401  1.0698 -0.8845  0.4512
   57SAPC     N 4145   2.258   2.049  10.830  0.3514  0.3652  0.0865
   57SAPC   C12 4146   2.117   2.097  10.854 -0.3383 -0.3173  0.1446
   57SAPC  H12A 4147   2.052   2.041  10.789  2.0730 -1.5904 -1.3463
   57SAPC  H12B 4148   2.112   2.204  10.838  3.9318 -0.0380 -0.4873
   57SAPC   C13 4149   2.314   2.088  10.699  0.1141  0.2298  0.1651
   57SAPC  H13A 4150   2.409   2.041  10.681 -1.3827 -2.9764 -0.0813
   57SAPC  H13B 4151   2.251   2.053  10.619  2.0536  0.5627 -1.5864
   57SAPC  H13C 4152   2.324   2.195  10.693  1.9440  0.0969  0.2423
   57SAPC   C14 4153   2.348   2.092  10.935 -0.0914  0.5120  0.4202
   57SAPC  H14A 4154   2.308   2.081  11.034 -0.8928  0.5366  0.0998
   57SAPC  H14B 4155   2.435   2.027  10.939  0.0508  0.7200  0.8782
   57SAPC  H14C 4156   2.375   2.196  10.918 -2.0333  1.3907  2.2132
   57SAPC   C15 4157   2.257   1.896  10.839 -0.1639  0.6951  0.6814
   57SAPC  H15A 4158   2.218   1.862  10.934 -1.0148  1.0633  0.4719
   57SAPC  H15B 4159   2.193   1.854  10.763 -0.2176 -1.1380  1.6737
   57SAPC  H15C 4160   2.355   1.860  10.813 -0.1303  2.2892 -1.6780
   57SAPC   C11 4161   2.064   2.068  11.002 -0.0481 -0.2444 -1.0172
   57SAPC  H11A 4162   2.092   2.151  11.069 -1.2088 -0.0347 -0.7676
   57SAPC  H11B 4163   2.098   1.973  11.049 -2.4200  0.2610  2.0493
   57SAPC     P 4164   1.839   1.952  10.942 -0.1509  0.1844  0.3131
   57SAPC   O13 4165   1.880   1.827  11.008  0.1206 -0.4060 -0.3452
   57SAPC   O14 4166   1.692   1.988  10.956 -0.5512  0.1974  0.4302
   57SAPC   O12 4167   1.925   2.071  11.006 -0.1470 -0.3204  0.1237
   57SAPC   O11 4168   1.878   1.951  10.790  0.8526  0.3112 -0.4801
   57SAPC    C1 4169   1.848   2.068  10.709 -0.4821 -0.1311 -0.1067
   57SAPC    HA 4170   1.834   2.160  10.770 -0.3492 -0.9926  1.2772
   57SAPC    HB 4171   1.927   2.081  10.631 -0.2186  2.8736  0.5252
   57SAPC    C2 4172   1.719   2.065  10.615  0.9016 -0.2506 -0.1724
   57SAPC    HS 4173   1.643   2.064  10.695  1.9295  1.4830  0.8993
   57SAPC   O21 4174   1.716   1.944  10.540  0.3791 -0.0280  0.4707
   57SAPC   C21 4175   1.596   1.918  10.491  0.4442  0.0066 -0.0778
   57SAPC   O22 4176   1.495   1.979  10.524 -0.1328 -0.2724 -0.7563
   57SAPC   C22 4177   1.608   1.796  10.400 -0.0171 -0.6314  1.0522
   57SAPC   H2R 4178   1.619   1.837  10.297  1.4411 -2.1942  0.5360
   57SAPC   H2S 4179   1.705   1.743  10.411  0.7926  0.0815 -1.8615
   57SAPC    C3 4180   1.707   2.196  10.527  0.1988 -0.0412 -0.4151
   57SAPC    HX 4181   1.715   2.284  10.594 -0.3493 -0.5951  0.4087
   57SAPC    HY 4182   1.602   2.216  10.496 -0.7869 -1.6129  1.5906
   57SAPC   O31 4183   1.802   2.205  10.421  0.5091 -0.1255  0.2433
   57SAPC   C31 4184   1.768   2.166  10.300 -0.6071  0.4133 -0.0431
   57SAPC   O32 4185   1.668   2.108  10.266  0.9696 -0.5764  0.3524
   57SAPC   C32 4186   1.880   2.193  10.196 -0.2937  0.4528 -0.5117
   57SAPC   H2X 4187   1.948   2.276  10.223 -0.0612  0.6126 -1.5299
   57SAPC   H2Y 4188   1.832   2.219  10.099 -1.5724 -1.1833 -0.3669
   57SAPC   C23 4189   1.492   1.687  10.406  0.7874  0.0757 -0.2367
   57SAPC   H3R 4190   1.396   1.742  10.393  0.0878 -1.4557 -1.8723
   57SAPC   H3S 4191   1.486   1.640  10.506  2.8492  0.6946  0.2281
   57SAPC   C24 4192   1.506   1.574  10.303  0.4078 -0.3341  0.0615
   57SAPC   H4R 4193   1.608   1.532  10.318 -0.2680 -1.3618  2.1017
   57SAPC   H4S 4194   1.515   1.614  10.200  2.2826 -1.1300 -0.1413
   57SAPC   C25 4195   1.406   1.462  10.311 -0.0123  0.5621  0.1088
   57SAPC   H5R 4196   1.378   1.427  10.411  0.4832 -1.5822 -0.4609
   57SAPC   C26 4197   1.347   1.402  10.205 -0.3264  1.0684  0.0849
   57SAPC   H6R 4198   1.264   1.333  10.222  1.0720 -0.0958  2.7243
   57SAPC   C27 4199   1.376   1.438  10.066  0.1466  0.3699  0.3410
   57SAPC   H7R 4200   1.485   1.455  10.055  0.2507 -0.4655  0.0013
   57SAPC   H7S 4201   1.330   1.538  10.050  0.2569  0.1671 -1.4015
   57SAPC   C28 4202   1.334   1.338   9.957 -0.8142  0.1019 -0.9020
   57SAPC   H8R 4203   1.396   1.256   9.918  1.2643  1.2165 -0.1447
   57SAPC   C29 4204   1.210   1.345   9.904  0.8249 -0.1799 -0.5811
   57SAPC   H9R 4205   1.175   1.265   9.837  1.7205 -2.9640  1.9946
   57SAPC  C210 4206   1.100   1.433   9.953  0.2776  0.3823  0.3907
   57SAPC  H10R 4207   1.129   1.505  10.032  0.1629  0.5514  0.2801
   57SAPC  H10S 4208   1.022   1.370  10.001  0.8115 -0.2862  0.3986
   57SAPC  C211 4209   1.042   1.507   9.833 -0.2643 -0.3885 -0.2918
   57SAPC  H11R 4210   1.037   1.449   9.740  0.8358 -1.7229  0.4377
   57SAPC  C212 4211   0.979   1.626   9.833  0.4714 -0.4944  0.2319
   57SAPC  H12R 4212   0.964   1.675   9.736  1.8864  1.4582  0.9533
   57SAPC  C213 4213   0.953   1.717   9.955  0.1471  0.1940  0.1607
   57SAPC  H13R 4214   0.999   1.668  10.043 -0.7083 -1.7071 -0.3824
   57SAPC  H13S 4215   0.845   1.722   9.980  0.4790 -0.3384  1.8282
   57SAPC  C214 4216   1.001   1.860   9.940  0.6244 -0.0886  0.7831
   57SAPC  H14R 4217   1.087   1.884  10.004  1.9998  0.3710 -1.1577
   57SAPC  C215 4218   0.956   1.953   9.857 -0.1253 -0.0487  0.0178
   57SAPC  H15R 4219   1.003   2.053   9.853 -0.4084  0.2089  2.2208
   57SAPC  C216 4220   0.840   1.946   9.764  0.0021 -0.0093 -0.2713
   57SAPC  H16R 4221   0.747   1.986   9.810 -0.3918  1.8525 -2.5167
   57SAPC  H16S 4222   0.817   1.839   9.741 -1.7971  0.2725 -0.0016
   57SAPC  C217 4223   0.872   2.017   9.630  0.6179 -0.4254  0.0409
   57SAPC  H17R 4224   0.946   1.949   9.583 -0.1267 -2.6786  1.9134
   57SAPC  H17S 4225   0.910   2.117   9.661 -2.1898  0.6881  0.2637
   57SAPC  C218 4226   0.747   2.014   9.542  0.0012  0.1362  0.8799
   57SAPC  H18R 4227   0.655   2.052   9.591 -1.8174 -0.6554 -1.6573
   57SAPC  H18S 4228   0.729   1.908   9.513  3.2925 -0.1657 -0.5191
   57SAPC  C219 4229   0.763   2.106   9.421 -0.0624 -0.3383 -0.6432
   57SAPC  H19R 4230   0.741   2.210   9.452  2.0326 -0.5047  1.7172
   57SAPC  H19S 4231   0.696   2.067   9.342 -1.4155 -1.9790  1.2049
   57SAPC  C220 4232   0.897   2.106   9.347  0.2110 -0.2805  0.3480
   57SAPC  H20R 4233   0.975   2.161   9.403 -0.7229  1.0619  0.3616
   57SAPC  H20S 4234   0.885   2.170   9.257  0.8174  3.0719  2.4870
   57SAPC  H20T 4235   0.925   2.000   9.328 -1.5134 -0.8475  0.7256
   57SAPC   C33 4236   1.949   2.063  10.165 -0.1925 -0.7597  0.0087
   57SAPC   H3X 4237   1.881   1.976  10.149  0.3426 -1.1557 -0.1741
   57SAPC   H3Y 4238   2.001   2.033  10.258 -0.7468 -0.3301  0.4613
   57SAPC   C34 4239   2.057   2.066  10.061 -0.2185  0.2237  1.1132
   57SAPC   H4X 4240   2.119   1.974  10.066  2.0836  1.3851 -2.2837
   57SAPC   H4Y 4241   2.128   2.147  10.088  0.5202 -0.4259  1.1395
   57SAPC   C35 4242   2.010   2.087   9.916  0.1438  0.2376 -0.0542
   57SAPC   H5X 4243   2.018   2.192   9.883 -1.0117 -0.2837 -2.1714
   57SAPC   H5Y 4244   1.902   2.058   9.922  0.4939 -1.1014  0.2582
   57SAPC   C36 4245   2.063   1.977   9.816 -0.6310  0.3900 -0.2347
   57SAPC   H6X 4246   2.030   1.875   9.845  0.7499 -0.1261 -0.4098
   57SAPC   H6Y 4247   2.173   1.975   9.827 -0.8507 -1.5057  3.1661
   57SAPC   C37 4248   2.040   2.007   9.669 -0.2542 -0.3619 -0.6418
   57SAPC   H7X 4249   2.045   2.116   9.650  1.9165  0.3252  3.0357
   57SAPC   H7Y 4250   1.941   1.962   9.644 -0.4183 -0.3490 -0.0319
   57SAPC   C38 4251   2.136   1.935   9.573 -0.1398  0.5798 -0.6543
   57SAPC   H8X 4252   2.134   1.825   9.593 -2.3845  0.3196 -1.9529
   57SAPC   H8Y 4253   2.236   1.958   9.616 -0.9275 -1.6985  2.7673
   57SAPC   C39 4254   2.129   1.967   9.422  0.0340 -0.6395 -0.0110
   57SAPC   H9X 4255   2.175   2.065   9.396 -2.4899  1.0870  1.5144
   57SAPC   H9Y 4256   2.026   1.960   9.380 -1.2242  0.7295  2.5839
   57SAPC  C310 4257   2.200   1.854   9.343 -0.1824 -0.7477 -0.2306
   57SAPC  H10X 4258   2.161   1.760   9.389 -0.3129 -0.0336  1.1729
   57SAPC  H10Y 4259   2.308   1.835   9.358  0.2359  1.1392 -0.6624
   57SAPC  C311 4260   2.177   1.865   9.197  0.7353 -0.4621 -0.2658
   57SAPC  H11X 4261   2.198   1.968   9.162 -0.3999  0.4158  1.5103
   57SAPC  H11Y 4262   2.069   1.852   9.174  0.0861 -0.8458  2.6284
   57SAPC  C312 4263   2.245   1.755   9.119  0.1457 -0.2983  0.1775
   57SAPC  H12X 4264   2.208   1.655   9.150 -0.9848 -0.6691 -2.1153
   57SAPC  H12Y 4265   2.354   1.758   9.143 -0.0703  0.6757  1.0978
   57SAPC  C313 4266   2.227   1.755   8.968  0.3027  0.1777 -0.6899
   57SAPC  H13X 4267   2.117   1.742   8.954  0.2326  0.1311 -0.1115
   57SAPC  H13Y 4268   2.277   1.665   8.928 -2.5285 -2.2903  0.8864
   57SAPC  C314 4269   2.270   1.877   8.895  0.2049  0.1303  0.1897
   57SAPC  H14X 4270   2.371   1.906   8.933 -0.3362  1.6314  0.5574
   57SAPC  H14Y 4271   2.207   1.968   8.903  2.1496  1.4581  1.4996
   57SAPC  C315 4272   2.286   1.853   8.748  0.4893 -0.1463  0.0036
   57SAPC  H15X 4273   2.199   1.890   8.689  2.0070  2.1324 -0.9308
   57SAPC  H15Y 4274   2.305   1.744   8.735  0.7761 -0.0223 -0.6517
   57SAPC  C316 4275   2.413   1.910   8.682  0.7494 -0.5112 -0.1185
   57SAPC  H16X 4276   2.498   1.890   8.750  0.5054 -0.5354  0.1825
   57SAPC  H16Y 4277   2.394   2.019   8.682  1.3498 -0.3930  1.1181
   57SAPC  C317 4278   2.447   1.868   8.540 -0.0490 -0.5376  0.0491
   57SAPC  H17X 4279   2.372   1.910   8.470  2.9149  1.5170 -2.1921
   57SAPC  H17Y 4280   2.447   1.757   8.540  0.2237 -0.5448 -0.6520
   57SAPC  C318 4281   2.577   1.921   8.489  0.0537 -0.3924  0.0693
   57SAPC  H18X 4282   2.581   2.031   8.504  0.0632 -0.5502  1.3105
   57SAPC  H18Y 4283   2.605   1.903   8.383  2.7113  1.1278  0.4267
   57SAPC  H18Z 4284   2.658   1.878   8.551  1.1025  1.3996  0.0239
   58SAPC     N 4285   4.141   2.063  11.010  0.3671  0.1121  0.1758
   58SAPC   C12 4286   4.076   1.977  10.902  0.1714  0.7185 -0.7039
   58SAPC  H12A 4287   4.022   2.029  10.825  0.3121  0.4376 -0.9933
   58SAPC  H12B 4288   4.012   1.911  10.960  1.2516  0.7100  0.5296
   58SAPC   C13 4289   4.027   2.115  11.087 -0.1290 -0.4355  0.7354
   58SAPC  H13A 4290   3.978   2.185  11.021  0.0728 -0.3588  0.6677
   58SAPC  H13B 4291   3.959   2.036  11.115  1.8666 -1.7767  2.1517
   58SAPC  H13C 4292   4.049   2.184  11.167 -3.0335  1.0375  0.4034
   58SAPC   C14 4293   4.225   1.975  11.100  0.2767  0.5516 -0.2060
   58SAPC  H14A 4294   4.307   1.932  11.044 -0.5271 -2.2110  0.5940
   58SAPC  H14B 4295   4.272   2.034  11.178  0.9120 -1.5982  1.1135
   58SAPC  H14C 4296   4.178   1.894  11.152 -1.7180  2.0697  0.4671
   58SAPC   C15 4297   4.213   2.169  10.940  0.2153 -0.1250  0.1970
   58SAPC  H15A 4298   4.251   2.239  11.013 -0.7000  1.8134 -1.0777
   58SAPC  H15B 4299   4.288   2.119  10.880 -0.5439 -0.3901 -0.5536
   58SAPC  H15C 4300   4.153   2.220  10.865  1.7103  0.3609 -0.7203
   58SAPC   C11 4301   4.176   1.883  10.819  0.4813  0.1955 -0.0475
   58SAPC  H11A 4302   4.123   1.839  10.732 -2.5053 -0.1653  1.8239
   58SAPC  H11B 4303   4.196   1.798  10.889  1.6417  0.1819 -0.3676
   58SAPC     P 4304   4.412   1.895  10.714  0.4323 -0.1641 -0.2890
   58SAPC   O13 4305   4.501   2.001  10.666  0.1624  0.2158  0.1211
   58SAPC   O14 4306   4.465   1.800  10.811  0.2597 -0.2161  0.1331
   58SAPC   O12 4307   4.285   1.962  10.772  0.3250 -0.3476  0.2684
   58SAPC   O11 4308   4.354   1.818  10.592 -0.2873  0.0695  0.2923
   58SAPC    C1 4309   4.374   1.683  10.564 -0.0145  0.3285  0.0947
   58SAPC    HA 4310   4.481   1.667  10.541 -0.6481 -0.4505 -2.6173
   58SAPC    HB 4311   4.338   1.627  10.654  0.6783 -1.2064 -0.5457
   58SAPC    C2 4312   4.295   1.628  10.441 -0.0410  0.0355  0.6039
   58SAPC    HS 4313   4.200   1.588  10.481 -0.3267  1.1615  1.0861
   58SAPC   O21 4314   4.375   1.521  10.377  0.2680  0.3038  0.0707
   58SAPC   C21 4315   4.373   1.410  10.441  0.6513  0.3831 -0.1112
   58SAPC   O22 4316   4.306   1.385  10.543  1.0098  0.3663 -0.0338
   58SAPC   C22 4317   4.448   1.305  10.369  0.3716 -0.0588 -0.5879
   58SAPC   H2R 4318   4.539   1.279  10.429 -0.6595 -1.2349  0.5382
   58SAPC   H2S 4319   4.380   1.217  10.373 -0.5017  0.6248  2.2710
   58SAPC    C3 4320   4.272   1.739  10.340 -0.3577 -0.3518  0.1306
   58SAPC    HX 4321   4.371   1.782  10.317 -1.4611  3.0241  1.1197
   58SAPC    HY 4322   4.213   1.821  10.386 -2.2093 -1.7779  0.4144
   58SAPC   O31 4323   4.206   1.698  10.218 -0.3429  0.1942  0.1850
   58SAPC   C31 4324   4.271   1.651  10.114  0.1014  0.2764  0.4175
   58SAPC   O32 4325   4.389   1.652  10.092  0.4943 -0.0586  0.1499
   58SAPC   C32 4326   4.166   1.601  10.019 -0.1629 -0.9068  0.2684
   58SAPC   H2X 4327   4.094   1.684  10.003  1.5114  0.0764 -2.9456
   58SAPC   H2Y 4328   4.094   1.534  10.072 -2.3142  0.9161 -0.1971
   58SAPC   C23 4329   4.469   1.344  10.223  0.9692 -0.6937  0.1440
   58SAPC   H3R 4330   4.506   1.448  10.214  2.0201 -1.1782 -1.6154
   58SAPC   H3S 4331   4.369   1.343  10.175  0.8448  2.7388  0.1395
   58SAPC   C24 4332   4.565   1.253  10.138  0.5147  0.1320  0.5603
   58SAPC   H4R 4333   4.660   1.254  10.195  0.0252  0.9023  1.3972
   58SAPC   H4S 4334   4.569   1.305  10.040 -3.0617  0.0266  0.2047
   58SAPC   C25 4335   4.510   1.119  10.134  0.4200  1.2344  0.2427
   58SAPC   H5R 4336   4.519   1.066  10.230  0.0516  1.5135  0.4339
   58SAPC   C26 4337   4.442   1.060  10.034  0.1851  0.2407 -0.3510
   58SAPC   H6R 4338   4.415   0.953  10.036  1.7360 -0.1711  0.9707
   58SAPC   C27 4339   4.416   1.115   9.898  0.6258  0.7573 -0.4502
   58SAPC   H7R 4340   4.432   1.223   9.875  2.0958  0.1572 -2.5571
   58SAPC   H7S 4341   4.312   1.085   9.873  0.0229 -0.0109  2.5427
   58SAPC   C28 4342   4.510   1.038   9.811 -0.4062 -0.7011  0.4599
   58SAPC   H8R 4343   4.614   1.026   9.845 -0.1164 -0.6104 -0.3773
   58SAPC   C29 4344   4.480   1.013   9.683  0.9142  0.4219  0.6823
   58SAPC   H9R 4345   4.549   0.958   9.617 -2.1370 -0.7921 -1.7789
   58SAPC  C210 4346   4.363   1.062   9.598  0.8051  0.2416  1.0058
   58SAPC  H10R 4347   4.295   1.125   9.660 -0.6502  0.9336 -1.1890
   58SAPC  H10S 4348   4.296   0.982   9.562  1.3402  0.1782  0.1338
   58SAPC  C211 4349   4.437   1.134   9.482 -0.0602  0.2407  0.4730
   58SAPC  H11R 4350   4.432   1.244   9.480 -1.0503  0.2070  0.2842
   58SAPC  C212 4351   4.504   1.083   9.379 -0.4124  0.6645  0.1537
   58SAPC  H12R 4352   4.552   1.153   9.310 -0.6022  1.6377  0.9922
   58SAPC  C213 4353   4.541   0.938   9.345 -0.2400 -0.8473  0.1021
   58SAPC  H13R 4354   4.565   0.875   9.433 -2.0510 -1.4311  0.2192
   58SAPC  H13S 4355   4.640   0.935   9.293 -0.1451 -0.4142  0.2539
   58SAPC  C214 4356   4.437   0.870   9.263 -0.7820 -0.4688  0.7448
   58SAPC  H14R 4357   4.332   0.886   9.293 -1.0490  0.9951 -0.8394
   58SAPC  C215 4358   4.453   0.798   9.151  0.5578  0.3113 -0.5613
   58SAPC  H15R 4359   4.366   0.764   9.093  1.0682  0.8877 -1.7210
   58SAPC  C216 4360   4.581   0.747   9.087  0.2041 -0.3953 -0.0234
   58SAPC  H16R 4361   4.590   0.637   9.102 -1.7254 -0.8031 -1.4265
   58SAPC  H16S 4362   4.674   0.788   9.133  0.7191  3.1906 -3.7386
   58SAPC  C217 4363   4.583   0.783   8.939 -0.7285 -0.5360  0.0766
   58SAPC  H17R 4364   4.594   0.894   8.937 -1.0639 -0.5006  0.1326
   58SAPC  H17S 4365   4.487   0.771   8.884 -0.9365 -2.0724  0.7203
   58SAPC  C218 4366   4.703   0.722   8.860  0.5203 -0.3992  0.3610
   58SAPC  H18R 4367   4.680   0.616   8.838 -1.0492  0.2428 -1.3083
   58SAPC  H18S 4368   4.795   0.733   8.922 -1.4562  1.6369  3.1560
   58SAPC  C219 4369   4.728   0.807   8.738 -0.3838  0.6246  0.5491
   58SAPC  H19R 4370   4.763   0.910   8.762 -2.6605  1.6879 -0.3412
   58SAPC  H19S 4371   4.639   0.812   8.672  1.3556  0.5038 -1.9604
   58SAPC  C220 4372   4.827   0.733   8.648 -0.6501 -0.3547  0.3181
   58SAPC  H20R 4373   4.785   0.633   8.624  0.6426 -0.7502 -0.3865
   58SAPC  H20S 4374   4.928   0.715   8.688  0.0240 -0.2589 -1.2711
   58SAPC  H20T 4375   4.836   0.789   8.552  2.1896 -0.3399  0.5238
   58SAPC   C33 4376   4.232   1.553   9.891  0.0765  0.2798  0.3811
   58SAPC   H3X 4377   4.326   1.499   9.915 -0.0031  0.7404  1.8382
   58SAPC   H3Y 4378   4.263   1.641   9.830  0.8520  0.9214  1.6502
   58SAPC   C34 4379   4.140   1.460   9.808 -0.5235  0.0086  0.1931
   58SAPC   H4X 4380   4.037   1.453   9.851 -1.0658  0.9401 -0.9037
   58SAPC   H4Y 4381   4.180   1.357   9.800  2.2845  1.1361 -1.5030
   58SAPC   C35 4382   4.131   1.522   9.670 -0.2942  0.1289 -0.1341
   58SAPC   H5X 4383   4.232   1.543   9.627 -0.5889  0.4698 -0.6735
   58SAPC   H5Y 4384   4.089   1.625   9.682  2.5208  1.3031  0.4693
   58SAPC   C36 4385   4.046   1.429   9.580 -0.7109 -0.0871 -0.0589
   58SAPC   H6X 4386   3.958   1.397   9.639  0.2270 -1.8595  0.4715
   58SAPC   H6Y 4387   4.113   1.350   9.539  0.5159  2.0573 -2.4540
   58SAPC   C37 4388   3.981   1.515   9.467 -1.1046  0.4816  0.1093
   58SAPC   H7X 4389   3.949   1.612   9.511 -0.8628  0.2174  0.8704
   58SAPC   H7Y 4390   3.895   1.478   9.408 -0.9436  0.9947 -0.4667
   58SAPC   C38 4391   4.083   1.546   9.348 -0.5025 -0.8690  0.2818
   58SAPC   H8X 4392   4.167   1.608   9.386 -0.1647 -2.0743  1.6129
   58SAPC   H8Y 4393   4.032   1.592   9.261  1.3633 -0.9257 -0.9070
   58SAPC   C39 4394   4.146   1.420   9.283  0.3810 -0.0014  0.8411
   58SAPC   H9X 4395   4.207   1.372   9.362  2.9487  2.0250  0.2188
   58SAPC   H9Y 4396   4.218   1.441   9.201  0.3560 -1.9767  0.2564
   58SAPC  C310 4397   4.038   1.333   9.213  0.2007  0.3463  0.1175
   58SAPC  H10X 4398   3.970   1.385   9.143 -0.7233 -0.4698  0.3780
   58SAPC  H10Y 4399   3.980   1.301   9.302 -0.3904 -0.9826 -0.7072
   58SAPC  C311 4400   4.094   1.209   9.140  0.3489 -0.6678  0.4432
   58SAPC  H11X 4401   4.205   1.212   9.144  0.6675  1.3357 -4.1591
   58SAPC  H11Y 4402   4.073   1.220   9.032  0.0924  4.8006  0.7730
   58SAPC  C312 4403   4.051   1.080   9.213 -0.1128 -0.4932 -0.5935
   58SAPC  H12X 4404   3.941   1.082   9.226 -0.4457 -2.3904 -2.6570
   58SAPC  H12Y 4405   4.101   1.064   9.311 -0.7711 -0.6026 -0.2765
   58SAPC  C313 4406   4.084   0.947   9.139 -0.7352  0.0536 -0.3178
   58SAPC  H13X 4407   4.056   0.867   9.210 -3.2456  0.8591 -0.3308
   58SAPC  H13Y 4408   4.194   0.948   9.118 -0.7823 -2.0694 -0.8716
   58SAPC  C314 4409   3.993   0.939   9.016  0.2449 -0.1652 -0.4793
   58SAPC  H14X 4410   4.007   1.034   8.959  2.8742  0.1286  0.5241
   58SAPC  H14Y 4411   3.887   0.926   9.047  0.9472 -3.3610  0.9571
   58SAPC  C315 4412   4.035   0.827   8.924  0.8096 -0.7102 -0.8914
   58SAPC  H15X 4413   4.051   0.738   8.988 -0.3256 -1.8010 -2.0770
   58SAPC  H15Y 4414   4.131   0.863   8.880  0.6137  0.5508 -0.3275
   58SAPC  C316 4415   3.935   0.807   8.814  0.6909  0.0787 -0.6469
   58SAPC  H16X 4416   3.909   0.905   8.770  0.5135  0.3635  0.0687
   58SAPC  H16Y 4417   3.843   0.759   8.856 -0.4566  0.9987 -2.0304
   58SAPC  C317 4418   3.992   0.726   8.700 -0.1105  0.1622  0.0921
   58SAPC  H17X 4419   3.980   0.622   8.736 -1.7637 -0.0717 -1.0250
   58SAPC  H17Y 4420   4.100   0.752   8.694  0.0468 -0.4435  0.1807
   58SAPC  C318 4421   3.926   0.738   8.564  0.3946 -0.3696 -0.3616
   58SAPC  H18X 4422   3.965   0.828   8.513 -1.3361  1.0708  0.7296
   58SAPC  H18Y 4423   3.815   0.740   8.576  0.5700 -1.3923  2.0003
   58SAPC  H18Z 4424   3.959   0.648   8.508 -0.0601 -0.5477 -0.3537
   59SAPC     N 4425   5.912   1.298  11.283  0.4477  0.5330 -0.4106
   59SAPC   C12 4426   5.991   1.305  11.155 -0.3182 -0.5356 -1.0041
   59SAPC  H12A 4427   5.958   1.234  11.081  1.5076 -0.9204 -1.5078
   59SAPC  H12B 4428   6.093   1.277  11.175 -0.6725 -1.4598 -0.4221
   59SAPC   C13 4429   5.896   1.154  11.329 -0.0408 -0.1713 -0.1882
   59SAPC  H13A 4430   5.997   1.115  11.332 -0.2813 -0.8241  2.1357
   59SAPC  H13B 4431   5.843   1.139  11.422  1.3735  1.6519  0.9847
   59SAPC  H13C 4432   5.845   1.105  11.247 -0.0696 -0.4394 -0.0159
   59SAPC   C14 4433   5.949   1.395  11.387 -0.3831 -0.0277 -0.3154
   59SAPC  H14A 4434   6.054   1.389  11.410 -0.2848 -0.0878 -0.7735
   59SAPC  H14B 4435   5.928   1.496  11.353  0.5626  1.1746  2.3740
   59SAPC  H14C 4436   5.896   1.374  11.479  2.3096 -2.0670  0.8930
   59SAPC   C15 4437   5.775   1.339  11.242  0.0773  0.4768  0.2670
   59SAPC  H15A 4438   5.769   1.442  11.213 -1.5389 -0.0153 -1.2908
   59SAPC  H15B 4439   5.732   1.271  11.169  0.2613  1.3319 -0.6669
   59SAPC  H15C 4440   5.710   1.332  11.328 -0.8800  0.9565 -0.4009
   59SAPC   C11 4441   5.999   1.443  11.091 -0.2407 -0.3572  0.3948
   59SAPC  H11A 4442   5.921   1.519  11.110  1.2760  1.0897  1.1805
   59SAPC  H11B 4443   5.990   1.427  10.982  0.6335  0.1641  0.2330
   59SAPC     P 4444   6.258   1.442  11.071  0.1161 -0.0060 -0.3579
   59SAPC   O13 4445   6.368   1.519  11.131 -0.1338  0.3851  0.5155
   59SAPC   O14 4446   6.267   1.297  11.088  0.0487  0.0594 -0.3425
   59SAPC   O12 4447   6.125   1.503  11.124  0.0872 -0.4496 -0.5474
   59SAPC   O11 4448   6.265   1.474  10.914 -0.1121  0.6190 -0.3519
   59SAPC    C1 4449   6.238   1.594  10.850 -0.0254  0.0694 -0.5269
   59SAPC    HA 4450   6.158   1.649  10.902 -1.0490 -1.9146  0.0892
   59SAPC    HB 4451   6.323   1.661  10.876 -0.1666 -0.4017  1.3204
   59SAPC    C2 4452   6.221   1.586  10.697  0.6742 -1.1057  0.1077
   59SAPC    HS 4453   6.172   1.491  10.669 -0.4991 -0.1574 -1.2165
   59SAPC   O21 4454   6.351   1.593  10.633  0.6057  0.4723 -0.3654
   59SAPC   C21 4455   6.395   1.495  10.553  0.5115 -0.7913 -0.5223
   59SAPC   O22 4456   6.328   1.397  10.527  0.6435  0.2923  0.5426
   59SAPC   C22 4457   6.533   1.520  10.507 -0.1292  0.5099  0.5288
   59SAPC   H2R 4458   6.566   1.615  10.554 -0.2932  0.3456  0.9850
   59SAPC   H2S 4459   6.589   1.437  10.555  0.5536  0.5325 -0.2103
   59SAPC    C3 4460   6.130   1.701  10.640 -0.4099  0.8232 -0.1092
   59SAPC    HX 4461   6.181   1.792  10.679  0.0412 -0.3644  2.2742
   59SAPC    HY 4462   6.031   1.698  10.690 -1.1468 -1.0891 -1.5633
   59SAPC   O31 4463   6.127   1.713  10.500  0.6966 -0.3539 -0.0925
   59SAPC   C31 4464   6.071   1.613  10.433 -0.1259 -0.9571  0.4276
   59SAPC   O32 4465   6.000   1.528  10.475 -0.0186 -0.3138 -0.2964
   59SAPC   C32 4466   6.098   1.638  10.287  0.4700  0.4753 -0.2988
   59SAPC   H2X 4467   6.198   1.600  10.259  1.0998  0.9754  1.2076
   59SAPC   H2Y 4468   6.106   1.746  10.263  1.2305  0.9514  1.9044
   59SAPC   C23 4469   6.541   1.538  10.356 -0.1740 -0.3333  0.5433
   59SAPC   H3R 4470   6.470   1.459  10.320 -1.5604  0.5482  1.2419
   59SAPC   H3S 4471   6.640   1.501  10.321 -0.5719  0.2797 -1.3823
   59SAPC   C24 4472   6.510   1.676  10.292  0.5037 -0.1760  0.4187
   59SAPC   H4R 4473   6.586   1.752  10.325  0.5224 -0.3146  0.6965
   59SAPC   H4S 4474   6.409   1.711  10.322 -0.7819 -0.6458 -2.9180
   59SAPC   C25 4475   6.523   1.669  10.141  0.6668 -0.6686 -0.7058
   59SAPC   H5R 4476   6.460   1.594  10.091 -0.6867 -0.3660  0.4791
   59SAPC   C26 4477   6.602   1.740  10.061  0.2144 -0.0402  0.8922
   59SAPC   H6R 4478   6.635   1.699   9.964  2.1290  1.5247  0.8133
   59SAPC   C27 4479   6.694   1.853  10.098  0.0044  0.1017  0.0991
   59SAPC   H7R 4480   6.802   1.851  10.070  0.2451 -3.0724  0.8199
   59SAPC   H7S 4481   6.709   1.866  10.207  1.8453  2.0735 -0.3279
   59SAPC   C28 4482   6.627   1.981  10.052  0.3166 -1.0405 -0.4313
   59SAPC   H8R 4483   6.552   2.015  10.125  1.2927 -1.9141  1.0434
   59SAPC   C29 4484   6.670   2.067   9.956  0.0391  0.4494  0.1840
   59SAPC   H9R 4485   6.609   2.156   9.936 -1.0903 -0.5147 -0.7837
   59SAPC  C210 4486   6.799   2.046   9.873 -0.4427 -0.2958  0.8671
   59SAPC  H10R 4487   6.815   1.936   9.864  1.3181 -0.0679  0.9115
   59SAPC  H10S 4488   6.885   2.091   9.927 -0.0697  3.0085 -2.1196
   59SAPC  C211 4489   6.786   2.109   9.735 -0.1726  0.0194 -0.2522
   59SAPC  H11R 4490   6.715   2.192   9.720 -1.4452 -0.9682  0.0584
   59SAPC  C212 4491   6.868   2.080   9.628  0.2789  0.0034 -0.9033
   59SAPC  H12R 4492   6.860   2.142   9.538  0.3830  0.9103 -0.3088
   59SAPC  C213 4493   6.996   1.995   9.644  1.0512  0.0423 -0.4531
   59SAPC  H13R 4494   6.973   1.898   9.597  3.3480 -1.5332  1.4078
   59SAPC  H13S 4495   7.018   1.970   9.750  1.4024 -0.0142 -0.5378
   59SAPC  C214 4496   7.118   2.059   9.583 -0.3218  0.0438  0.2657
   59SAPC  H14R 4497   7.132   2.024   9.479 -0.0026 -2.4412  1.0746
   59SAPC  C215 4498   7.213   2.135   9.641 -0.2225  0.2362 -1.1326
   59SAPC  H15R 4499   7.297   2.172   9.580  0.6664 -1.2523 -0.8723
   59SAPC  C216 4500   7.215   2.175   9.785 -0.1388 -0.1376 -0.2512
   59SAPC  H16R 4501   7.314   2.165   9.835 -0.9790  0.1805  1.5434
   59SAPC  H16S 4502   7.159   2.103   9.848 -1.3064  0.8473 -0.1333
   59SAPC  C217 4503   7.153   2.321   9.810  0.5285 -0.0727 -0.1120
   59SAPC  H17R 4504   7.047   2.329   9.778  0.7732 -0.0155 -0.9362
   59SAPC  H17S 4505   7.205   2.395   9.744  2.8495 -1.7714 -0.3083
   59SAPC  C218 4506   7.167   2.362   9.961  0.1855  0.1349  0.9071
   59SAPC  H18R 4507   7.139   2.468   9.974  3.2063  0.8782  2.3559
   59SAPC  H18S 4508   7.277   2.350   9.973  0.7139  0.8635 -2.1768
   59SAPC  C219 4509   7.085   2.280  10.063  0.3482 -0.2213 -0.1255
   59SAPC  H19R 4510   7.105   2.173  10.046  0.5595 -0.5901  2.1178
   59SAPC  H19S 4511   6.975   2.293  10.052  0.0942 -1.7360  0.4704
   59SAPC  C220 4512   7.128   2.295  10.208 -0.1620 -1.0883  0.0225
   59SAPC  H20R 4513   7.229   2.253  10.231  0.9196  0.4597 -1.6564
   59SAPC  H20S 4514   7.062   2.233  10.272 -0.8962 -0.1129  0.2364
   59SAPC  H20T 4515   7.127   2.403  10.236 -0.1276 -0.9156 -0.6286
   59SAPC   C33 4516   6.011   1.551  10.193 -0.7264  0.4360  0.3152
   59SAPC   H3X 4517   5.904   1.554  10.223 -0.7968 -1.1306  0.3002
   59SAPC   H3Y 4518   6.043   1.445  10.188  0.5080  0.7485  1.0942
   59SAPC   C34 4519   6.003   1.607  10.053 -0.1232  0.3647  0.1381
   59SAPC   H4X 4520   5.982   1.716  10.056  1.2986  0.6254  2.0089
   59SAPC   H4Y 4521   5.915   1.560  10.003  0.0858  0.1568 -0.0355
   59SAPC   C35 4522   6.116   1.589   9.963 -0.1174 -0.2261 -0.2837
   59SAPC   H5X 4523   6.122   1.478   9.960 -1.0601 -0.3293  0.8404
   59SAPC   H5Y 4524   6.219   1.609   9.998 -0.2603 -1.2220  0.7805
   59SAPC   C36 4525   6.085   1.635   9.822 -0.8397 -0.3288 -0.3996
   59SAPC   H6X 4526   6.042   1.737   9.812  0.7027  0.4490  0.5978
   59SAPC   H6Y 4527   6.020   1.556   9.777 -2.3549  0.6900 -0.0980
   59SAPC   C37 4528   6.212   1.636   9.736  0.4861  0.4710  0.0362
   59SAPC   H7X 4529   6.261   1.537   9.735  1.4166  0.9116  0.7521
   59SAPC   H7Y 4530   6.287   1.709   9.774  1.3564  0.6612 -1.9216
   59SAPC   C38 4531   6.169   1.663   9.591 -1.3984 -0.6377 -0.2549
   59SAPC   H8X 4532   6.120   1.763   9.593  1.5405  0.9463 -1.3804
   59SAPC   H8Y 4533   6.096   1.587   9.556  2.0205 -4.2800 -0.0983
   59SAPC   C39 4534   6.291   1.667   9.499  0.0460  0.2648 -0.2533
   59SAPC   H9X 4535   6.334   1.565   9.499 -0.2075  0.1174  1.7531
   59SAPC   H9Y 4536   6.349   1.749   9.546 -0.8711 -1.0772  3.5858
   59SAPC  C310 4537   6.248   1.708   9.360 -0.3951 -0.2697  0.0073
   59SAPC  H10X 4538   6.209   1.812   9.364 -0.1644  0.0017 -2.8721
   59SAPC  H10Y 4539   6.160   1.644   9.338 -0.7351  0.2018 -0.0151
   59SAPC  C311 4540   6.364   1.702   9.255  0.4032  0.7599 -0.0343
   59SAPC  H11X 4541   6.455   1.747   9.301  2.2413 -2.1182 -0.5684
   59SAPC  H11Y 4542   6.343   1.760   9.163  1.9699  0.3870 -0.6477
   59SAPC  C312 4543   6.393   1.554   9.207  0.7446 -0.2518 -0.3545
   59SAPC  H12X 4544   6.303   1.514   9.155  1.2467 -1.5780 -0.2482
   59SAPC  H12Y 4545   6.404   1.489   9.296 -2.1532  0.3213  0.5132
   59SAPC  C313 4546   6.513   1.546   9.110  0.2067  0.1735 -0.0584
   59SAPC  H13X 4547   6.536   1.438   9.097 -0.7366 -0.6390  3.6590
   59SAPC  H13Y 4548   6.597   1.587   9.170  1.5551  0.5595 -2.1157
   59SAPC  C314 4549   6.488   1.611   8.974  0.4710 -0.0941 -0.4131
   59SAPC  H14X 4550   6.477   1.720   8.995  3.3872  0.4017 -0.9684
   59SAPC  H14Y 4551   6.395   1.561   8.938  1.0170 -1.3791 -0.1013
   59SAPC  C315 4552   6.595   1.585   8.865 -0.2305  1.0477 -0.4925
   59SAPC  H15X 4553   6.557   1.644   8.779 -1.3365  0.7086 -0.2545
   59SAPC  H15Y 4554   6.599   1.477   8.841 -2.7870  0.8431 -0.2599
   59SAPC  C316 4555   6.734   1.631   8.906 -0.6003 -0.0494 -0.6116
   59SAPC  H16X 4556   6.785   1.561   8.976  0.6249  0.4041 -1.0287
   59SAPC  H16Y 4557   6.734   1.729   8.959 -2.7785 -1.0446  1.4045
   59SAPC  C317 4558   6.842   1.659   8.801 -0.6219  0.7488 -0.0083
   59SAPC  H17X 4559   6.825   1.582   8.724 -0.9639  0.5554  0.2610
   59SAPC  H17Y 4560   6.939   1.637   8.850 -1.0428 -2.1499 -0.3363
   59SAPC  C318 4561   6.844   1.799   8.741  0.1934  0.2284  0.0467
   59SAPC  H18X 4562   6.756   1.801   8.673 -1.0972  0.9657  1.6448
   59SAPC  H18Y 4563   6.935   1.811   8.679  0.3723 -1.9066 -0.1673
   59SAPC  H18Z 4564   6.838   1.874   8.823 -0.0422  0.4084 -0.1311
   60SAPC     N 4565   2.122   6.748  10.982 -0.7009 -0.1389 -0.5069
   60SAPC   C12 4566   1.992   6.738  10.914  0.6421  0.7570 -0.3733
   60SAPC  H12A 4567   1.931   6.825  10.936  1.0852  0.7662  0.8729
   60SAPC  H12B 4568   1.942   6.644  10.934 -0.0433  0.6840 -2.2255
   60SAPC   C13 4569   2.203   6.637  10.935  0.1724  0.8554 -0.2642
   60SAPC  H13A 4570   2.233   6.649  10.832  0.9536  0.4389 -0.0968
   60SAPC  H13B 4571   2.284   6.612  11.002 -0.2807 -0.0806 -0.0460
   60SAPC  H13C 4572   2.139   6.550  10.928  0.5038  0.6606 -1.0551
   60SAPC   C14 4573   2.192   6.884  10.962  0.2142  0.0640  0.1622
   60SAPC  H14A 4574   2.140   6.961  11.016 -1.2395 -1.0321  0.3948
   60SAPC  H14B 4575   2.295   6.886  10.992 -0.4296 -0.4949  2.6426
   60SAPC  H14C 4576   2.183   6.904  10.856 -1.2399  0.9664  0.4274
   60SAPC   C15 4577   2.093   6.736  11.129 -1.1547 -0.1042 -0.0693
   60SAPC  H15A 4578   2.189   6.734  11.179 -0.1994  0.1834 -1.8158
   60SAPC  H15B 4579   2.047   6.830  11.155 -1.2868 -0.3274  0.5151
   60SAPC  H15C 4580   2.030   6.653  11.157 -3.1548  1.8239  1.4581
   60SAPC   C11 4581   1.994   6.754  10.757  0.0345  0.2348 -0.0257
   60SAPC  H11A 4582   1.897   6.720  10.716 -0.6356  1.4607  0.4705
   60SAPC  H11B 4583   2.066   6.681  10.714  0.2212 -1.2519  2.6063
   60SAPC     P 4584   1.931   7.005  10.737 -0.1606 -0.4727  0.1081
   60SAPC   O13 4585   1.891   7.011  10.875 -0.5647 -0.6157  0.4421
   60SAPC   O14 4586   2.003   7.125  10.683 -0.2096 -0.5100  0.1384
   60SAPC   O12 4587   2.025   6.882  10.722  0.4509 -0.2986  0.4311
   60SAPC   O11 4588   1.814   6.959  10.637 -0.6535 -0.0528  0.1650
   60SAPC    C1 4589   1.752   7.060  10.557  0.0468  0.2438  0.8514
   60SAPC    HA 4590   1.650   7.028  10.528  0.2492  0.9886 -0.8403
   60SAPC    HB 4591   1.733   7.151  10.617  0.0523 -0.5390  2.0674
   60SAPC    C2 4592   1.813   7.082  10.410 -0.8838  0.3850 -0.4260
   60SAPC    HS 4593   1.908   7.136  10.430  0.6990 -2.1831 -0.5802
   60SAPC   O21 4594   1.714   7.151  10.330 -0.3420 -0.4387  0.4299
   60SAPC   C21 4595   1.769   7.238  10.254 -0.1134  0.7543  0.7747
   60SAPC   O22 4596   1.885   7.279  10.252  0.6697  0.3039  0.8556
   60SAPC   C22 4597   1.656   7.290  10.165 -0.1029  0.7480 -0.5173
   60SAPC   H2R 4598   1.574   7.310  10.237 -1.3787 -1.5577 -1.2327
   60SAPC   H2S 4599   1.703   7.378  10.117  1.4608 -1.4621 -3.3887
   60SAPC    C3 4600   1.847   6.943  10.341  0.2076 -0.4852 -1.5333
   60SAPC    HX 4601   1.759   6.877  10.346 -0.3433  0.3198  0.7679
   60SAPC    HY 4602   1.924   6.896  10.406  1.4367 -1.7374 -3.7710
   60SAPC   O31 4603   1.901   6.964  10.213  0.1502  0.3350 -0.8207
   60SAPC   C31 4604   2.036   6.983  10.204  0.5627  0.2595  0.5679
   60SAPC   O32 4605   2.115   6.970  10.291  0.2796  0.5616 -0.7217
   60SAPC   C32 4606   2.076   7.005  10.056 -0.1437 -0.7073  0.3668
   60SAPC   H2X 4607   2.159   7.080  10.055 -1.7778  1.1916 -0.9400
   60SAPC   H2Y 4608   1.996   7.067  10.010  2.6850  2.4611 -0.7409
   60SAPC   C23 4609   1.595   7.188  10.057  0.4105  0.1339  0.2619
   60SAPC   H3R 4610   1.502   7.230  10.013 -0.4896 -1.3254  0.7011
   60SAPC   H3S 4611   1.568   7.099  10.117 -0.6771  2.1367  2.9340
   60SAPC   C24 4612   1.692   7.150   9.948 -0.4151 -1.0342 -0.3322
   60SAPC   H4R 4613   1.657   7.051   9.912  0.3166 -1.0058 -1.1506
   60SAPC   H4S 4614   1.790   7.143  10.001 -0.3719 -2.0231 -0.5224
   60SAPC   C25 4615   1.715   7.245   9.836  0.3168  0.0687  0.3862
   60SAPC   H5R 4616   1.753   7.345   9.861 -0.2853  0.8601 -1.6518
   60SAPC   C26 4617   1.708   7.219   9.701  0.2082  0.3238 -0.7236
   60SAPC   H6R 4618   1.717   7.302   9.629 -1.4274  0.8448 -0.3675
   60SAPC   C27 4619   1.665   7.087   9.649  0.3191  0.0053 -0.0823
   60SAPC   H7R 4620   1.572   7.050   9.697  0.1158  1.0636  0.3523
   60SAPC   H7S 4621   1.747   7.013   9.668  2.0180  1.9724  0.5699
   60SAPC   C28 4622   1.623   7.087   9.506 -0.4711 -0.1581  0.1377
   60SAPC   H8R 4623   1.525   7.133   9.489 -0.7221 -0.3343  1.0569
   60SAPC   C29 4624   1.700   7.044   9.398 -0.3168  0.9041  0.4913
   60SAPC   H9R 4625   1.655   7.046   9.298 -2.2582 -2.0800  1.1463
   60SAPC  C210 4626   1.841   6.993   9.407 -0.7731 -0.0316  0.2003
   60SAPC  H10R 4627   1.871   6.986   9.514  1.8949 -1.7462 -0.5357
   60SAPC  H10S 4628   1.905   7.063   9.350 -1.2699 -0.3953 -0.8310
   60SAPC  C211 4629   1.831   6.856   9.341  0.5411 -0.0919 -1.0311
   60SAPC  H11R 4630   1.791   6.773   9.400 -0.5318  0.5753 -0.7949
   60SAPC  C212 4631   1.865   6.832   9.218 -0.2630  0.1103  0.3945
   60SAPC  H12R 4632   1.859   6.728   9.181  2.9585 -1.1653  2.9637
   60SAPC  C213 4633   1.925   6.935   9.122  0.4417 -0.4285 -0.4237
   60SAPC  H13R 4634   2.031   6.957   9.147 -0.3280  2.1121  0.9043
   60SAPC  H13S 4635   1.871   7.030   9.141  0.5293 -0.4627  0.0091
   60SAPC  C214 4636   1.925   6.881   8.984  0.8544 -0.7150 -0.7245
   60SAPC  H14R 4637   1.965   6.780   8.970 -2.0459 -1.9471 -0.9381
   60SAPC  C215 4638   1.865   6.944   8.880  0.9099 -0.3761 -0.3505
   60SAPC  H15R 4639   1.872   6.894   8.782 -3.6223 -0.3867 -0.8898
   60SAPC  C216 4640   1.788   7.073   8.859 -0.3955  0.0319 -0.0413
   60SAPC  H16R 4641   1.784   7.129   8.954 -0.4463 -1.7261  1.0291
   60SAPC  H16S 4642   1.682   7.053   8.830 -1.3633  0.3543  2.9305
   60SAPC  C217 4643   1.869   7.165   8.767  0.2799 -0.1677 -0.1326
   60SAPC  H17R 4644   1.872   7.128   8.662  2.0158  2.0327 -0.9473
   60SAPC  H17S 4645   1.972   7.164   8.809 -0.5369 -1.2556  1.9549
   60SAPC  C218 4646   1.819   7.303   8.776 -0.4531 -0.2040  0.9730
   60SAPC  H18R 4647   1.789   7.331   8.879 -0.1088 -1.3836  1.4134
   60SAPC  H18S 4648   1.721   7.297   8.724 -0.6118 -2.7541  1.4050
   60SAPC  C219 4649   1.913   7.408   8.705  0.2547 -0.3915 -0.1909
   60SAPC  H19R 4650   1.920   7.385   8.597 -0.5287  2.0193 -0.8214
   60SAPC  H19S 4651   2.014   7.391   8.748  0.8381 -3.0262 -2.3248
   60SAPC  C220 4652   1.883   7.557   8.732  0.2929 -0.0261  0.0191
   60SAPC  H20R 4653   1.773   7.562   8.717  0.2718  0.3772  0.2864
   60SAPC  H20S 4654   1.936   7.631   8.667 -1.5552  1.2359 -0.1600
   60SAPC  H20T 4655   1.903   7.578   8.839 -0.0211 -1.1692  0.3067
   60SAPC   C33 4656   2.099   6.882   9.965 -0.3614 -0.3742  0.4938
   60SAPC   H3X 4657   2.038   6.793   9.991  1.9070 -2.3101 -0.4638
   60SAPC   H3Y 4658   2.204   6.846   9.963 -0.2976 -0.3499  2.1278
   60SAPC   C34 4659   2.074   6.907   9.818 -0.4273 -0.7848 -0.4679
   60SAPC   H4X 4660   2.139   6.989   9.779 -2.1411  1.3789  0.9516
   60SAPC   H4Y 4661   1.969   6.919   9.783  0.2336 -2.5937 -3.4104
   60SAPC   C35 4662   2.105   6.782   9.740  0.2751 -0.4890  0.3342
   60SAPC   H5X 4663   2.044   6.694   9.772  0.5964 -0.4643  1.0163
   60SAPC   H5Y 4664   2.202   6.741   9.775 -0.2405  0.1233  2.6107
   60SAPC   C36 4665   2.112   6.791   9.594 -0.2739  0.0408  0.7252
   60SAPC   H6X 4666   2.161   6.884   9.558 -1.4409 -0.0795 -1.3250
   60SAPC   H6Y 4667   2.009   6.799   9.554  1.0246  2.8689 -2.5638
   60SAPC   C37 4668   2.180   6.665   9.530 -0.5055 -0.5072  0.1122
   60SAPC   H7X 4669   2.137   6.571   9.570  0.5131 -0.7388  0.6845
   60SAPC   H7Y 4670   2.280   6.670   9.577 -1.5640 -0.9636  2.5632
   60SAPC   C38 4671   2.185   6.661   9.380  0.0301 -0.5256 -0.2765
   60SAPC   H8X 4672   2.227   6.757   9.344 -1.3696  0.4847  0.6780
   60SAPC   H8Y 4673   2.087   6.660   9.327  0.3679  1.3715 -1.0368
   60SAPC   C39 4674   2.263   6.548   9.320 -0.5170 -0.2204  0.2839
   60SAPC   H9X 4675   2.217   6.449   9.340 -1.1729 -0.0395 -0.2939
   60SAPC   H9Y 4676   2.363   6.548   9.369 -0.5463  0.3486  0.3583
   60SAPC  C310 4677   2.297   6.577   9.167  0.1465  0.3596 -0.7606
   60SAPC  H10X 4678   2.390   6.522   9.143 -0.1128  0.7258 -2.7739
   60SAPC  H10Y 4679   2.336   6.681   9.178 -2.1031  1.1031  1.1870
   60SAPC  C311 4680   2.178   6.579   9.068 -0.6428  0.9918  0.1506
   60SAPC  H11X 4681   2.084   6.628   9.102 -0.0163  2.5949 -0.3575
   60SAPC  H11Y 4682   2.150   6.472   9.054 -0.1523  0.8334  0.3498
   60SAPC  C312 4683   2.214   6.646   8.935 -0.1982 -0.6440  0.0301
   60SAPC  H12X 4684   2.321   6.645   8.906 -0.3676 -0.0455 -0.6293
   60SAPC  H12Y 4685   2.194   6.754   8.948  0.7781 -0.1836 -1.9665
   60SAPC  C313 4686   2.137   6.579   8.818 -0.2017 -0.4345 -0.6116
   60SAPC  H13X 4687   2.125   6.645   8.729 -1.6815  0.0831 -0.0544
   60SAPC  H13Y 4688   2.035   6.551   8.852 -0.0359 -0.2116  0.0819
   60SAPC  C314 4689   2.210   6.447   8.761  0.2069 -0.3996 -0.6145
   60SAPC  H14X 4690   2.229   6.374   8.843  1.1391 -0.6628 -1.0524
   60SAPC  H14Y 4691   2.309   6.479   8.721  0.5180  0.0939  0.5101
   60SAPC  C315 4692   2.140   6.376   8.653  0.1226  0.0787 -0.7637
   60SAPC  H15X 4693   2.089   6.448   8.586 -1.5307  1.4380  1.8112
   60SAPC  H15Y 4694   2.057   6.321   8.701  0.4734  0.8693  0.8237
   60SAPC  C316 4695   2.223   6.276   8.566  0.5554  0.1300 -0.1621
   60SAPC  H16X 4696   2.272   6.213   8.643  4.4736  0.8161 -1.8214
   60SAPC  H16Y 4697   2.306   6.323   8.509 -0.4081 -1.3575 -2.9525
   60SAPC  C317 4698   2.142   6.204   8.460  0.2350 -0.1564  1.0939
   60SAPC  H17X 4699   2.075   6.278   8.412  2.5638  0.5242 -1.4233
   60SAPC  H17Y 4700   2.086   6.121   8.506 -0.4628  0.6328  1.6889
   60SAPC  C318 4701   2.221   6.146   8.342  0.0388  1.2169  0.0583
   60SAPC  H18X 4702   2.279   6.225   8.289 -0.2021 -0.2240 -2.5295
   60SAPC  H18Y 4703   2.162   6.103   8.258  1.5323  2.0583 -1.4965
   60SAPC  H18Z 4704   2.285   6.062   8.376 -2.1491 -0.8023 -0.5171
   61SAPC     N 4705   1.529   5.381  11.184 -0.3748 -0.3164 -0.0703
   61SAPC   C12 4706   1.556   5.231  11.167  0.0462  0.1838 -0.5639
   61SAPC  H12A 4707   1.469   5.185  11.211  1.9368 -1.1587  2.1217
   61SAPC  H12B 4708   1.630   5.197  11.239 -1.9206 -0.5192  1.2429
   61SAPC   C13 4709   1.651   5.470  11.163  0.2781  0.3417 -0.0917
   61SAPC  H13A 4710   1.728   5.471  11.240  1.1395  2.0522 -0.9006
   61SAPC  H13B 4711   1.704   5.454  11.071  0.6735  2.3934 -0.2836
   61SAPC  H13C 4712   1.609   5.569  11.154 -2.2308 -0.4322  1.9927
   61SAPC   C14 4713   1.436   5.424  11.071 -0.3630 -0.5148 -0.8026
   61SAPC  H14A 4714   1.347   5.363  11.069  0.6157 -2.2211  1.5517
   61SAPC  H14B 4715   1.417   5.530  11.070  1.5898 -0.1208 -0.3955
   61SAPC  H14C 4716   1.485   5.409  10.976 -1.7856 -2.3903 -1.2931
   61SAPC   C15 4717   1.461   5.411  11.313 -0.8226 -0.1963  0.2029
   61SAPC  H15A 4718   1.473   5.518  11.320  2.1502 -0.4316 -0.2273
   61SAPC  H15B 4719   1.355   5.392  11.303 -0.8131 -0.3089  0.3197
   61SAPC  H15C 4720   1.508   5.358  11.394  0.6115 -0.2615 -0.6440
   61SAPC   C11 4721   1.584   5.190  11.024 -0.1215  0.3292 -0.0612
   61SAPC  H11A 4722   1.493   5.210  10.963  1.0893  0.9216 -1.7551
   61SAPC  H11B 4723   1.585   5.079  11.022  1.4934  0.2832  1.1988
   61SAPC     P 4724   1.848   5.219  10.984 -0.7385 -0.1739 -0.8044
   61SAPC   O13 4725   1.908   5.343  11.031 -0.1438  0.2519 -0.7728
   61SAPC   O14 4726   1.861   5.099  11.068  0.3205 -0.6033 -0.0639
   61SAPC   O12 4727   1.697   5.251  10.962 -0.0222 -0.2442  0.3672
   61SAPC   O11 4728   1.893   5.184  10.841 -0.5563  0.5267 -0.7015
   61SAPC    C1 4729   1.865   5.051  10.799 -0.4341  0.7539 -0.3678
   61SAPC    HA 4730   1.914   4.973  10.860  3.0752  3.0825  0.1201
   61SAPC    HB 4731   1.754   5.044  10.788 -0.4831  1.1277 -0.1394
   61SAPC    C2 4732   1.917   5.019  10.656  0.1913 -0.4413  0.6072
   61SAPC    HS 4733   2.028   5.013  10.651  0.4536  3.2853 -1.1175
   61SAPC   O21 4734   1.873   5.118  10.557  0.4443  0.3486  0.1046
   61SAPC   C21 4735   1.965   5.162  10.466 -0.1813 -0.1105  0.0071
   61SAPC   O22 4736   2.083   5.141  10.476 -0.0918  0.1448  0.1265
   61SAPC   C22 4737   1.892   5.260  10.362  0.2189  0.4431  0.0331
   61SAPC   H2R 4738   1.800   5.221  10.313  0.0073 -0.2423  0.9564
   61SAPC   H2S 4739   1.862   5.347  10.424 -4.4060  0.4749 -1.8464
   61SAPC    C3 4740   1.864   4.886  10.604  0.7746  0.1232 -0.1414
   61SAPC    HX 4741   1.763   4.894  10.559  0.1861 -2.6540  0.5274
   61SAPC    HY 4742   1.865   4.821  10.694  1.1443  0.2066 -0.0815
   61SAPC   O31 4743   1.959   4.825  10.511  0.5760 -0.6881  0.0120
   61SAPC   C31 4744   1.932   4.821  10.383 -0.6375 -0.5208 -0.6423
   61SAPC   O32 4745   1.830   4.856  10.333 -0.5131  0.4179  0.5625
   61SAPC   C32 4746   2.063   4.763  10.318 -0.0058 -0.2995 -0.1775
   61SAPC   H2X 4747   2.095   4.675  10.378 -0.0940  0.0840  0.4479
   61SAPC   H2Y 4748   2.143   4.840  10.314 -1.0684  0.9739  1.4038
   61SAPC   C23 4749   1.982   5.294  10.237 -0.1104 -0.0748  0.0162
   61SAPC   H3R 4750   1.996   5.193  10.192  2.0450  0.2305 -0.1021
   61SAPC   H3S 4751   2.080   5.335  10.271 -0.7465  1.0624  0.5084
   61SAPC   C24 4752   1.920   5.395  10.145  0.5069  0.3281 -0.2562
   61SAPC   H4R 4753   2.003   5.436  10.084 -0.2409  2.3328  0.0016
   61SAPC   H4S 4754   1.886   5.474  10.215 -1.7071 -1.3678  0.7193
   61SAPC   C25 4755   1.800   5.363  10.060 -0.5293 -0.4589  0.2136
   61SAPC   H5R 4756   1.703   5.370  10.113 -0.9416  0.8606 -0.6536
   61SAPC   C26 4757   1.796   5.323   9.933  0.0597  0.4408 -0.5178
   61SAPC   H6R 4758   1.696   5.314   9.889 -0.2067  0.6192  0.0380
   61SAPC   C27 4759   1.914   5.286   9.843 -0.9126 -0.5442 -0.2175
   61SAPC   H7R 4760   1.888   5.217   9.760  0.2726  0.5876 -1.5916
   61SAPC   H7S 4761   1.999   5.232   9.891 -0.3039 -0.5044 -1.2196
   61SAPC   C28 4762   1.979   5.413   9.785  0.6258  0.5596 -0.2966
   61SAPC   H8R 4763   2.028   5.480   9.858 -0.6905  1.7815 -0.5150
   61SAPC   C29 4764   1.999   5.442   9.654 -0.7997  0.2387 -0.3100
   61SAPC   H9R 4765   2.063   5.529   9.633 -2.0549  1.2372 -0.1424
   61SAPC  C210 4766   1.967   5.364   9.533 -0.7146  0.2045 -0.2144
   61SAPC  H10R 4767   1.945   5.440   9.455  0.6750  1.7059  0.8007
   61SAPC  H10S 4768   1.874   5.305   9.551  0.5001 -2.4576 -1.9334
   61SAPC  C211 4769   2.075   5.264   9.509 -0.3201 -0.5829 -0.0778
   61SAPC  H11R 4770   2.118   5.211   9.595  1.1050 -0.3244 -0.6025
   61SAPC  C212 4771   2.110   5.234   9.386  0.1087  0.5142  0.1481
   61SAPC  H12R 4772   2.185   5.156   9.367 -1.8611 -1.1049 -1.4828
   61SAPC  C213 4773   2.057   5.291   9.261  1.0615  0.7267 -0.4700
   61SAPC  H13R 4774   2.026   5.397   9.272 -1.0659 -0.0931  2.5817
   61SAPC  H13S 4775   1.957   5.244   9.246  0.7599  1.1301  0.2266
   61SAPC  C214 4776   2.152   5.267   9.143  0.3104 -0.2108 -0.3476
   61SAPC  H14R 4777   2.254   5.246   9.176 -0.0951 -1.1611  0.3203
   61SAPC  C215 4778   2.133   5.281   9.010  0.3109  0.5530  0.7498
   61SAPC  H15R 4779   2.217   5.261   8.942  0.7424  1.6935  0.9242
   61SAPC  C216 4780   2.008   5.319   8.940 -0.0105 -0.3510  0.3057
   61SAPC  H16R 4781   1.917   5.320   9.003  1.0214  2.6013  1.9560
   61SAPC  H16S 4782   1.989   5.237   8.867 -0.9836  0.7898 -0.7651
   61SAPC  C217 4783   2.014   5.451   8.871  0.0953  0.0906 -0.1457
   61SAPC  H17R 4784   2.104   5.468   8.808  2.6184 -0.7654  2.9507
   61SAPC  H17S 4785   2.005   5.538   8.940  1.2778  1.0409 -1.1600
   61SAPC  C218 4786   1.882   5.459   8.791  0.2616  0.3256  0.3002
   61SAPC  H18R 4787   1.803   5.505   8.853 -0.1613 -0.3783  0.2899
   61SAPC  H18S 4788   1.840   5.357   8.776  1.4430 -0.0773 -0.4233
   61SAPC  C219 4789   1.888   5.541   8.664  1.0134  0.1113 -0.8601
   61SAPC  H19R 4790   1.962   5.505   8.588  1.6882 -1.2587  0.3803
   61SAPC  H19S 4791   1.912   5.646   8.688  1.7306 -0.4767  1.1925
   61SAPC  C220 4792   1.751   5.543   8.598 -0.1558 -0.1113  0.1312
   61SAPC  H20R 4793   1.749   5.595   8.500 -0.4421  0.4947  0.4545
   61SAPC  H20S 4794   1.683   5.592   8.671  0.3397  0.3889  0.2633
   61SAPC  H20T 4795   1.703   5.443   8.590 -0.6941  0.1692 -0.2182
   61SAPC   C33 4796   2.033   4.710  10.174  0.1635 -0.4879  0.3813
   61SAPC   H3X 4797   1.934   4.660  10.163 -0.4954  0.7151  0.5576
   61SAPC   H3Y 4798   2.113   4.638  10.148  0.7271 -0.5261  2.0830
   61SAPC   C34 4799   2.048   4.816  10.066  0.7796  0.0602  0.1457
   61SAPC   H4X 4800   1.995   4.910  10.093 -1.2027 -0.5213 -1.4826
   61SAPC   H4Y 4801   2.010   4.775   9.969  1.1605  0.5233 -0.2056
   61SAPC   C35 4802   2.195   4.836  10.033 -0.2380 -0.0290  0.2742
   61SAPC   H5X 4803   2.226   4.747   9.975 -1.0214 -0.9845  1.2694
   61SAPC   H5Y 4804   2.244   4.846  10.132  0.6649 -0.2501 -0.1420
   61SAPC   C36 4805   2.220   4.962   9.954 -0.7100 -0.9339 -0.0237
   61SAPC   H6X 4806   2.331   4.956   9.943 -0.6723 -0.5761  0.1651
   61SAPC   H6Y 4807   2.197   5.051  10.016  2.1540 -0.4459  0.5230
   61SAPC   C37 4808   2.167   4.981   9.811  0.2360 -0.3199  0.0535
   61SAPC   H7X 4809   2.197   5.080   9.770 -0.9113  0.2889  0.6289
   61SAPC   H7Y 4810   2.057   4.992   9.822  0.1925 -0.4189 -0.3046
   61SAPC   C38 4811   2.197   4.870   9.711 -0.4420 -0.2457  0.0307
   61SAPC   H8X 4812   2.159   4.904   9.612  0.6896 -2.0905 -1.0921
   61SAPC   H8Y 4813   2.150   4.775   9.745  0.5714 -0.0864  2.0042
   61SAPC   C39 4814   2.349   4.849   9.692  0.6500 -0.1900  0.6581
   61SAPC   H9X 4815   2.389   4.801   9.784  0.0682 -1.3105  0.3447
   61SAPC   H9Y 4816   2.410   4.942   9.693 -0.1703  0.3708  1.8969
   61SAPC  C310 4817   2.382   4.750   9.573  0.7859 -0.6983  0.9155
   61SAPC  H10X 4818   2.319   4.660   9.589 -0.2720 -0.5489 -1.9738
   61SAPC  H10Y 4819   2.486   4.710   9.581  1.0341 -0.0108  1.2657
   61SAPC  C311 4820   2.345   4.803   9.440  0.3343  0.7064  0.7483
   61SAPC  H11X 4821   2.235   4.820   9.437  0.2312  0.2793  1.8394
   61SAPC  H11Y 4822   2.376   4.727   9.365 -0.4625  1.2534 -0.1720
   61SAPC  C312 4823   2.416   4.936   9.394  0.0674 -0.2097  0.4900
   61SAPC  H12X 4824   2.526   4.921   9.400  0.3457  1.7788  1.0008
   61SAPC  H12Y 4825   2.388   5.023   9.457  0.9273 -0.5857  1.4146
   61SAPC  C313 4826   2.377   4.972   9.241  0.9401  0.4878  0.6377
   61SAPC  H13X 4827   2.416   5.074   9.221 -0.5457  0.7720 -1.1119
   61SAPC  H13Y 4828   2.266   4.977   9.243  0.9327  0.4663  0.3014
   61SAPC  C314 4829   2.411   4.870   9.128  0.8819  0.4515  0.7644
   61SAPC  H14X 4830   2.356   4.775   9.145 -0.1494  0.4306 -2.1131
   61SAPC  H14Y 4831   2.521   4.854   9.128  1.0806  1.6927 -0.3584
   61SAPC  C315 4832   2.372   4.925   8.992  0.1868  0.3617  0.5309
   61SAPC  H15X 4833   2.412   5.026   8.972 -0.3010  0.4702  0.0858
   61SAPC  H15Y 4834   2.265   4.927   8.962 -0.3587 -3.3837  1.6300
   61SAPC  C316 4835   2.434   4.833   8.883 -0.3284 -0.1840  0.0111
   61SAPC  H16X 4836   2.401   4.732   8.918  0.5968  0.5331  3.3578
   61SAPC  H16Y 4837   2.544   4.833   8.895 -0.4394  0.8168  1.2814
   61SAPC  C317 4838   2.401   4.865   8.737  0.0542 -0.5433  0.4826
   61SAPC  H17X 4839   2.449   4.959   8.701 -1.7138  0.6521  1.1267
   61SAPC  H17Y 4840   2.294   4.892   8.734 -0.0697 -1.0529  0.3160
   61SAPC  C318 4841   2.432   4.757   8.631 -0.0582  0.1300 -0.1653
   61SAPC  H18X 4842   2.393   4.658   8.665  1.2610  0.6055  3.1538
   61SAPC  H18Y 4843   2.542   4.741   8.629 -0.0935 -0.9637  2.5450
   61SAPC  H18Z 4844   2.415   4.788   8.526  3.1844 -0.3642 -0.9378
   62SAPC     N 4845   0.790   4.346  10.721 -0.1091  0.4617  0.5556
   62SAPC   C12 4846   0.917   4.393  10.800 -0.0620 -0.0151  0.0461
   62SAPC  H12A 4847   0.914   4.354  10.901 -0.5405  1.0826  0.4660
   62SAPC  H12B 4848   0.898   4.498  10.817 -0.2412  0.0935 -0.7882
   62SAPC   C13 4849   0.791   4.194  10.690 -0.3284 -0.3719 -0.1809
   62SAPC  H13A 4850   0.798   4.135  10.780  1.1551 -1.4951 -0.9907
   62SAPC  H13B 4851   0.700   4.165  10.640 -0.9458  1.5789 -0.2817
   62SAPC  H13C 4852   0.876   4.179  10.625 -0.1185  0.0025  0.0020
   62SAPC   C14 4853   0.671   4.376  10.803 -0.0463 -0.1109  0.5338
   62SAPC  H14A 4854   0.663   4.480  10.832  1.0273  0.4346 -1.0500
   62SAPC  H14B 4855   0.580   4.336  10.761 -1.3080  2.2861  0.7903
   62SAPC  H14C 4856   0.675   4.327  10.900 -3.1631 -2.5027 -0.3473
   62SAPC   C15 4857   0.793   4.420  10.593  0.2940  0.0106 -0.9750
   62SAPC  H15A 4858   0.774   4.524  10.616  2.2992  0.2836 -0.4362
   62SAPC  H15B 4859   0.889   4.413  10.544  0.6487  0.7169 -0.3881
   62SAPC  H15C 4860   0.713   4.381  10.530  0.5552 -1.3521 -0.4949
   62SAPC   C11 4861   1.053   4.369  10.744 -1.4251 -0.1474  0.2822
   62SAPC  H11A 4862   1.054   4.265  10.706 -1.6109 -0.3334  0.7884
   62SAPC  H11B 4863   1.130   4.385  10.822 -0.0944 -1.6053 -0.6630
   62SAPC     P 4864   1.125   4.601  10.652  0.1199 -0.0753  0.0759
   62SAPC   O13 4865   1.025   4.695  10.722  0.1507  0.6095 -0.5757
   62SAPC   O14 4866   1.263   4.586  10.707 -0.1652  0.1571 -0.0979
   62SAPC   O12 4867   1.067   4.458  10.635 -0.1852  0.0267  0.3606
   62SAPC   O11 4868   1.125   4.649  10.502 -0.5955  0.5085 -0.1920
   62SAPC    C1 4869   1.225   4.596  10.412  0.9998  0.2590 -0.6087
   62SAPC    HA 4870   1.322   4.630  10.453  0.7696 -0.1964  0.3306
   62SAPC    HB 4871   1.223   4.485  10.412 -0.5020  0.2602  0.3856
   62SAPC    C2 4872   1.206   4.661  10.266  0.5194 -0.2686 -0.7306
   62SAPC    HS 4873   1.223   4.771  10.266 -2.2381  0.2499 -2.2507
   62SAPC   O21 4874   1.070   4.634  10.221  0.5052 -0.9140  0.4171
   62SAPC   C21 4875   1.025   4.715  10.122  0.9137  0.6548  0.2707
   62SAPC   O22 4876   1.072   4.822  10.091  0.4405  0.4289  0.2992
   62SAPC   C22 4877   0.912   4.642  10.048  0.2438  0.1053 -0.3538
   62SAPC   H2R 4878   0.941   4.537  10.025  1.1264  0.2559  0.0651
   62SAPC   H2S 4879   0.815   4.640  10.102  0.1370 -1.0488 -0.5578
   62SAPC    C3 4880   1.296   4.584  10.174 -0.2460  0.5619  0.3275
   62SAPC    HX 4881   1.264   4.478  10.178 -0.9918  0.8105  1.3468
   62SAPC    HY 4882   1.405   4.581  10.196  0.2898 -1.0992 -2.2053
   62SAPC   O31 4883   1.280   4.621  10.038  0.1930 -0.5953 -0.1740
   62SAPC   C31 4884   1.344   4.545   9.941 -0.2280 -0.4754 -0.1727
   62SAPC   O32 4885   1.399   4.443   9.971 -0.6152  0.3251 -0.0525
   62SAPC   C32 4886   1.329   4.613   9.804  0.0962 -0.0249  0.4589
   62SAPC   H2X 4887   1.339   4.723   9.808 -1.3348  0.1904 -0.9378
   62SAPC   H2Y 4888   1.229   4.582   9.767  1.0622  0.7359 -3.1683
   62SAPC   C23 4889   0.869   4.716   9.919 -0.3373 -0.1845  0.2519
   62SAPC   H3R 4890   0.820   4.815   9.931  0.7955  0.5710 -0.9962
   62SAPC   H3S 4891   0.786   4.660   9.871  0.8742 -1.1814 -0.7613
   62SAPC   C24 4892   0.984   4.736   9.814 -0.1415  0.1926  0.7950
   62SAPC   H4R 4893   0.986   4.637   9.764  3.5762  0.5283  0.0504
   62SAPC   H4S 4894   1.078   4.759   9.868  0.7702  0.4061 -0.8086
   62SAPC   C25 4895   0.942   4.856   9.736 -0.3527  0.1993  0.4081
   62SAPC   H5R 4896   0.967   4.956   9.773 -2.0282  1.8702 -2.5524
   62SAPC   C26 4897   0.873   4.853   9.619 -0.4371  1.4735 -0.1942
   62SAPC   H6R 4898   0.861   4.944   9.559 -0.4254  1.0097 -0.9250
   62SAPC   C27 4899   0.841   4.722   9.545 -0.1080  0.0797 -0.9880
   62SAPC   H7R 4900   0.744   4.685   9.582  0.7161 -1.1030  0.0613
   62SAPC   H7S 4901   0.922   4.648   9.563  0.3803  0.3155 -2.0965
   62SAPC   C28 4902   0.834   4.746   9.392 -0.6957 -0.4527  0.1415
   62SAPC   H8R 4903   0.739   4.788   9.358  0.0587  0.7958 -0.5140
   62SAPC   C29 4904   0.916   4.690   9.296  0.1542  0.7649 -0.0541
   62SAPC   H9R 4905   0.890   4.718   9.193  4.9924 -0.5937 -1.9072
   62SAPC  C210 4906   1.030   4.591   9.308  0.2915 -0.8801 -0.5188
   62SAPC  H10R 4907   0.993   4.487   9.294  1.4482 -1.0902 -2.3161
   62SAPC  H10S 4908   1.078   4.597   9.408  1.9345 -1.7722 -1.2186
   62SAPC  C211 4909   1.140   4.625   9.207 -0.6474  0.5135  0.3239
   62SAPC  H11R 4910   1.225   4.685   9.243  0.2620  0.7622 -2.0918
   62SAPC  C212 4911   1.157   4.581   9.080 -0.4349  0.5671 -0.3258
   62SAPC  H12R 4912   1.243   4.607   9.017  0.2502  0.4176  0.5224
   62SAPC  C213 4913   1.063   4.489   9.010 -0.3211  0.0831  0.2216
   62SAPC  H13R 4914   0.983   4.554   8.969  0.1606  1.2772  1.1087
   62SAPC  H13S 4915   1.018   4.430   9.093  3.8930 -0.0043  2.7134
   62SAPC  C214 4916   1.124   4.400   8.906 -0.4670 -0.1501  0.4388
   62SAPC  H14R 4917   1.202   4.333   8.947  1.3747  1.1988 -0.7100
   62SAPC  C215 4918   1.080   4.379   8.780 -0.0544 -0.5808 -0.7397
   62SAPC  H15R 4919   1.134   4.298   8.728  1.6020  0.9163 -1.4318
   62SAPC  C216 4920   0.981   4.456   8.705  0.4910  0.3549  0.1889
   62SAPC  H16R 4921   1.010   4.478   8.600  1.0178  2.2473  0.6911
   62SAPC  H16S 4922   0.955   4.558   8.741 -3.7445 -0.3801 -0.2393
   62SAPC  C217 4923   0.854   4.378   8.722  1.0148 -0.4437 -0.4361
   62SAPC  H17R 4924   0.817   4.390   8.826 -2.1910  1.5251 -1.6467
   62SAPC  H17S 4925   0.859   4.271   8.694  0.9463  0.1485 -2.9146
   62SAPC  C218 4926   0.748   4.423   8.621  0.1533  0.2356 -0.0790
   62SAPC  H18R 4927   0.806   4.453   8.530  0.9769 -0.3949  0.2244
   62SAPC  H18S 4928   0.702   4.516   8.659  1.1954  0.5894  0.3461
   62SAPC  C219 4929   0.642   4.317   8.581  0.0455 -0.8398 -0.7593
   62SAPC  H19R 4930   0.705   4.230   8.552 -0.5537 -1.2247 -0.9253
   62SAPC  H19S 4931   0.574   4.343   8.497 -0.9756 -0.4906  0.1560
   62SAPC  C220 4932   0.549   4.279   8.697  0.2315  0.4165 -0.1247
   62SAPC  H20R 4933   0.469   4.355   8.706 -1.7684 -1.7174  1.7912
   62SAPC  H20S 4934   0.605   4.262   8.792  1.3061 -0.3157 -0.8586
   62SAPC  H20T 4935   0.487   4.191   8.670 -0.4510  0.5775  0.8659
   62SAPC   C33 4936   1.428   4.554   9.698  0.5824 -0.2478  0.3777
   62SAPC   H3X 4937   1.468   4.453   9.722 -0.0909 -0.2142  1.7649
   62SAPC   H3Y 4938   1.515   4.623   9.706  0.3730  0.0676 -0.0216
   62SAPC   C34 4939   1.377   4.551   9.550  0.1036 -0.1420  0.1906
   62SAPC   H4X 4940   1.326   4.647   9.525 -2.1865 -2.1417 -3.6542
   62SAPC   H4Y 4941   1.303   4.469   9.544 -1.7575  1.4935 -0.7849
   62SAPC   C35 4942   1.485   4.528   9.449  0.2708 -0.2906 -0.1475
   62SAPC   H5X 4943   1.560   4.610   9.458 -0.0076  0.0460 -0.8383
   62SAPC   H5Y 4944   1.440   4.533   9.348  0.7111 -0.6678 -0.3691
   62SAPC   C36 4945   1.549   4.386   9.452  0.3228 -0.0738 -0.3561
   62SAPC   H6X 4946   1.463   4.316   9.452  0.3688 -0.1307  0.0506
   62SAPC   H6Y 4947   1.601   4.365   9.548 -0.6987  0.4100  0.3121
   62SAPC   C37 4948   1.651   4.366   9.335 -0.8217  0.1095  0.1362
   62SAPC   H7X 4949   1.706   4.273   9.362 -0.2916  1.0107  2.4643
   62SAPC   H7Y 4950   1.716   4.456   9.335  0.2936 -0.5924 -2.6075
   62SAPC   C38 4951   1.585   4.361   9.198  0.0369  0.3858 -0.8149
   62SAPC   H8X 4952   1.543   4.462   9.179  0.2118  0.7847  0.7640
   62SAPC   H8Y 4953   1.506   4.287   9.222  0.3268  0.6493  1.1335
   62SAPC   C39 4954   1.683   4.313   9.087 -0.5392 -0.6664  0.5906
   62SAPC   H9X 4955   1.707   4.205   9.093 -0.3863 -0.7086 -0.5086
   62SAPC   H9Y 4956   1.773   4.378   9.096 -1.1627  0.5603 -1.3263
   62SAPC  C310 4957   1.624   4.323   8.938  0.0225 -0.1223 -0.4255
   62SAPC  H10X 4958   1.699   4.274   8.871 -0.3880  1.1749 -1.8769
   62SAPC  H10Y 4959   1.622   4.432   8.917 -0.4527  0.0534  0.4930
   62SAPC  C311 4960   1.485   4.264   8.927 -0.6048 -0.2476 -0.6221
   62SAPC  H11X 4961   1.410   4.330   8.976 -0.8621 -2.4356  2.1759
   62SAPC  H11Y 4962   1.478   4.168   8.981 -3.5335 -0.0748 -0.5368
   62SAPC  C312 4963   1.440   4.252   8.780  0.6319  0.8457 -0.2713
   62SAPC  H12X 4964   1.333   4.223   8.771  0.7840  0.3551 -0.5141
   62SAPC  H12Y 4965   1.488   4.165   8.730 -1.2564 -0.1269 -0.4810
   62SAPC  C313 4966   1.449   4.385   8.705  0.1703  0.3674 -0.4703
   62SAPC  H13X 4967   1.556   4.412   8.690  0.8734 -1.2879  1.1301
   62SAPC  H13Y 4968   1.401   4.470   8.759 -0.0087 -0.5264  0.8305
   62SAPC  C314 4969   1.381   4.383   8.560  0.1155 -0.3297  0.1366
   62SAPC  H14X 4970   1.276   4.345   8.563 -0.1551  0.4822  2.6904
   62SAPC  H14Y 4971   1.444   4.306   8.509 -1.5498 -1.9817  0.4367
   62SAPC  C315 4972   1.389   4.524   8.516  0.7465  0.0518  0.0716
   62SAPC  H15X 4973   1.496   4.549   8.527  0.9736 -0.4183 -1.0079
   62SAPC  H15Y 4974   1.333   4.591   8.586  2.2487 -0.0518  1.4245
   62SAPC  C316 4975   1.344   4.541   8.368  0.4224  0.3442  0.0505
   62SAPC  H16X 4976   1.398   4.478   8.295 -1.9162 -2.0518  0.2736
   62SAPC  H16Y 4977   1.371   4.643   8.333 -0.8487  0.3964 -0.8248
   62SAPC  C317 4978   1.197   4.522   8.354  0.7007 -0.0210 -0.0968
   62SAPC  H17X 4979   1.164   4.438   8.420  3.6229 -2.0875 -1.0725
   62SAPC  H17Y 4980   1.159   4.490   8.254 -0.4564 -1.3623  0.7266
   62SAPC  C318 4981   1.112   4.644   8.396 -0.3071  0.2921 -0.2562
   62SAPC  H18X 4982   1.004   4.622   8.379 -0.0256  0.5915 -2.8345
   62SAPC  H18Y 4983   1.129   4.731   8.329 -1.1150  0.2938 -0.4740
   62SAPC  H18Z 4984   1.145   4.665   8.500  2.2487 -1.8396 -0.5547
   63SAPC     N 4985   5.918   3.777   6.363  0.4913 -0.8035  0.2478
   63SAPC   C12 4986   5.997   3.852   6.460  0.7418  0.4282 -0.7528
   63SAPC  H12A 4987   6.098   3.859   6.423  2.3420  0.0325  3.0316
   63SAPC  H12B 4988   6.006   3.791   6.549  0.3159  0.8841 -0.3962
   63SAPC   C13 4989   5.994   3.658   6.317 -0.3466 -0.7625  0.3914
   63SAPC  H13A 4990   6.029   3.600   6.401 -2.6494 -1.0307  1.2586
   63SAPC  H13B 4991   5.929   3.615   6.242  0.3047  1.7167 -1.7237
   63SAPC  H13C 4992   6.077   3.692   6.257 -0.0409 -2.3377 -0.1443
   63SAPC   C14 4993   5.782   3.735   6.404  0.5207  0.4671  0.0343
   63SAPC  H14A 4994   5.721   3.820   6.433 -0.0118 -0.7736  2.8182
   63SAPC  H14B 4995   5.731   3.680   6.326  0.1296 -1.1108  1.3491
   63SAPC  H14C 4996   5.782   3.675   6.494  0.6093 -1.1451 -0.9961
   63SAPC   C15 4997   5.899   3.865   6.240 -0.3246 -0.8759  0.5404
   63SAPC  H15A 4998   5.854   3.961   6.263  0.2800 -1.1816  3.3419
   63SAPC  H15B 4999   5.994   3.881   6.190 -0.5820  1.0880  0.5993
   63SAPC  H15C 5000   5.841   3.821   6.160  0.4757  0.4431 -0.8334
   63SAPC   C11 5001   5.947   3.994   6.490  0.3836  1.1460 -0.0844
   63SAPC  H11A 5002   5.962   4.007   6.599  0.6075 -0.4794  0.0906
   63SAPC  H11B 5003   5.836   3.989   6.482  0.4310  1.6790 -1.3422
   63SAPC     P 5004   6.150   4.138   6.427  0.0306 -0.1720 -0.0136
   63SAPC   O13 5005   6.231   4.011   6.425  0.1599 -0.3312 -0.3384
   63SAPC   O14 5006   6.178   4.246   6.331 -0.1657  0.2360  0.2637
   63SAPC   O12 5007   6.001   4.095   6.409  0.0602  0.1179 -0.3777
   63SAPC   O11 5008   6.126   4.195   6.577 -0.3882 -0.8088  0.0201
   63SAPC    C1 5009   6.021   4.288   6.600  0.1555  0.3762  0.5031
   63SAPC    HA 5010   6.042   4.389   6.558 -2.5165  0.8504  0.0693
   63SAPC    HB 5011   5.920   4.253   6.569  0.6678 -0.2931 -0.4640
   63SAPC    C2 5012   6.009   4.309   6.757 -0.2408  0.0928  0.0961
   63SAPC    HS 5013   6.115   4.300   6.792  0.4099  2.0658 -1.2084
   63SAPC   O21 5014   5.910   4.217   6.805 -0.2631  0.5494  0.2347
   63SAPC   C21 5015   5.967   4.100   6.834  0.3748  0.6169 -0.1267
   63SAPC   O22 5016   6.083   4.077   6.839  0.5504  0.1834  0.1729
   63SAPC   C22 5017   5.847   4.003   6.875  0.2758 -0.5237  0.7205
   63SAPC   H2R 5018   5.755   4.056   6.906 -1.4278 -2.8581 -0.0947
   63SAPC   H2S 5019   5.818   3.944   6.785  2.3990 -2.6744  1.3222
   63SAPC    C3 5020   5.961   4.452   6.795 -0.7654 -0.8813  0.2914
   63SAPC    HX 5021   5.863   4.458   6.743 -0.8592 -1.1306  0.4382
   63SAPC    HY 5022   6.038   4.524   6.761  1.1234 -0.8598  4.1133
   63SAPC   O31 5023   5.931   4.465   6.934 -0.2811 -0.0285 -0.3093
   63SAPC   C31 5024   6.036   4.443   7.013  0.4503  0.0421 -0.1619
   63SAPC   O32 5025   6.153   4.442   6.984  0.8388  0.1666 -0.2302
   63SAPC   C32 5026   5.994   4.429   7.160  0.1074  0.5975  0.2864
   63SAPC   H2X 5027   5.997   4.320   7.182 -0.9166  0.1039 -1.7873
   63SAPC   H2Y 5028   5.891   4.465   7.180 -0.7032 -1.9321  1.0464
   63SAPC   C23 5029   5.888   3.905   6.988  0.2677 -0.0249  0.1155
   63SAPC   H3R 5030   5.987   3.860   6.964  1.0525  1.2637  0.8594
   63SAPC   H3S 5031   5.802   3.835   6.994 -0.2588  0.6820  1.2559
   63SAPC   C24 5032   5.902   3.973   7.124  0.2963 -0.8427 -0.6813
   63SAPC   H4R 5033   5.830   4.056   7.141 -1.5478 -2.6605  1.0979
   63SAPC   H4S 5034   6.004   4.016   7.130 -0.0328 -0.2570  1.5022
   63SAPC   C25 5035   5.902   3.882   7.246 -0.2916 -0.0313 -0.3568
   63SAPC   H5R 5036   5.933   3.784   7.207  0.9657  1.0428 -2.1932
   63SAPC   C26 5037   5.893   3.903   7.381 -0.2673 -0.5538 -0.6171
   63SAPC   H6R 5038   5.896   3.817   7.449  0.5389  0.2389  0.3768
   63SAPC   C27 5039   5.864   4.036   7.438  0.5795 -0.2772 -0.4485
   63SAPC   H7R 5040   5.786   4.018   7.514  0.6734 -1.0433 -0.5266
   63SAPC   H7S 5041   5.816   4.107   7.366  0.9810  0.8542  0.3631
   63SAPC   C28 5042   5.987   4.110   7.490  0.0257  0.0463 -0.1622
   63SAPC   H8R 5043   6.078   4.112   7.430  0.7923 -2.5556  0.7868
   63SAPC   C29 5044   5.986   4.173   7.614  0.4252 -0.1500 -0.3470
   63SAPC   H9R 5045   6.076   4.223   7.653 -0.3713  0.3344  0.9424
   63SAPC  C210 5046   5.876   4.180   7.717  0.0726  0.0626 -0.5010
   63SAPC  H10R 5047   5.870   4.085   7.774 -1.3231 -0.2583 -1.1404
   63SAPC  H10S 5048   5.776   4.192   7.670 -0.6540  2.7212  1.4482
   63SAPC  C211 5049   5.900   4.300   7.815 -0.3108  0.6025 -0.5061
   63SAPC  H11R 5050   5.932   4.389   7.758 -0.1435  0.5841 -0.4418
   63SAPC  C212 5051   5.903   4.301   7.953 -0.4109  0.3271  0.1964
   63SAPC  H12R 5052   5.932   4.395   8.003  2.9693 -0.1224 -0.7088
   63SAPC  C213 5053   5.873   4.185   8.039 -0.0196  0.1153 -0.2413
   63SAPC  H13R 5054   5.877   4.093   7.976 -0.9328 -0.3837  0.3996
   63SAPC  H13S 5055   5.768   4.208   8.066 -0.0699 -1.3577  0.9736
   63SAPC  C214 5056   5.961   4.176   8.164  0.0411  0.2898 -0.1413
   63SAPC  H14R 5057   6.069   4.193   8.152  0.1187 -0.3056 -0.3077
   63SAPC  C215 5058   5.910   4.137   8.283 -0.3159  0.1536 -0.1822
   63SAPC  H15R 5059   5.979   4.135   8.368 -0.9144  0.9633  0.3386
   63SAPC  C216 5060   5.772   4.091   8.326 -0.0181 -0.2271  0.9135
   63SAPC  H16R 5061   5.702   4.097   8.239 -0.1152  0.4349  1.0347
   63SAPC  H16S 5062   5.731   4.160   8.403 -1.4369 -1.4577  1.3260
   63SAPC  C217 5063   5.764   3.950   8.375  0.3095 -0.1018  0.5694
   63SAPC  H17R 5064   5.796   3.887   8.289 -1.4290  0.4529 -0.5312
   63SAPC  H17S 5065   5.656   3.932   8.398  0.2869  1.2437  1.6487
   63SAPC  C218 5066   5.829   3.924   8.510 -0.1540 -0.7664  0.4354
   63SAPC  H18R 5067   5.810   4.013   8.573 -0.7091 -0.0951 -0.6500
   63SAPC  H18S 5068   5.939   3.914   8.494 -0.3410  0.6512 -2.4852
   63SAPC  C219 5069   5.803   3.789   8.574  0.1748  0.3654 -0.8420
   63SAPC  H19R 5070   5.830   3.702   8.510 -0.1025  1.1922 -2.1086
   63SAPC  H19S 5071   5.694   3.780   8.593  0.4341  0.2072  0.7471
   63SAPC  C220 5072   5.869   3.778   8.715  0.4279 -0.7489 -0.3929
   63SAPC  H20R 5073   5.830   3.861   8.778 -2.5170 -1.1415 -1.5608
   63SAPC  H20S 5074   5.979   3.796   8.716  0.4559 -0.9128 -0.4882
   63SAPC  H20T 5075   5.838   3.681   8.760 -0.7058 -0.3894 -0.3875
   63SAPC   C33 5076   6.089   4.491   7.263  0.7270 -0.3135  0.4023
   63SAPC   H3X 5077   6.034   4.506   7.358 -0.4021 -0.8580 -0.1448
   63SAPC   H3Y 5078   6.126   4.588   7.224 -0.0796 -0.5346 -0.9656
   63SAPC   C34 5079   6.205   4.398   7.295  0.3132  0.4901 -0.3814
   63SAPC   H4X 5080   6.237   4.342   7.204 -0.7156  0.6760 -0.8741
   63SAPC   H4Y 5081   6.166   4.313   7.355 -2.1475  0.9655 -1.1851
   63SAPC   C35 5082   6.316   4.462   7.375 -0.2160  0.6865  0.7853
   63SAPC   H5X 5083   6.345   4.547   7.310 -2.8844  1.0597 -0.0175
   63SAPC   H5Y 5084   6.406   4.396   7.378 -1.2624 -0.9141 -1.0708
   63SAPC   C36 5085   6.274   4.501   7.518  0.2414  0.3762  0.6095
   63SAPC   H6X 5086   6.248   4.412   7.579  3.1348 -1.2259 -0.2634
   63SAPC   H6Y 5087   6.194   4.577   7.503  0.1825 -0.0161 -1.4038
   63SAPC   C37 5088   6.393   4.574   7.586 -0.2250  0.8527  0.2434
   63SAPC   H7X 5089   6.412   4.670   7.534  4.5889 -0.3692 -0.7933
   63SAPC   H7Y 5090   6.482   4.513   7.561 -0.9187 -0.3768  0.6894
   63SAPC   C38 5091   6.385   4.589   7.733 -0.1021  0.0506 -0.2305
   63SAPC   H8X 5092   6.447   4.670   7.778 -0.0241 -0.2062  0.1360
   63SAPC   H8Y 5093   6.415   4.495   7.784  0.7482  0.8187  0.7393
   63SAPC   C39 5094   6.243   4.618   7.768  0.6357 -0.1792 -0.3345
   63SAPC   H9X 5095   6.182   4.527   7.751 -0.8767  0.5594  0.9122
   63SAPC   H9Y 5096   6.211   4.700   7.700  2.1327 -1.1455 -2.3003
   63SAPC  C310 5097   6.215   4.669   7.923 -0.2356 -0.2035  0.3334
   63SAPC  H10X 5098   6.106   4.677   7.940 -0.5601 -1.0575 -1.1397
   63SAPC  H10Y 5099   6.276   4.761   7.923  0.4149 -0.6031 -1.2420
   63SAPC  C311 5100   6.271   4.566   8.023 -0.2940 -0.0957  0.0114
   63SAPC  H11X 5101   6.373   4.528   8.002 -0.1029  1.3444 -1.8334
   63SAPC  H11Y 5102   6.206   4.482   8.056  1.2311 -0.8582  1.2225
   63SAPC  C312 5103   6.326   4.647   8.145  0.3602 -0.2852  0.4700
   63SAPC  H12X 5104   6.394   4.729   8.116 -0.4215  0.8736  1.7746
   63SAPC  H12Y 5105   6.394   4.579   8.201  0.8931 -1.6641 -1.7115
   63SAPC  C313 5106   6.215   4.689   8.237  0.6629  0.9513  0.0217
   63SAPC  H13X 5107   6.144   4.749   8.177 -0.6913  0.4016  1.0201
   63SAPC  H13Y 5108   6.252   4.756   8.317 -0.4262  0.1376  1.2487
   63SAPC  C314 5109   6.156   4.570   8.318 -0.4303 -0.5183 -0.1422
   63SAPC  H14X 5110   6.236   4.519   8.377 -0.5539  0.6026  1.0456
   63SAPC  H14Y 5111   6.112   4.498   8.246 -0.4792 -2.2698  1.5330
   63SAPC  C315 5112   6.036   4.592   8.413 -0.2660  0.5990  0.7422
   63SAPC  H15X 5113   5.993   4.499   8.457 -0.0181 -0.7613 -1.7059
   63SAPC  H15Y 5114   5.952   4.629   8.351  0.6139  0.2907 -0.6896
   63SAPC  C316 5115   6.058   4.696   8.523  0.3224  0.3289 -0.6636
   63SAPC  H16X 5116   6.093   4.790   8.475  1.3531  1.4226  2.0110
   63SAPC  H16Y 5117   6.141   4.653   8.583  0.1427 -1.0787 -1.3779
   63SAPC  C317 5118   5.932   4.728   8.609  0.6907  1.1527  0.2541
   63SAPC  H17X 5119   5.882   4.637   8.651 -1.3250  2.0592 -0.0664
   63SAPC  H17Y 5120   5.864   4.785   8.543  1.1555 -0.9576 -2.2113
   63SAPC  C318 5121   5.949   4.811   8.732  0.1792  0.3296 -0.2137
   63SAPC  H18X 5122   5.982   4.912   8.701  0.1300  0.3552 -0.1804
   63SAPC  H18Y 5123   6.020   4.769   8.807  2.1867  1.3951 -1.4378
   63SAPC  H18Z 5124   5.853   4.821   8.786  0.4634  2.3562 -0.0282
   64SAPC     N 5125   3.082   3.883   6.194 -0.0285 -0.2379 -0.1255
   64SAPC   C12 5126   3.108   3.736   6.207 -0.1180 -0.0328  0.1600
   64SAPC  H12A 5127   3.207   3.728   6.249  0.1232  0.6714 -0.2488
   64SAPC  H12B 5128   3.109   3.696   6.107 -0.0854  1.1212 -0.3220
   64SAPC   C13 5129   3.084   3.945   6.337 -0.2484 -0.3332  0.3059
   64SAPC  H13A 5130   3.089   4.052   6.329 -1.6943 -0.2650  0.0159
   64SAPC  H13B 5131   2.985   3.934   6.379 -0.5136  1.0257  0.0798
   64SAPC  H13C 5132   3.164   3.909   6.399  4.3775  5.2424 -1.5906
   64SAPC   C14 5133   3.187   3.947   6.123  0.3594 -0.0990 -0.0486
   64SAPC  H14A 5134   3.176   4.054   6.116 -2.3696 -0.4383 -2.8305
   64SAPC  H14B 5135   3.280   3.919   6.172 -0.0272 -1.5958 -0.1038
   64SAPC  H14C 5136   3.179   3.909   6.022  2.5302  1.2915 -0.8167
   64SAPC   C15 5137   2.947   3.913   6.136  0.2973  0.0245 -0.0345
   64SAPC  H15A 5138   2.937   3.858   6.044 -1.2692  0.6760 -0.2912
   64SAPC  H15B 5139   2.864   3.875   6.195  1.5077  0.8732  2.3153
   64SAPC  H15C 5140   2.931   4.017   6.112  0.4040 -0.1478 -0.8648
   64SAPC   C11 5141   3.001   3.654   6.290  0.5818  0.0896  0.2146
   64SAPC  H11A 5142   2.989   3.706   6.388  3.2444  1.7987 -0.2691
   64SAPC  H11B 5143   3.041   3.551   6.305 -2.0150 -0.8770  1.1420
   64SAPC     P 5144   2.830   3.548   6.120  0.2802  0.4388  0.1180
   64SAPC   O13 5145   2.696   3.596   6.075  0.1325  0.5733  0.3154
   64SAPC   O14 5146   2.943   3.541   6.029  0.6656 -0.2503 -0.2362
   64SAPC   O12 5147   2.868   3.643   6.234 -0.0804  0.1207 -0.0120
   64SAPC   O11 5148   2.811   3.407   6.195  0.4581 -0.4857 -0.6488
   64SAPC    C1 5149   2.689   3.389   6.271 -0.1660  0.0204  0.1261
   64SAPC    HA 5150   2.608   3.464   6.256  2.1296  3.0983  1.9915
   64SAPC    HB 5151   2.643   3.291   6.245  1.9305 -1.4383  1.5713
   64SAPC    C2 5152   2.721   3.401   6.421  0.1092 -0.4820  0.4414
   64SAPC    HS 5153   2.742   3.505   6.455  1.1910 -0.0332 -1.4696
   64SAPC   O21 5154   2.832   3.318   6.458  0.1438  0.0991 -0.2284
   64SAPC   C21 5155   2.918   3.378   6.543  0.1244 -0.3310 -0.2079
   64SAPC   O22 5156   2.891   3.485   6.599 -0.0595  0.2736  0.1279
   64SAPC   C22 5157   3.040   3.298   6.553  0.2098  0.2566  0.9697
   64SAPC   H2R 5158   3.008   3.194   6.576 -0.4236 -0.0859 -1.2218
   64SAPC   H2S 5159   3.097   3.296   6.457 -0.2808  0.3781  0.6719
   64SAPC    C3 5160   2.602   3.345   6.501 -0.4922 -0.4542 -0.1831
   64SAPC    HX 5161   2.593   3.236   6.480 -0.7633 -0.0879 -2.1944
   64SAPC    HY 5162   2.508   3.392   6.466 -0.4019  1.1821  1.6289
   64SAPC   O31 5163   2.610   3.364   6.642  0.2816 -0.0018  0.4528
   64SAPC   C31 5164   2.550   3.476   6.686 -0.1303 -0.4811  0.5614
   64SAPC   O32 5165   2.478   3.553   6.617  0.2942  0.2315 -0.8026
   64SAPC   C32 5166   2.593   3.505   6.824  0.7472  0.1616 -0.4157
   64SAPC   H2X 5167   2.695   3.468   6.848 -0.1520 -1.6226  0.9139
   64SAPC   H2Y 5168   2.521   3.456   6.894  0.2868 -1.3040 -1.8567
   64SAPC   C23 5169   3.126   3.345   6.672 -0.1126 -0.0695 -0.3904
   64SAPC   H3R 5170   3.146   3.454   6.660 -1.3850  0.2506  0.2293
   64SAPC   H3S 5171   3.223   3.294   6.657 -1.4939 -2.6671 -1.1535
   64SAPC   C24 5172   3.060   3.310   6.805 -0.3667 -0.4598 -0.0656
   64SAPC   H4R 5173   3.011   3.210   6.811  0.8157 -0.9865  3.6220
   64SAPC   H4S 5174   2.977   3.379   6.831 -0.5388 -0.6409 -0.1330
   64SAPC   C25 5175   3.161   3.318   6.917  0.1156  0.0464 -0.4809
   64SAPC   H5R 5176   3.255   3.263   6.900  1.0558  1.5529 -0.2805
   64SAPC   C26 5177   3.139   3.388   7.034  0.3747 -1.2289 -0.0227
   64SAPC   H6R 5178   3.222   3.396   7.106 -0.3922  0.5243  0.7321
   64SAPC   C27 5179   3.018   3.479   7.070 -0.3752 -0.2448 -0.0128
   64SAPC   H7R 5180   2.988   3.447   7.172 -0.4400  1.9252  0.7089
   64SAPC   H7S 5181   2.930   3.473   7.003 -0.3501  0.9841 -0.1821
   64SAPC   C28 5182   3.077   3.620   7.080  0.2321  0.9223  0.2158
   64SAPC   H8R 5183   3.066   3.678   6.987  2.5668  1.3824  0.1560
   64SAPC   C29 5184   3.124   3.680   7.191 -0.1443 -0.3533 -0.0518
   64SAPC   H9R 5185   3.173   3.778   7.182 -0.0276 -0.4819 -0.8480
   64SAPC  C210 5186   3.124   3.617   7.328 -0.0642 -0.0265 -0.2215
   64SAPC  H10R 5187   3.187   3.687   7.386 -0.1859  1.0720 -1.3771
   64SAPC  H10S 5188   3.167   3.515   7.330 -2.4380 -1.1029  1.7752
   64SAPC  C211 5189   2.991   3.615   7.398 -0.4290  0.4228  0.6067
   64SAPC  H11R 5190   2.906   3.592   7.333 -0.6812 -3.8743  2.0906
   64SAPC  C212 5191   2.970   3.619   7.531 -0.0882 -0.2182  0.1840
   64SAPC  H12R 5192   2.868   3.633   7.570 -0.4840  2.6763 -1.6375
   64SAPC  C213 5193   3.082   3.633   7.634  0.2546  0.3881 -0.4292
   64SAPC  H13R 5194   3.060   3.710   7.711 -1.0182 -0.1644 -0.2120
   64SAPC  H13S 5195   3.174   3.678   7.592  1.0521  0.4652  1.3474
   64SAPC  C214 5196   3.114   3.508   7.710 -0.2486  0.1790  0.6857
   64SAPC  H14R 5197   3.169   3.429   7.656  1.7623  0.1664  2.6169
   64SAPC  C215 5198   3.092   3.482   7.841 -0.5068  0.0448 -0.0769
   64SAPC  H15R 5199   3.109   3.383   7.885 -0.2564  0.2820  0.3789
   64SAPC  C216 5200   3.016   3.576   7.930 -0.2786 -0.2284  0.1059
   64SAPC  H16R 5201   2.965   3.664   7.885 -0.6973 -0.1210  0.7794
   64SAPC  H16S 5202   3.094   3.616   7.997  1.9510 -1.3127 -1.6859
   64SAPC  C217 5203   2.921   3.517   8.035 -0.3903  0.7396 -0.8890
   64SAPC  H17R 5204   2.976   3.438   8.091  1.2534  1.9652 -0.7073
   64SAPC  H17S 5205   2.822   3.484   7.998 -0.7916 -1.5845  1.8736
   64SAPC  C218 5206   2.893   3.631   8.136  0.0265  0.2790 -0.2534
   64SAPC  H18R 5207   2.854   3.714   8.074  1.0237 -0.6317 -2.1956
   64SAPC  H18S 5208   2.981   3.666   8.195 -2.0145  1.4885  2.2596
   64SAPC  C219 5209   2.785   3.586   8.237  0.0079 -0.2885  0.3679
   64SAPC  H19R 5210   2.801   3.484   8.279 -0.5578 -1.3495 -1.8063
   64SAPC  H19S 5211   2.693   3.571   8.177  0.5906  2.0414 -1.2461
   64SAPC  C220 5212   2.754   3.696   8.344  0.3317 -0.5662 -0.1071
   64SAPC  H20R 5213   2.646   3.683   8.369  0.5648 -1.1442  0.6356
   64SAPC  H20S 5214   2.771   3.804   8.326 -2.4095 -0.2703 -1.4626
   64SAPC  H20T 5215   2.817   3.672   8.432  0.2487  0.1541  0.1543
   64SAPC   C33 5216   2.587   3.656   6.856  0.3930 -0.1951 -0.4496
   64SAPC   H3X 5217   2.482   3.695   6.857  0.1928 -0.6362  2.1746
   64SAPC   H3Y 5218   2.642   3.711   6.777  0.7692  1.3484  0.8535
   64SAPC   C34 5219   2.658   3.690   6.989 -0.1637  0.0444  0.7081
   64SAPC   H4X 5220   2.655   3.801   6.999 -1.6103 -0.1171  2.6628
   64SAPC   H4Y 5221   2.763   3.655   6.989  0.4565  1.7740  1.4463
   64SAPC   C35 5222   2.568   3.648   7.104 -0.8432 -0.7002  0.0487
   64SAPC   H5X 5223   2.568   3.537   7.099 -2.4441 -0.9115  2.7459
   64SAPC   H5Y 5224   2.461   3.677   7.091 -1.2556 -0.5599  3.0324
   64SAPC   C36 5225   2.625   3.709   7.236  0.1908 -0.3272 -0.4388
   64SAPC   H6X 5226   2.638   3.819   7.224 -1.2647 -0.3388 -2.7871
   64SAPC   H6Y 5227   2.726   3.667   7.257  0.1140 -0.4083 -0.2297
   64SAPC   C37 5228   2.534   3.670   7.357 -0.3901  0.3964  0.3720
   64SAPC   H7X 5229   2.510   3.561   7.350  1.3406  0.0485 -0.7324
   64SAPC   H7Y 5230   2.436   3.720   7.339 -1.1448 -1.1697 -0.1352
   64SAPC   C38 5231   2.587   3.720   7.491  0.5265 -0.6123  0.1034
   64SAPC   H8X 5232   2.595   3.830   7.491 -0.6675 -0.4837 -1.5205
   64SAPC   H8Y 5233   2.690   3.676   7.497  1.4711  1.3112 -1.1426
   64SAPC   C39 5234   2.505   3.679   7.604  0.1005 -0.0113  0.5470
   64SAPC   H9X 5235   2.505   3.568   7.608  1.6637 -0.0532 -0.1031
   64SAPC   H9Y 5236   2.397   3.703   7.586 -0.2521 -2.5296 -1.2967
   64SAPC  C310 5237   2.566   3.737   7.736 -0.3442  1.2047 -0.3937
   64SAPC  H10X 5238   2.565   3.848   7.739  2.1104  1.2817 -0.6344
   64SAPC  H10Y 5239   2.671   3.703   7.731 -0.3102  0.4081  3.2497
   64SAPC  C311 5240   2.489   3.675   7.853 -0.4615 -1.3558 -0.0765
   64SAPC  H11X 5241   2.490   3.564   7.854  1.3106 -1.4767  4.0051
   64SAPC  H11Y 5242   2.385   3.692   7.816  0.3343 -1.4790 -2.4894
   64SAPC  C312 5243   2.512   3.728   7.995 -0.5771  0.0154 -0.0480
   64SAPC  H12X 5244   2.506   3.839   7.990  3.6564  0.4101 -0.1449
   64SAPC  H12Y 5245   2.615   3.716   8.035 -1.1203  0.8553  1.7015
   64SAPC  C313 5246   2.411   3.678   8.098  0.0866  1.0417 -0.9225
   64SAPC  H13X 5247   2.443   3.703   8.201 -0.8320  0.9612 -0.6017
   64SAPC  H13Y 5248   2.409   3.568   8.087 -0.8108  1.2432 -3.2943
   64SAPC  C314 5249   2.267   3.737   8.085  0.4974 -0.0489 -0.2237
   64SAPC  H14X 5250   2.220   3.704   7.990  0.0692 -0.9189  0.2796
   64SAPC  H14Y 5251   2.260   3.848   8.086  1.8918  0.0735  1.9954
   64SAPC  C315 5252   2.186   3.689   8.203 -0.1182  0.1008  0.6740
   64SAPC  H15X 5253   2.229   3.588   8.221  0.7877  0.4227  0.3586
   64SAPC  H15Y 5254   2.079   3.681   8.174  0.0329  2.1638 -0.6021
   64SAPC  C316 5255   2.217   3.769   8.333  0.1327 -0.5749  0.7458
   64SAPC  H16X 5256   2.141   3.850   8.340  1.3448  0.7151 -0.3463
   64SAPC  H16Y 5257   2.320   3.809   8.326  0.6670 -2.1177 -0.8913
   64SAPC  C317 5258   2.215   3.679   8.458  0.3649  0.3100 -0.3958
   64SAPC  H17X 5259   2.113   3.635   8.459  0.4880 -0.2429 -3.1900
   64SAPC  H17Y 5260   2.229   3.738   8.551 -1.3560 -0.0283  0.1068
   64SAPC  C318 5261   2.322   3.570   8.456  0.0372 -0.5063  0.2241
   64SAPC  H18X 5262   2.304   3.500   8.540 -1.1693  1.4379  1.6984
   64SAPC  H18Y 5263   2.411   3.627   8.491  0.3956 -0.5264 -0.6319
   64SAPC  H18Z 5264   2.344   3.525   8.357 -1.0338 -0.3214 -0.1174
   65SAPC     N 5265   1.000   5.690   5.856 -0.5103 -0.0278  0.0576
   65SAPC   C12 5266   0.970   5.623   5.996 -0.2352 -0.4926  0.3133
   65SAPC  H12A 5267   0.902   5.540   5.995  2.1321 -2.5694  0.8663
   65SAPC  H12B 5268   0.924   5.704   6.050  2.0109  0.6744  0.6302
   65SAPC   C13 5269   1.079   5.817   5.881 -0.1962  0.3794  0.0731
   65SAPC  H13A 5270   1.095   5.864   5.785  2.5802  1.5732  1.0305
   65SAPC  H13B 5271   1.022   5.886   5.942  0.1510  0.0797  0.7435
   65SAPC  H13C 5272   1.176   5.793   5.922  0.0565  0.3122 -0.5455
   65SAPC   C14 5273   1.069   5.599   5.763  0.2556 -0.9401 -0.4677
   65SAPC  H14A 5274   1.080   5.642   5.664 -1.6485 -0.7554 -0.6505
   65SAPC  H14B 5275   1.161   5.558   5.801 -0.3416 -2.5202 -0.6739
   65SAPC  H14C 5276   1.005   5.512   5.753 -1.8243  0.6150 -1.6786
   65SAPC   C15 5277   0.866   5.719   5.808  0.1530 -0.2874 -0.3984
   65SAPC  H15A 5278   0.804   5.761   5.885 -2.2855 -2.0267 -1.3006
   65SAPC  H15B 5279   0.874   5.792   5.729 -1.1958  1.1088  0.7003
   65SAPC  H15C 5280   0.816   5.628   5.781 -1.7689  0.7936 -0.6633
   65SAPC   C11 5281   1.085   5.555   6.072  0.0160 -0.5316 -0.3203
   65SAPC  H11A 5282   1.102   5.462   6.015  0.1252 -0.4846 -0.3631
   65SAPC  H11B 5283   1.039   5.520   6.168  1.4357  0.4229  0.7472
   65SAPC     P 5284   1.204   5.746   6.196  0.1623  0.5510 -0.0120
   65SAPC   O13 5285   1.326   5.825   6.170  0.1662  0.1352 -0.9656
   65SAPC   O14 5286   1.070   5.812   6.199 -0.5000  0.6615  0.4661
   65SAPC   O12 5287   1.205   5.630   6.090 -0.3469  0.1315  0.2063
   65SAPC   O11 5288   1.215   5.667   6.332  0.6745  0.4129  0.4585
   65SAPC    C1 5289   1.130   5.684   6.440 -0.2227  0.1901  0.3609
   65SAPC    HA 5290   1.067   5.775   6.427  1.4948  1.2235 -1.1528
   65SAPC    HB 5291   1.055   5.602   6.449 -1.1519  0.3778 -3.5444
   65SAPC    C2 5292   1.213   5.710   6.568 -0.1384 -0.1612  0.0421
   65SAPC    HS 5293   1.306   5.763   6.537  0.0327 -0.4606  0.0371
   65SAPC   O21 5294   1.232   5.585   6.638  0.1479  0.0726  0.2835
   65SAPC   C21 5295   1.347   5.528   6.600 -0.4733 -0.3308  0.9702
   65SAPC   O22 5296   1.423   5.578   6.518 -0.4281 -0.5449 -0.4041
   65SAPC   C22 5297   1.370   5.397   6.676  0.6254  0.3449  0.0172
   65SAPC   H2R 5298   1.311   5.316   6.627 -2.2618  3.0763 -1.4358
   65SAPC   H2S 5299   1.480   5.384   6.667  0.6284 -0.6089  1.1116
   65SAPC    C3 5300   1.142   5.811   6.667  0.4659 -0.0404 -0.2850
   65SAPC    HX 5301   1.044   5.768   6.696  1.2953 -0.9427  1.2721
   65SAPC    HY 5302   1.121   5.906   6.613  0.5353 -0.2526 -0.6855
   65SAPC   O31 5303   1.214   5.816   6.794  0.2531  0.1166  0.6562
   65SAPC   C31 5304   1.213   5.937   6.851  0.3272  0.6329 -0.2939
   65SAPC   O32 5305   1.149   6.031   6.809  0.2922  0.1883 -0.4381
   65SAPC   C32 5306   1.306   5.941   6.972  1.1822 -0.7712  0.1520
   65SAPC   H2X 5307   1.407   5.963   6.930  1.4406 -1.0659  0.6121
   65SAPC   H2Y 5308   1.299   5.842   7.022  1.3414 -0.3264  1.0857
   65SAPC   C23 5309   1.328   5.404   6.823 -0.9661 -0.2067 -0.1403
   65SAPC   H3R 5310   1.341   5.303   6.869  0.7634 -0.2807 -0.7035
   65SAPC   H3S 5311   1.222   5.435   6.819 -0.9195 -0.1125 -2.9270
   65SAPC   C24 5312   1.411   5.510   6.899 -0.9496 -0.0922 -0.1983
   65SAPC   H4R 5313   1.363   5.523   6.998 -2.3790 -2.9209 -0.4282
   65SAPC   H4S 5314   1.408   5.605   6.841 -1.0565 -1.1550 -2.0032
   65SAPC   C25 5315   1.557   5.481   6.922  0.1716 -0.8938  0.6162
   65SAPC   H5R 5316   1.577   5.373   6.917 -0.3256 -0.9375 -1.1924
   65SAPC   C26 5317   1.651   5.573   6.930 -0.1511 -0.0780 -0.1196
   65SAPC   H6R 5318   1.753   5.543   6.959  0.1109  0.9679  0.0639
   65SAPC   C27 5319   1.634   5.725   6.929 -0.2031  0.4324 -0.8053
   65SAPC   H7R 5320   1.593   5.754   7.028  2.4204  0.5103  0.3429
   65SAPC   H7S 5321   1.561   5.744   6.847  0.0937 -1.0843 -1.4697
   65SAPC   C28 5322   1.756   5.809   6.907  0.2522  0.2978 -0.2136
   65SAPC   H8R 5323   1.771   5.836   6.801  0.3887 -0.3070 -0.3573
   65SAPC   C29 5324   1.847   5.851   6.997  0.2092 -0.2631 -0.2437
   65SAPC   H9R 5325   1.935   5.911   6.968 -0.1257  0.7538  0.7601
   65SAPC  C210 5326   1.834   5.824   7.141  1.0569 -0.2033  0.7588
   65SAPC  H10R 5327   1.783   5.727   7.157  0.6843 -0.0386  0.5731
   65SAPC  H10S 5328   1.779   5.909   7.187  0.2502 -0.4376  0.2476
   65SAPC  C211 5329   1.965   5.814   7.218 -0.3178 -0.3584  0.3820
   65SAPC  H11R 5330   2.025   5.744   7.160 -0.1610  0.9823 -1.1594
   65SAPC  C212 5331   1.994   5.869   7.338  0.2614  0.7415  0.3875
   65SAPC  H12R 5332   2.090   5.845   7.386  0.1554  0.4107  0.4389
   65SAPC  C213 5333   1.912   5.967   7.419 -0.0226  0.4031  0.1763
   65SAPC  H13R 5334   1.826   5.914   7.463 -0.7410  0.3746 -1.2058
   65SAPC  H13S 5335   1.853   6.029   7.349 -0.3370 -0.8288 -0.6856
   65SAPC  C214 5336   1.990   6.038   7.523 -0.8043 -0.0398 -0.0807
   65SAPC  H14R 5337   2.021   6.141   7.500 -0.0250 -0.2604 -0.0327
   65SAPC  C215 5338   2.016   5.997   7.652  0.0543 -0.0285 -0.3330
   65SAPC  H15R 5339   2.076   6.064   7.716 -1.3679  1.0996 -0.1079
   65SAPC  C216 5340   1.964   5.868   7.716  0.6697  0.4841  0.1772
   65SAPC  H16R 5341   2.053   5.806   7.740 -0.5348 -1.5472 -0.3187
   65SAPC  H16S 5342   1.900   5.816   7.641  0.5626 -0.9956  1.2418
   65SAPC  C217 5343   1.888   5.886   7.848  0.5946 -0.3509  0.0471
   65SAPC  H17R 5344   1.822   5.973   7.832  1.1286  0.1206  0.3637
   65SAPC  H17S 5345   1.948   5.918   7.936  3.0798 -1.7208 -1.0095
   65SAPC  C218 5346   1.791   5.772   7.870 -0.2118 -0.2571  0.6592
   65SAPC  H18R 5347   1.850   5.688   7.912  0.5015 -0.6626 -1.0823
   65SAPC  H18S 5348   1.740   5.734   7.779  1.1526 -1.1037  0.2170
   65SAPC  C219 5349   1.681   5.813   7.972  0.0531  0.2312 -0.0217
   65SAPC  H19R 5350   1.632   5.906   7.935  0.2524  0.5580  0.5189
   65SAPC  H19S 5351   1.721   5.840   8.072 -0.5979  2.5256 -0.3160
   65SAPC  C220 5352   1.583   5.698   7.974 -0.3881  0.1100  0.2287
   65SAPC  H20R 5353   1.536   5.683   7.874  0.5021  0.1966 -0.2124
   65SAPC  H20S 5354   1.523   5.697   8.067  2.0518 -1.7767  1.9170
   65SAPC  H20T 5355   1.653   5.611   7.978 -1.4315 -0.7790 -0.4004
   65SAPC   C33 5356   1.272   6.051   7.078  0.2908 -0.2742  0.1268
   65SAPC   H3X 5357   1.178   6.026   7.131 -0.2969 -1.3649 -1.3811
   65SAPC   H3Y 5358   1.246   6.148   7.030  0.6130  0.8504  2.0915
   65SAPC   C34 5359   1.381   6.057   7.185 -0.0459 -0.7822  0.4660
   65SAPC   H4X 5360   1.471   6.102   7.137 -1.1339  1.3932  0.3442
   65SAPC   H4Y 5361   1.398   5.953   7.221  0.3778 -0.1593  2.1846
   65SAPC   C35 5362   1.346   6.140   7.306  0.0778 -0.0899 -0.6611
   65SAPC   H5X 5363   1.262   6.092   7.361  0.5101 -1.7437 -1.3714
   65SAPC   H5Y 5364   1.307   6.241   7.281  2.2805  0.7656 -0.8910
   65SAPC   C36 5365   1.460   6.164   7.401  0.3206 -0.5565  0.5179
   65SAPC   H6X 5366   1.530   6.234   7.350  1.1602 -0.7718  1.3438
   65SAPC   H6Y 5367   1.519   6.070   7.407  2.7833  0.8696 -0.0845
   65SAPC   C37 5368   1.413   6.208   7.540  0.0586 -0.1721 -0.4517
   65SAPC   H7X 5369   1.338   6.135   7.578  0.6852 -0.1546  0.8772
   65SAPC   H7Y 5370   1.362   6.306   7.530 -0.6959 -0.5836 -0.7619
   65SAPC   C38 5371   1.524   6.228   7.646 -0.2930 -0.2130  0.3076
   65SAPC   H8X 5372   1.605   6.297   7.614 -0.4401  0.4531  1.3289
   65SAPC   H8Y 5373   1.563   6.124   7.653  0.5271  0.0718  0.1694
   65SAPC   C39 5374   1.467   6.282   7.782 -0.5021  0.1006  0.6071
   65SAPC   H9X 5375   1.381   6.217   7.809  0.0746 -1.0040 -0.1163
   65SAPC   H9Y 5376   1.438   6.388   7.769  0.3320  0.3217  0.4570
   65SAPC  C310 5377   1.571   6.277   7.898  0.0213  0.6478  0.1035
   65SAPC  H10X 5378   1.669   6.313   7.860  0.9818  0.1243  1.9817
   65SAPC  H10Y 5379   1.579   6.171   7.928 -0.7428  0.5533  0.0117
   65SAPC  C311 5380   1.533   6.345   8.040  0.1130  0.4834  0.0503
   65SAPC  H11X 5381   1.435   6.295   8.058 -0.1990  0.4962 -1.4540
   65SAPC  H11Y 5382   1.518   6.453   8.019 -2.5287  0.1974  0.1645
   65SAPC  C312 5383   1.629   6.319   8.155 -0.3616 -0.6201  0.3259
   65SAPC  H12X 5384   1.730   6.353   8.124 -0.7782  0.8998  0.5626
   65SAPC  H12Y 5385   1.629   6.210   8.177  2.6664 -0.1317  3.8489
   65SAPC  C313 5386   1.603   6.404   8.279 -0.4684  0.0063  0.5759
   65SAPC  H13X 5387   1.497   6.387   8.308 -0.4767  0.0157  0.5510
   65SAPC  H13Y 5388   1.610   6.514   8.262 -1.1649 -0.0807 -0.3189
   65SAPC  C314 5389   1.684   6.363   8.405  0.4313 -0.1619 -0.1544
   65SAPC  H14X 5390   1.783   6.413   8.403 -0.3299  1.3906 -1.6910
   65SAPC  H14Y 5391   1.699   6.254   8.396  1.0075 -0.1039  0.0336
   65SAPC  C315 5392   1.607   6.396   8.534  0.0329 -0.5835 -0.1394
   65SAPC  H15X 5393   1.504   6.357   8.546 -0.0819 -0.4891 -0.7840
   65SAPC  H15Y 5394   1.596   6.507   8.531  2.2249 -0.3145  0.0961
   65SAPC  C316 5395   1.686   6.376   8.668  0.2359 -0.0636 -0.0473
   65SAPC  H16X 5396   1.783   6.429   8.680  0.1523  0.0412  0.1822
   65SAPC  H16Y 5397   1.704   6.267   8.665 -0.6541 -0.2294  0.2186
   65SAPC  C317 5398   1.607   6.400   8.796  0.7505 -0.4433  0.3255
   65SAPC  H17X 5399   1.675   6.403   8.884  0.7919  0.3439  0.2712
   65SAPC  H17Y 5400   1.531   6.324   8.822  1.1702 -0.8589  0.3406
   65SAPC  C318 5401   1.540   6.541   8.794  0.4844  0.3323 -0.3772
   65SAPC  H18X 5402   1.615   6.613   8.755 -0.0008  0.6874 -0.6554
   65SAPC  H18Y 5403   1.513   6.572   8.897 -0.6831  0.6427 -0.7595
   65SAPC  H18Z 5404   1.453   6.551   8.726 -0.5475 -0.5181  0.7873
   66SAPC     N 5405   0.304   4.829   5.838  0.7126 -0.6385  0.0398
   66SAPC   C12 5406   0.177   4.884   5.899  0.6429 -0.2648  0.1114
   66SAPC  H12A 5407   0.115   4.913   5.815  2.2174  2.1551 -0.3076
   66SAPC  H12B 5408   0.200   4.977   5.948 -0.0921  0.8791 -1.6110
   66SAPC   C13 5409   0.269   4.718   5.734  0.1486  0.0826  0.5745
   66SAPC  H13A 5410   0.222   4.752   5.643  1.3191 -0.5991 -0.3297
   66SAPC  H13B 5411   0.355   4.662   5.700  0.0972  0.0702  0.4642
   66SAPC  H13C 5412   0.199   4.647   5.775 -0.2063  1.3700  2.2951
   66SAPC   C14 5413   0.382   4.927   5.758 -0.0398  1.2735 -0.1304
   66SAPC  H14A 5414   0.450   4.873   5.695  0.8306  2.0756  0.1077
   66SAPC  H14B 5415   0.320   4.980   5.688  1.0801  0.6515 -1.6508
   66SAPC  H14C 5416   0.439   4.995   5.819 -0.4497  0.6670  0.9651
   66SAPC   C15 5417   0.403   4.770   5.936 -0.1021  0.1284 -0.2529
   66SAPC  H15A 5418   0.449   4.847   5.995  1.1003 -0.8470  0.1138
   66SAPC  H15B 5419   0.345   4.709   6.003 -0.1874  0.8402  0.3338
   66SAPC  H15C 5420   0.477   4.709   5.886  0.4354  1.1606 -0.7613
   66SAPC   C11 5421   0.098   4.794   5.994 -0.7585  0.0201 -0.4468
   66SAPC  H11A 5422   0.017   4.848   6.049 -0.2661 -0.1504  0.4708
   66SAPC  H11B 5423   0.172   4.774   6.075 -2.1137 -1.0781  0.5901
   66SAPC     P 5424   0.040   4.535   5.998 -0.4108  0.0073 -0.0856
   66SAPC   O13 5425  -0.100   4.493   5.990 -0.2347  0.1699 -0.0637
   66SAPC   O14 5426   0.138   4.439   5.933  0.3284 -0.3662  0.0872
   66SAPC   O12 5427   0.046   4.676   5.935  0.0985 -0.6187  0.2719
   66SAPC   O11 5428   0.087   4.562   6.146 -0.1325  0.0204  0.4594
   66SAPC    C1 5429  -0.003   4.561   6.256 -0.2253  1.0838  0.1621
   66SAPC    HA 5430  -0.100   4.511   6.236  0.2508 -0.6067  1.8150
   66SAPC    HB 5431   0.048   4.508   6.339  0.3983 -1.7224 -1.8666
   66SAPC    C2 5432  -0.033   4.701   6.315  0.1257  0.4807  0.6081
   66SAPC    HS 5433  -0.075   4.754   6.227  0.2906 -0.1274  0.1588
   66SAPC   O21 5434   0.089   4.758   6.361  0.0435  0.4489 -0.6412
   66SAPC   C21 5435   0.094   4.885   6.355  0.3040  0.0972  0.1010
   66SAPC   O22 5436   0.030   4.959   6.282 -0.0270  0.2695 -0.6797
   66SAPC   C22 5437   0.200   4.948   6.457 -0.4893  0.0854  0.0482
   66SAPC   H2R 5438   0.304   4.916   6.435 -0.3272 -0.6087  1.6979
   66SAPC   H2S 5439   0.203   5.058   6.448 -1.1082  0.1072  0.0071
   66SAPC    C3 5440  -0.145   4.709   6.428 -0.0704 -0.2662 -0.7187
   66SAPC    HX 5441  -0.098   4.666   6.519  0.5810 -0.3362 -1.0879
   66SAPC    HY 5442  -0.239   4.656   6.402  0.5955 -1.3520 -0.9723
   66SAPC   O31 5443  -0.181   4.843   6.465  0.3490  0.1233  0.2502
   66SAPC   C31 5444  -0.261   4.912   6.387 -0.0888  0.2269  0.0051
   66SAPC   O32 5445  -0.313   4.874   6.284  0.2813 -0.2029  0.3368
   66SAPC   C32 5446  -0.274   5.058   6.443 -0.1885 -0.5667  0.6273
   66SAPC   H2X 5447  -0.351   5.112   6.383 -0.8697 -1.0080  1.0979
   66SAPC   H2Y 5448  -0.173   5.104   6.429 -0.3127 -0.6141 -0.5079
   66SAPC   C23 5449   0.179   4.897   6.606 -0.1953  0.4935  0.1953
   66SAPC   H3R 5450   0.271   4.910   6.667 -0.9395  0.9198  1.2535
   66SAPC   H3S 5451   0.151   4.789   6.598 -0.7007  0.4732  1.8764
   66SAPC   C24 5452   0.062   4.978   6.677 -0.4221  0.4620  0.7564
   66SAPC   H4R 5453   0.004   4.914   6.746 -0.1955 -0.3582  0.2073
   66SAPC   H4S 5454  -0.015   5.001   6.600  0.8206  1.3223 -0.2806
   66SAPC   C25 5455   0.117   5.109   6.741 -0.4522  0.8067  0.2215
   66SAPC   H5R 5456   0.141   5.194   6.675 -2.0569  1.5070  0.4921
   66SAPC   C26 5457   0.130   5.135   6.873 -0.2040  0.7499  0.0864
   66SAPC   H6R 5458   0.181   5.228   6.903 -1.5981  1.8176 -0.7179
   66SAPC   C27 5459   0.095   5.039   6.981 -0.3589 -0.5033  0.6893
   66SAPC   H7R 5460   0.179   5.047   7.053 -2.2783  1.1262  2.8931
   66SAPC   H7S 5461   0.089   4.931   6.955 -0.6752 -0.0333 -1.3471
   66SAPC   C28 5462  -0.041   5.065   7.041  0.2206 -0.8445 -0.1028
   66SAPC   H8R 5463  -0.122   5.112   6.984 -0.1394 -0.4703  0.7036
   66SAPC   C29 5464  -0.080   5.037   7.168  0.7812  0.3124  0.0369
   66SAPC   H9R 5465  -0.170   5.085   7.210  0.3770 -1.2987  1.1250
   66SAPC  C210 5466   0.005   4.974   7.272  0.9199  0.4613 -0.1199
   66SAPC  H10R 5467   0.099   4.933   7.231  1.1281  1.0052 -0.1961
   66SAPC  H10S 5468  -0.045   4.879   7.300  0.3092  0.9711  0.5499
   66SAPC  C211 5469   0.034   5.067   7.390 -0.1778  0.0443 -0.3007
   66SAPC  H11R 5470   0.066   5.169   7.362  1.4145 -0.5855 -0.8422
   66SAPC  C212 5471   0.033   5.039   7.517 -0.4163 -0.3506 -0.0926
   66SAPC  H12R 5472   0.062   5.120   7.587 -3.1475  1.1571 -0.5508
   66SAPC  C213 5473  -0.005   4.908   7.579 -0.6211 -0.7151 -0.0890
   66SAPC  H13R 5474   0.042   4.899   7.679  0.9103 -0.8930 -0.8076
   66SAPC  H13S 5475   0.042   4.831   7.515 -1.1246  1.1425 -2.8362
   66SAPC  C214 5476  -0.145   4.882   7.581  0.9242 -0.1070  0.3858
   66SAPC  H14R 5477  -0.189   4.853   7.485  0.4480  0.8497  0.2981
   66SAPC  C215 5478  -0.225   4.912   7.690  0.4138  0.4247  0.3897
   66SAPC  H15R 5479  -0.328   4.875   7.690  0.0532  1.3726 -0.3202
   66SAPC  C216 5480  -0.173   4.962   7.825 -0.3609 -0.0060  0.6278
   66SAPC  H16R 5481  -0.065   4.983   7.824 -0.3490 -0.0554 -0.5885
   66SAPC  H16S 5482  -0.187   4.873   7.890  1.0355 -0.3282  0.5117
   66SAPC  C217 5483  -0.242   5.080   7.897  0.3569  0.2483 -0.6239
   66SAPC  H17R 5484  -0.350   5.055   7.889  0.9212 -2.0472 -1.8395
   66SAPC  H17S 5485  -0.221   5.166   7.830  1.1815  0.6032  0.0767
   66SAPC  C218 5486  -0.197   5.105   8.041 -0.2064 -0.6833  0.5996
   66SAPC  H18R 5487  -0.187   5.015   8.106  2.2037 -1.7459 -1.1061
   66SAPC  H18S 5488  -0.279   5.170   8.080 -0.0857 -0.2734  0.1684
   66SAPC  C219 5489  -0.065   5.169   8.053 -0.6009  0.4908 -0.1569
   66SAPC  H19R 5490  -0.060   5.271   8.010  1.6969  0.7851  0.6618
   66SAPC  H19S 5491   0.018   5.117   8.001 -0.9121 -2.0924  1.7383
   66SAPC  C220 5492  -0.009   5.192   8.199 -0.2472  0.1148  0.5134
   66SAPC  H20R 5493   0.098   5.220   8.198 -0.2563  0.4758  3.0590
   66SAPC  H20S 5494  -0.028   5.096   8.251  0.0619  0.2314  0.8432
   66SAPC  H20T 5495  -0.059   5.279   8.246  1.2128  1.3992 -0.2113
   66SAPC   C33 5496  -0.327   5.059   6.589  0.2172  0.2553  0.4806
   66SAPC   H3X 5497  -0.254   5.012   6.658 -1.9222  1.6488  3.9706
   66SAPC   H3Y 5498  -0.422   5.002   6.591  0.4757 -0.2388 -0.4527
   66SAPC   C34 5499  -0.351   5.196   6.635 -0.1172  0.6390  0.1321
   66SAPC   H4X 5500  -0.448   5.224   6.589 -0.0712 -0.8037 -0.9396
   66SAPC   H4Y 5501  -0.275   5.272   6.607  0.7232 -0.5229 -0.8487
   66SAPC   C35 5502  -0.372   5.206   6.789  0.3907  0.1263  0.4781
   66SAPC   H5X 5503  -0.272   5.186   6.834  0.6262  2.6681  1.2206
   66SAPC   H5Y 5504  -0.440   5.127   6.826 -0.2646  0.1740 -0.5867
   66SAPC   C36 5505  -0.414   5.343   6.821  0.1882  0.8122  0.6704
   66SAPC   H6X 5506  -0.518   5.360   6.787  0.1898  1.3709  0.9346
   66SAPC   H6Y 5507  -0.353   5.430   6.789  0.4467  0.2705 -0.3646
   66SAPC   C37 5508  -0.414   5.364   6.977 -0.5574  0.1671  0.4495
   66SAPC   H7X 5509  -0.454   5.273   7.027  0.5801  0.4624  1.9497
   66SAPC   H7Y 5510  -0.474   5.449   7.015 -1.1783  0.3287 -0.8273
   66SAPC   C38 5511  -0.268   5.395   7.025 -0.6821  0.0735  0.9569
   66SAPC   H8X 5512  -0.242   5.492   6.979  0.2167 -1.6695 -2.5898
   66SAPC   H8Y 5513  -0.187   5.324   6.996 -2.4962 -1.1684 -1.4253
   66SAPC   C39 5514  -0.265   5.388   7.177  0.1512  0.3984  0.0056
   66SAPC   H9X 5515  -0.304   5.286   7.199 -0.3048  0.5159 -0.2526
   66SAPC   H9Y 5516  -0.344   5.455   7.217 -1.5637 -0.3959 -1.8389
   66SAPC  C310 5517  -0.138   5.427   7.248  1.1259  0.2779  0.1756
   66SAPC  H10X 5518  -0.129   5.538   7.250 -0.7872  0.4637  0.7326
   66SAPC  H10Y 5519  -0.055   5.368   7.204 -0.4851 -2.1527  0.1730
   66SAPC  C311 5520  -0.143   5.399   7.400 -0.6849 -0.3620 -0.0707
   66SAPC  H11X 5521  -0.137   5.292   7.428  1.2179  0.6953  4.3124
   66SAPC  H11Y 5522  -0.235   5.442   7.444 -1.7494 -1.9650 -0.6331
   66SAPC  C312 5523  -0.029   5.473   7.473  0.1682 -0.5016  0.0752
   66SAPC  H12X 5524  -0.040   5.572   7.425 -1.9297 -1.2798 -1.1822
   66SAPC  H12Y 5525   0.063   5.422   7.438 -0.5321 -1.9011  0.1868
   66SAPC  C313 5526  -0.052   5.478   7.626 -0.2565 -0.0507  0.2954
   66SAPC  H13X 5527  -0.073   5.374   7.659  0.7533 -0.3794 -0.0345
   66SAPC  H13Y 5528  -0.136   5.546   7.650  1.1044  0.7951  3.0457
   66SAPC  C314 5529   0.079   5.535   7.702  0.5745 -0.6331 -0.8080
   66SAPC  H14X 5530   0.093   5.638   7.664 -0.9688 -0.5969 -1.3595
   66SAPC  H14Y 5531   0.161   5.466   7.673  0.4096 -0.3736 -1.9211
   66SAPC  C315 5532   0.068   5.536   7.854 -0.4420  0.0799 -0.1294
   66SAPC  H15X 5533   0.029   5.437   7.887  0.1903 -0.7130 -1.6733
   66SAPC  H15Y 5534  -0.010   5.605   7.893  0.6516  0.1809  2.0444
   66SAPC  C316 5535   0.198   5.585   7.929  0.5138  0.3125  0.0473
   66SAPC  H16X 5536   0.216   5.693   7.910 -0.0564  0.2995 -0.5884
   66SAPC  H16Y 5537   0.280   5.525   7.884 -2.3745 -1.0115 -3.9790
   66SAPC  C317 5538   0.190   5.570   8.084 -0.4616  1.1308 -0.7177
   66SAPC  H17X 5539   0.199   5.461   8.103  0.9892  1.3313 -0.1268
   66SAPC  H17Y 5540   0.088   5.577   8.127 -0.1918 -1.2715  0.4778
   66SAPC  C318 5541   0.298   5.636   8.168 -0.3155 -0.1746  0.5034
   66SAPC  H18X 5542   0.282   5.745   8.159 -0.9468 -0.2067  1.1905
   66SAPC  H18Y 5543   0.399   5.614   8.128 -0.5873 -0.3562 -0.0960
   66SAPC  H18Z 5544   0.283   5.607   8.274 -2.4275  0.4721  0.4241
   67SAPC     N 5545   0.650   1.092   6.385  0.2954  1.0795  0.3059
   67SAPC   C12 5546   0.521   1.018   6.353 -0.1992 -0.3956  0.4803
   67SAPC  H12A 5547   0.464   1.088   6.293 -0.2441 -0.7279  0.1272
   67SAPC  H12B 5548   0.456   1.000   6.437  0.3102  2.7729  1.6739
   67SAPC   C13 5549   0.731   1.008   6.486  0.8272  0.2248 -0.4888
   67SAPC  H13A 5550   0.664   0.987   6.568  1.1003  1.7001  0.1348
   67SAPC  H13B 5551   0.763   0.916   6.438  1.4122  1.3840 -2.4354
   67SAPC  H13C 5552   0.823   1.053   6.520  1.0617 -0.0212 -0.7920
   67SAPC   C14 5553   0.730   1.117   6.263  0.3453  0.0209 -0.3309
   67SAPC  H14A 5554   0.827   1.160   6.283  0.2433 -0.9813  2.7501
   67SAPC  H14B 5555   0.752   1.019   6.224 -0.0530 -0.5604  0.8697
   67SAPC  H14C 5556   0.678   1.179   6.191 -0.5382  0.7992  0.9275
   67SAPC   C15 5557   0.620   1.226   6.444  0.8372 -0.0748  0.4789
   67SAPC  H15A 5558   0.705   1.292   6.450  0.8159  0.1167 -1.0628
   67SAPC  H15B 5559   0.551   1.280   6.381  0.8504 -1.7915 -1.0925
   67SAPC  H15C 5560   0.578   1.202   6.541  0.1993 -0.4920  0.1114
   67SAPC   C11 5561   0.542   0.889   6.267  0.3301 -0.7152  0.6092
   67SAPC  H11A 5562   0.578   0.920   6.166 -2.4061  1.0732  0.0856
   67SAPC  H11B 5563   0.438   0.861   6.241 -1.0738  3.7909  0.5876
   67SAPC     P 5564   0.563   0.632   6.332  0.3807 -0.3384  0.2691
   67SAPC   O13 5565   0.498   0.601   6.200  0.0393 -0.4641  0.2213
   67SAPC   O14 5566   0.661   0.538   6.374  0.8688 -0.4778 -0.6322
   67SAPC   O12 5567   0.627   0.784   6.331  0.1360  0.1358 -0.7202
   67SAPC   O11 5568   0.448   0.641   6.446 -0.1786  0.2276 -0.1680
   67SAPC    C1 5569   0.462   0.697   6.575 -0.0341 -0.0936 -0.6337
   67SAPC    HA 5570   0.565   0.739   6.580 -0.0786  0.2222 -1.9114
   67SAPC    HB 5571   0.385   0.772   6.604  0.6980  0.0462  1.0561
   67SAPC    C2 5572   0.445   0.594   6.696  0.9075 -0.1346  0.2360
   67SAPC    HS 5573   0.526   0.518   6.691  2.0456  0.9899  0.7307
   67SAPC   O21 5574   0.309   0.548   6.696  0.0234  0.3301  0.6430
   67SAPC   C21 5575   0.297   0.420   6.654  0.1996 -0.7988 -0.2573
   67SAPC   O22 5576   0.383   0.350   6.609  0.0119  0.0603 -0.2578
   67SAPC   C22 5577   0.143   0.376   6.677  0.1770 -0.1290  0.2790
   67SAPC   H2R 5578   0.082   0.449   6.620  2.2453 -0.4518 -2.5567
   67SAPC   H2S 5579   0.131   0.282   6.620 -0.5976  0.1321  0.0008
   67SAPC    C3 5580   0.473   0.660   6.830 -0.1059  0.2064 -0.0494
   67SAPC    HX 5581   0.381   0.720   6.849  1.6727  2.7288  1.3371
   67SAPC    HY 5582   0.562   0.727   6.821  0.9609 -1.2275 -0.5300
   67SAPC   O31 5583   0.498   0.564   6.935 -0.1051 -0.0642  0.0247
   67SAPC   C31 5584   0.399   0.528   7.017 -0.0171  1.1473 -0.3061
   67SAPC   O32 5585   0.292   0.579   7.032 -0.2926  0.3636  0.1657
   67SAPC   C32 5586   0.455   0.403   7.092  0.2842 -0.2859 -0.5790
   67SAPC   H2X 5587   0.565   0.409   7.111  0.2192  0.4658 -0.3952
   67SAPC   H2Y 5588   0.425   0.312   7.037 -0.6593 -1.1229  1.2285
   67SAPC   C23 5589   0.089   0.365   6.828  0.7993  0.5036  0.9386
   67SAPC   H3R 5590  -0.022   0.363   6.824  0.7902  1.3843 -2.2672
   67SAPC   H3S 5591   0.137   0.446   6.886  1.3914  0.3966  0.6098
   67SAPC   C24 5592   0.130   0.240   6.898 -0.2721  0.0032 -0.3824
   67SAPC   H4R 5593   0.111   0.267   7.003  0.1322 -0.4745 -0.1807
   67SAPC   H4S 5594   0.236   0.209   6.887  0.2703  1.7556 -0.2989
   67SAPC   C25 5595   0.041   0.125   6.863 -0.2266 -0.1340  0.0759
   67SAPC   H5R 5596   0.030   0.106   6.755  2.3856 -1.5290 -0.0317
   67SAPC   C26 5597  -0.039   0.049   6.939  0.5590 -0.2924  0.0418
   67SAPC   H6R 5598  -0.104  -0.028   6.896  1.0127 -0.3655 -0.5306
   67SAPC   C27 5599  -0.068   0.062   7.087 -0.2089 -0.3782  0.5129
   67SAPC   H7R 5600  -0.157   0.002   7.113 -1.5832  0.5058 -1.9060
   67SAPC   H7S 5601  -0.098   0.169   7.100  2.0776  0.2335  1.3057
   67SAPC   C28 5602   0.046   0.027   7.180  0.4580 -0.0680 -0.7777
   67SAPC   H8R 5603   0.145   0.055   7.141 -0.0165  1.3698 -1.0097
   67SAPC   C29 5604   0.031  -0.009   7.310 -0.4381 -0.1588 -0.3264
   67SAPC   H9R 5605   0.123  -0.030   7.367 -0.8448 -3.0489 -0.5724
   67SAPC  C210 5606  -0.095  -0.041   7.387 -0.4658 -0.1221  0.2239
   67SAPC  H10R 5607  -0.094  -0.148   7.414 -0.2069  0.2032  1.5788
   67SAPC  H10S 5608  -0.182  -0.019   7.323  1.5886  1.5015 -2.2033
   67SAPC  C211 5609  -0.095   0.043   7.514  0.2844 -0.1210 -0.3670
   67SAPC  H11R 5610  -0.091   0.151   7.490 -0.3468  0.1531  0.6960
   67SAPC  C212 5611  -0.117  -0.004   7.639  0.3302  0.0332 -0.0593
   67SAPC  H12R 5612  -0.114   0.070   7.720  2.5403 -1.3723  1.2418
   67SAPC  C213 5613  -0.143  -0.145   7.692  0.2907 -0.1154 -0.0748
   67SAPC  H13R 5614  -0.230  -0.190   7.640 -0.9531  1.2079  0.7778
   67SAPC  H13S 5615  -0.180  -0.135   7.796  1.0460 -0.8472  0.2676
   67SAPC  C214 5616  -0.022  -0.229   7.712  0.4409 -0.5744 -0.4428
   67SAPC  H14R 5617  -0.014  -0.310   7.639 -0.1052 -0.8721 -0.1834
   67SAPC  C215 5618   0.082  -0.199   7.796  0.2101 -0.5194  0.2316
   67SAPC  H15R 5619   0.162  -0.270   7.821  1.7628  1.2833  0.6265
   67SAPC  C216 5620   0.090  -0.074   7.884  0.1918  0.5018 -0.2530
   67SAPC  H16R 5621   0.009  -0.003   7.859  0.7234  1.1598 -0.1450
   67SAPC  H16S 5622   0.186  -0.020   7.870  0.3538 -0.0037 -1.2586
   67SAPC  C217 5623   0.077  -0.111   8.027 -0.9416  0.4159  0.6485
   67SAPC  H17R 5624   0.175  -0.128   8.075 -0.9723 -1.8359 -0.0048
   67SAPC  H17S 5625   0.015  -0.201   8.048 -2.2286  1.2464  0.5142
   67SAPC  C218 5626   0.019   0.002   8.106  0.7351  0.0174  0.3118
   67SAPC  H18R 5627  -0.080   0.011   8.057  0.3823 -0.3859  0.9418
   67SAPC  H18S 5628   0.077   0.090   8.071 -2.3590  1.7533 -0.8900
   67SAPC  C219 5629   0.015  -0.015   8.256  0.8003 -0.3476  0.2310
   67SAPC  H19R 5630  -0.006   0.076   8.316 -0.3052 -0.3390 -0.1450
   67SAPC  H19S 5631   0.120  -0.028   8.290  0.2210  1.9454  3.4421
   67SAPC  C220 5632  -0.090  -0.123   8.297 -0.2347 -0.2117 -1.2149
   67SAPC  H20R 5633  -0.073  -0.174   8.394 -0.8314 -0.1963 -1.1006
   67SAPC  H20S 5634  -0.090  -0.203   8.220 -0.5019 -1.3259 -0.0783
   67SAPC  H20T 5635  -0.194  -0.083   8.300 -0.4137 -0.6988 -0.8875
   67SAPC   C33 5636   0.386   0.389   7.227 -1.2165 -0.3449 -0.4735
   67SAPC   H3X 5637   0.278   0.369   7.214 -0.8462 -4.1583  1.0189
   67SAPC   H3Y 5638   0.396   0.477   7.294 -0.6996 -0.1521 -0.7979
   67SAPC   C34 5639   0.435   0.256   7.298  0.3563  0.3194 -0.6085
   67SAPC   H4X 5640   0.544   0.267   7.317  0.5664 -0.1486 -1.5043
   67SAPC   H4Y 5641   0.418   0.164   7.239 -0.8245 -1.7059  2.6187
   67SAPC   C35 5642   0.364   0.228   7.436  0.4058  1.1072 -0.4309
   67SAPC   H5X 5643   0.271   0.174   7.406  1.4768 -0.4455 -1.0810
   67SAPC   H5Y 5644   0.327   0.321   7.484 -0.9199  0.0310  0.7261
   67SAPC   C36 5645   0.435   0.140   7.538 -0.2942  0.0566  0.2181
   67SAPC   H6X 5646   0.536   0.186   7.548 -0.8908  1.9585 -1.7729
   67SAPC   H6Y 5647   0.447   0.034   7.507 -1.1520 -0.3989  1.3353
   67SAPC   C37 5648   0.367   0.139   7.676  0.1943 -0.0099 -0.0625
   67SAPC   H7X 5649   0.420   0.069   7.744  1.3119 -0.4838 -1.3928
   67SAPC   H7Y 5650   0.264   0.105   7.653  1.5045 -2.9555 -2.2836
   67SAPC   C38 5651   0.362   0.282   7.742  0.5675  0.0433  0.5932
   67SAPC   H8X 5652   0.307   0.361   7.686 -0.2305  1.7415  3.5556
   67SAPC   H8Y 5653   0.465   0.319   7.758  0.3270  0.4442  1.2741
   67SAPC   C39 5654   0.291   0.268   7.882  0.2686  0.2837  0.6276
   67SAPC   H9X 5655   0.354   0.197   7.942  0.6637  0.7933  0.8218
   67SAPC   H9Y 5656   0.190   0.224   7.868  0.5874 -0.7457  1.3726
   67SAPC  C310 5657   0.299   0.387   7.968  0.4383  0.2184 -0.5925
   67SAPC  H10X 5658   0.229   0.469   7.941 -0.1696 -0.9108 -2.6679
   67SAPC  H10Y 5659   0.400   0.430   7.958  0.0798  1.7778  1.7569
   67SAPC  C311 5660   0.280   0.367   8.120 -0.1204 -0.3973 -0.0178
   67SAPC  H11X 5661   0.361   0.300   8.154 -1.9043 -1.7231  1.8510
   67SAPC  H11Y 5662   0.191   0.305   8.141 -0.0371 -1.6803 -2.9117
   67SAPC  C312 5663   0.265   0.497   8.205  0.1644 -0.2568  0.0613
   67SAPC  H12X 5664   0.230   0.583   8.144 -0.8323  0.8968  2.1513
   67SAPC  H12Y 5665   0.366   0.508   8.250  0.6296 -1.4152 -0.6567
   67SAPC  C313 5666   0.159   0.504   8.314  0.7985  0.0411 -0.5395
   67SAPC  H13X 5667   0.061   0.493   8.261  0.8496  0.6819 -0.7751
   67SAPC  H13Y 5668   0.172   0.602   8.364  0.6019 -0.2224  0.0273
   67SAPC  C314 5669   0.159   0.403   8.430 -0.0593  0.0436  0.2299
   67SAPC  H14X 5670   0.238   0.430   8.504 -1.6381  1.7876  1.3676
   67SAPC  H14Y 5671   0.187   0.303   8.390  2.5430  0.8289 -0.0998
   67SAPC  C315 5672   0.024   0.380   8.495 -0.2401 -0.6567  0.8490
   67SAPC  H15X 5673  -0.049   0.332   8.426 -2.1645  3.3733 -0.2378
   67SAPC  H15Y 5674  -0.023   0.479   8.514  0.8590  0.0961 -0.2174
   67SAPC  C316 5675   0.021   0.296   8.621 -0.0310  0.4305 -0.2002
   67SAPC  H16X 5676   0.116   0.311   8.676 -1.4618  0.8783  2.3257
   67SAPC  H16Y 5677   0.015   0.191   8.587 -2.8804  0.1958  0.7316
   67SAPC  C317 5678  -0.109   0.310   8.701 -1.0745  0.5151 -0.1805
   67SAPC  H17X 5679  -0.196   0.302   8.633  0.8958  2.5331 -3.1810
   67SAPC  H17Y 5680  -0.108   0.410   8.748  0.5735  1.6585 -2.4916
   67SAPC  C318 5681  -0.124   0.212   8.818 -0.0230 -0.0795 -0.6201
   67SAPC  H18X 5682  -0.202   0.257   8.882 -0.8810  0.8500 -2.2369
   67SAPC  H18Y 5683  -0.033   0.189   8.878 -0.3573  2.5369  1.0475
   67SAPC  H18Z 5684  -0.165   0.113   8.788 -0.6832 -0.1326  0.4235
   68SAPC     N 5685   6.511   5.489   5.627  0.7369 -0.0793  0.4534
   68SAPC   C12 5686   6.436   5.472   5.761 -0.6999  0.2277 -0.6743
   68SAPC  H12A 5687   6.441   5.370   5.797 -2.5655  0.0649 -0.7776
   68SAPC  H12B 5688   6.332   5.487   5.736 -0.5831  0.4034 -1.0550
   68SAPC   C13 5689   6.465   5.381   5.534 -0.1008 -0.1487 -0.1589
   68SAPC  H13A 5690   6.479   5.284   5.579 -1.4761 -0.2347  0.1455
   68SAPC  H13B 5691   6.358   5.385   5.518 -0.4297 -2.6770  0.9429
   68SAPC  H13C 5692   6.524   5.393   5.445 -1.0834  2.3741 -0.5497
   68SAPC   C14 5693   6.470   5.625   5.573 -0.3431  0.0595  0.1286
   68SAPC  H14A 5694   6.521   5.643   5.480 -1.0050 -0.2182 -0.2970
   68SAPC  H14B 5695   6.367   5.628   5.544  0.0251  0.2413 -1.2024
   68SAPC  H14C 5696   6.495   5.700   5.647 -2.6037  0.6578  0.3424
   68SAPC   C15 5697   6.661   5.484   5.643  0.1910  0.3222 -0.4220
   68SAPC  H15A 5698   6.692   5.534   5.734 -0.8162  0.6292 -0.2360
   68SAPC  H15B 5699   6.691   5.381   5.658  1.2808  0.7992  0.8760
   68SAPC  H15C 5700   6.715   5.535   5.565  1.0256 -1.4113 -1.0455
   68SAPC   C11 5701   6.469   5.564   5.882 -0.2743 -0.2532 -0.3698
   68SAPC  H11A 5702   6.381   5.567   5.948 -0.6666  1.0729 -0.9184
   68SAPC  H11B 5703   6.486   5.670   5.853  0.8921  0.2995  2.1171
   68SAPC     P 5704   6.609   5.413   6.062 -0.4015  0.1884 -0.5233
   68SAPC   O13 5705   6.489   5.324   6.070 -0.2445  0.2623 -0.2376
   68SAPC   O14 5706   6.742   5.347   6.047  0.2725 -0.5290  0.2215
   68SAPC   O12 5707   6.585   5.518   5.948  0.4520 -0.2515 -0.5442
   68SAPC   O11 5708   6.619   5.502   6.191  0.1896 -0.0447  0.5068
   68SAPC    C1 5709   6.621   5.641   6.192 -0.6054 -0.1053  0.5209
   68SAPC    HA 5710   6.724   5.679   6.174  0.1598 -2.7637 -1.3213
   68SAPC    HB 5711   6.551   5.694   6.124  0.0270 -1.8086 -1.5475
   68SAPC    C2 5712   6.566   5.691   6.337  0.1428 -0.5143 -0.5362
   68SAPC    HS 5713   6.586   5.800   6.343 -1.7177  0.0522 -2.7892
   68SAPC   O21 5714   6.633   5.618   6.442 -0.0777 -0.1564  0.0362
   68SAPC   C21 5715   6.763   5.616   6.428  0.4579 -0.3154  0.9941
   68SAPC   O22 5716   6.834   5.701   6.374 -0.2623 -0.3420  0.0431
   68SAPC   C22 5717   6.820   5.489   6.487 -1.0045  0.1927 -0.0042
   68SAPC   H2R 5718   6.821   5.405   6.415  0.6929  1.9263 -2.1396
   68SAPC   H2S 5719   6.924   5.519   6.514 -1.6077  0.8891  1.6900
   68SAPC    C3 5720   6.418   5.693   6.358  0.2294 -0.2703  0.8364
   68SAPC    HX 5721   6.378   5.589   6.353  2.7837 -1.2969 -0.2937
   68SAPC    HY 5722   6.375   5.749   6.273  0.0141  1.1866  1.8678
   68SAPC   O31 5723   6.382   5.763   6.478 -0.0701  0.0675 -0.1946
   68SAPC   C31 5724   6.307   5.702   6.567  0.1951  0.6148 -0.8752
   68SAPC   O32 5725   6.264   5.588   6.563 -0.1026 -0.0535  0.0382
   68SAPC   C32 5726   6.268   5.800   6.680  0.0888 -0.1967 -0.1676
   68SAPC   H2X 5727   6.166   5.834   6.650  0.6137 -1.3472 -3.6071
   68SAPC   H2Y 5728   6.335   5.888   6.670 -1.9471  1.2528 -2.0097
   68SAPC   C23 5729   6.762   5.449   6.623 -0.5987 -0.6920 -0.2379
   68SAPC   H3R 5730   6.802   5.348   6.645  0.6854 -0.6822 -2.2743
   68SAPC   H3S 5731   6.657   5.415   6.609 -0.7587 -0.3850  0.2006
   68SAPC   C24 5732   6.792   5.548   6.739 -0.5630  0.3423 -0.3416
   68SAPC   H4R 5733   6.738   5.498   6.822  2.1183  0.9612  1.9239
   68SAPC   H4S 5734   6.746   5.647   6.719  1.3927  1.3050 -0.3202
   68SAPC   C25 5735   6.935   5.581   6.776 -0.2233 -0.2397 -0.3221
   68SAPC   H5R 5736   6.994   5.628   6.696 -1.3446 -0.3246 -1.2241
   68SAPC   C26 5737   6.995   5.575   6.900 -0.2545  0.2055 -0.1905
   68SAPC   H6R 5738   7.097   5.615   6.912 -0.1860  0.1662 -0.6274
   68SAPC   C27 5739   6.940   5.527   7.030  1.1052 -0.0970  0.1501
   68SAPC   H7R 5740   6.944   5.417   7.013 -0.3379 -0.1450  0.0059
   68SAPC   H7S 5741   6.831   5.545   7.040  0.9251 -0.6075 -0.8330
   68SAPC   C28 5742   6.994   5.570   7.162 -0.5683  0.2896 -0.5092
   68SAPC   H8R 5743   6.957   5.671   7.188 -2.9794 -0.5551 -0.4715
   68SAPC   C29 5744   7.060   5.503   7.252 -0.0888  0.0486 -0.4238
   68SAPC   H9R 5745   7.092   5.554   7.344 -0.6711 -1.4642  0.6613
   68SAPC  C210 5746   7.112   5.365   7.235 -0.3581 -0.2006 -0.3019
   68SAPC  H10R 5747   7.107   5.328   7.130 -1.3277  0.1401 -0.3939
   68SAPC  H10S 5748   7.055   5.294   7.299  1.0610  0.3116  1.6053
   68SAPC  C211 5749   7.256   5.363   7.283 -0.5223 -0.1154  1.0111
   68SAPC  H11R 5750   7.338   5.374   7.210 -1.0289 -2.5669 -0.0460
   68SAPC  C212 5751   7.289   5.349   7.410 -0.5556  0.2536  0.0868
   68SAPC  H12R 5752   7.396   5.355   7.437 -0.2990  0.7372 -1.0014
   68SAPC  C213 5753   7.197   5.336   7.525  0.7930  0.5098 -0.2006
   68SAPC  H13R 5754   7.097   5.383   7.513  0.9631  1.0054  0.2669
   68SAPC  H13S 5755   7.236   5.396   7.610 -0.3824 -1.0650  1.5539
   68SAPC  C214 5756   7.173   5.191   7.564 -0.2855  0.4579 -0.1838
   68SAPC  H14R 5757   7.146   5.128   7.478 -0.1220  2.2837 -1.6293
   68SAPC  C215 5758   7.163   5.142   7.694  0.3156  0.3258 -0.0880
   68SAPC  H15R 5759   7.147   5.034   7.695 -4.3332  0.7324 -2.7820
   68SAPC  C216 5760   7.180   5.213   7.828  0.3433  0.5744  0.1876
   68SAPC  H16R 5761   7.089   5.265   7.865 -0.3612 -0.1253 -0.5261
   68SAPC  H16S 5762   7.252   5.298   7.818  0.2544  0.5541 -0.6883
   68SAPC  C217 5763   7.216   5.108   7.942  0.3525  0.1674  0.4402
   68SAPC  H17R 5764   7.320   5.073   7.923  1.1912  2.5090  0.4235
   68SAPC  H17S 5765   7.147   5.022   7.935 -1.0693  1.0954  2.3447
   68SAPC  C218 5766   7.216   5.172   8.080 -0.2932  0.1563  0.1989
   68SAPC  H18R 5767   7.118   5.216   8.105 -0.8954  0.7503 -2.7982
   68SAPC  H18S 5768   7.297   5.248   8.076  1.6146 -1.8163 -1.9351
   68SAPC  C219 5769   7.237   5.068   8.193  0.0168 -0.0563  0.4045
   68SAPC  H19R 5770   7.258   5.128   8.285  0.8995 -0.4476  0.4678
   68SAPC  H19S 5771   7.327   5.009   8.167  0.2532 -0.0699  1.2032
   68SAPC  C220 5772   7.126   4.972   8.217  0.2226  0.6321  0.5183
   68SAPC  H20R 5773   7.044   5.021   8.273 -2.4824 -1.6324 -1.2433
   68SAPC  H20S 5774   7.152   4.874   8.262 -1.1062 -0.6707 -1.4080
   68SAPC  H20T 5775   7.077   4.959   8.118  0.3808 -1.2851  0.6626
   68SAPC   C33 5776   6.267   5.722   6.815  0.0339  0.5333 -0.1503
   68SAPC   H3X 5777   6.353   5.651   6.810  0.0960  0.6353 -0.5919
   68SAPC   H3Y 5778   6.177   5.657   6.818  0.2055  0.1954 -1.4838
   68SAPC   C34 5779   6.270   5.816   6.933  0.5317  0.2385 -0.3062
   68SAPC   H4X 5780   6.175   5.872   6.942  0.0298 -0.7735  1.1055
   68SAPC   H4Y 5781   6.353   5.890   6.929  1.1312 -0.3871  0.1881
   68SAPC   C35 5782   6.293   5.736   7.067  0.0980 -0.7528 -0.3759
   68SAPC   H5X 5783   6.391   5.683   7.078 -0.3647 -1.6150 -0.3324
   68SAPC   H5Y 5784   6.216   5.656   7.065 -3.3903  2.3096  0.4491
   68SAPC   C36 5785   6.275   5.823   7.195  0.4025 -0.0905 -0.3403
   68SAPC   H6X 5786   6.191   5.896   7.197  2.5406  2.5486  1.6022
   68SAPC   H6Y 5787   6.355   5.900   7.195  0.7224 -0.4169 -1.0632
   68SAPC   C37 5788   6.298   5.733   7.317 -0.0511  0.0173  0.0799
   68SAPC   H7X 5789   6.394   5.679   7.303 -1.7364 -2.9782 -0.7925
   68SAPC   H7Y 5790   6.218   5.656   7.314 -1.5928  1.5252  0.7677
   68SAPC   C38 5791   6.302   5.830   7.438 -0.6206  0.7042 -0.6849
   68SAPC   H8X 5792   6.204   5.883   7.436 -0.6471  0.6637 -0.4758
   68SAPC   H8Y 5793   6.377   5.913   7.436 -0.8831  1.1149  2.3642
   68SAPC   C39 5794   6.318   5.765   7.575  0.2086  0.4011 -0.2724
   68SAPC   H9X 5795   6.426   5.742   7.592 -0.2078  0.1433  2.5795
   68SAPC   H9Y 5796   6.249   5.679   7.590 -0.7833  1.6705  3.8950
   68SAPC  C310 5797   6.296   5.858   7.695 -0.5106 -0.0225 -0.6741
   68SAPC  H10X 5798   6.198   5.909   7.689 -0.1101  0.9714  0.7778
   68SAPC  H10Y 5799   6.370   5.940   7.701 -2.5278  2.1634 -3.1676
   68SAPC  C311 5800   6.292   5.786   7.830 -0.1125 -0.2050  0.0398
   68SAPC  H11X 5801   6.396   5.754   7.854  1.1966  1.2699 -3.1480
   68SAPC  H11Y 5802   6.223   5.699   7.820  1.0947 -1.3792  1.5173
   68SAPC  C312 5803   6.235   5.883   7.938 -0.2385  0.6118 -0.4901
   68SAPC  H12X 5804   6.128   5.906   7.923 -0.5733 -1.0455 -0.8391
   68SAPC  H12Y 5805   6.279   5.985   7.936  1.0453  0.1566  1.7260
   68SAPC  C313 5806   6.252   5.836   8.088  0.4198 -0.2935  0.4156
   68SAPC  H13X 5807   6.236   5.726   8.083 -0.1700 -0.1719 -0.7096
   68SAPC  H13Y 5808   6.168   5.870   8.152  0.6442 -0.8009  1.0002
   68SAPC  C314 5809   6.392   5.850   8.153 -0.2179  0.0790  0.1113
   68SAPC  H14X 5810   6.417   5.950   8.194  0.3647  0.9733 -2.2438
   68SAPC  H14Y 5811   6.468   5.842   8.072  1.2797  2.2040  1.2334
   68SAPC  C315 5812   6.412   5.740   8.260 -0.4275  0.5015  0.1806
   68SAPC  H15X 5813   6.410   5.644   8.203 -3.0001  1.2513 -1.1585
   68SAPC  H15Y 5814   6.327   5.745   8.332  0.5100 -0.6577  1.4202
   68SAPC  C316 5815   6.538   5.755   8.347 -0.0709 -0.5057  0.3700
   68SAPC  H16X 5816   6.542   5.666   8.413  0.3596 -0.5949  0.2272
   68SAPC  H16Y 5817   6.535   5.840   8.419  0.4292 -0.0556 -0.1293
   68SAPC  C317 5818   6.670   5.773   8.276 -0.1051 -0.4428 -0.0481
   68SAPC  H17X 5819   6.663   5.868   8.219  1.4931  0.4558  1.1647
   68SAPC  H17Y 5820   6.688   5.686   8.209  1.4126 -3.0315  3.3709
   68SAPC  C318 5821   6.790   5.784   8.379  0.1849  0.6988 -0.1800
   68SAPC  H18X 5822   6.784   5.686   8.431 -0.8864 -1.1463 -3.5267
   68SAPC  H18Y 5823   6.776   5.875   8.442 -1.3636  0.9477 -0.8537
   68SAPC  H18Z 5824   6.889   5.785   8.329 -0.3725 -1.2828 -1.3899
   69SLPC     N 5825   3.851   3.491  11.070 -0.0422  0.4783  0.4183
   69SLPC   C13 5826   3.936   3.536  11.182  0.0771  0.2580 -0.2050
   69SLPC  H13A 5827   3.915   3.638  11.213  0.6810  0.8082 -1.5182
   69SLPC  H13B 5828   3.941   3.472  11.269  1.6026  1.5977  0.7596
   69SLPC  H13C 5829   4.036   3.538  11.143  0.1326  0.3544 -0.0578
   69SLPC   C14 5830   3.708   3.498  11.117  0.0368 -0.1614  0.1024
   69SLPC  H14A 5831   3.682   3.602  11.128  0.2803 -0.3619  3.7026
   69SLPC  H14B 5832   3.638   3.451  11.049  0.6886  0.4119 -0.9891
   69SLPC  H14C 5833   3.703   3.450  11.213  3.1898  0.3084  0.6069
   69SLPC   C15 5834   3.879   3.344  11.047 -0.1397 -0.5264 -0.0513
   69SLPC  H15A 5835   3.982   3.331  11.018 -0.4472 -1.8128 -0.6252
   69SLPC  H15B 5836   3.853   3.279  11.129  2.4384 -0.4987  0.8782
   69SLPC  H15C 5837   3.826   3.294  10.967 -1.7712 -0.4880  0.9570
   69SLPC   C12 5838   3.881   3.575  10.952  0.0252  0.0978  0.2899
   69SLPC  H12A 5839   3.871   3.681  10.975 -3.9342  0.0562 -0.4243
   69SLPC  H12B 5840   3.811   3.552  10.873  1.8684  0.9082 -1.6945
   69SLPC   C11 5841   4.013   3.542  10.875  0.2301 -0.4817  0.2435
   69SLPC  H11A 5842   4.018   3.606  10.785  2.8863  2.4199  2.2485
   69SLPC  H11B 5843   4.019   3.436  10.840  0.3028 -0.5476  0.4525
   69SLPC     P 5844   4.201   3.687  10.953 -0.5924  0.1743  0.2696
   69SLPC   O13 5845   4.114   3.810  10.963 -0.0923  0.2327 -0.2049
   69SLPC   O14 5846   4.308   3.683  11.058 -0.0929  0.7971 -0.5040
   69SLPC   O12 5847   4.126   3.550  10.964  0.0499  0.1732 -0.4291
   69SLPC   O11 5848   4.269   3.694  10.807  0.0211  0.2941  0.1883
   69SLPC    C1 5849   4.347   3.586  10.762 -0.0355  0.3045 -0.8822
   69SLPC    HA 5850   4.449   3.591  10.808  0.6679 -0.7011 -2.2656
   69SLPC    HB 5851   4.298   3.491  10.792 -0.0295  1.3187  2.8082
   69SLPC    C2 5852   4.352   3.575  10.605  0.7579  0.2365  0.0113
   69SLPC    HS 5853   4.439   3.522  10.560 -0.1106  0.5280 -2.1517
   69SLPC   O21 5854   4.347   3.709  10.542  0.4940  0.9554  0.1187
   69SLPC   C21 5855   4.452   3.774  10.574 -0.0921  0.5424  0.1929
   69SLPC   O22 5856   4.544   3.721  10.640  0.1335  0.0256 -0.5692
   69SLPC   C22 5857   4.434   3.912  10.517 -0.4220 -0.2982  0.5338
   69SLPC   H2R 5858   4.358   3.967  10.576 -1.0887 -0.4181 -0.1994
   69SLPC   H2S 5859   4.534   3.961  10.515  0.5700 -2.2546 -0.4150
   69SLPC    C3 5860   4.225   3.494  10.569  0.1795  0.1658  0.1098
   69SLPC    HX 5861   4.149   3.544  10.633  0.3971  1.2538 -0.4564
   69SLPC    HY 5862   4.233   3.387  10.596  0.2098 -0.2844 -1.6091
   69SLPC   O31 5863   4.194   3.493  10.425  0.1355  0.1415 -0.6837
   69SLPC   C31 5864   4.124   3.593  10.386 -0.5518  1.2965  0.0082
   69SLPC   O32 5865   4.069   3.679  10.453  0.5955 -0.4504 -0.4433
   69SLPC   C32 5866   4.119   3.587  10.237 -0.0146 -0.3476  1.0252
   69SLPC   H2X 5867   4.045   3.508  10.215  0.1314 -0.6688  1.6751
   69SLPC   H2Y 5868   4.219   3.568  10.192 -0.4379 -0.1117 -0.0411
   69SLPC   C23 5869   4.385   3.922  10.362  0.3754  0.0256 -0.0348
   69SLPC   H3R 5870   4.279   3.888  10.371 -0.1411  1.3632 -0.7736
   69SLPC   H3S 5871   4.439   3.851  10.296  1.0708 -0.0104  0.5692
   69SLPC   C24 5872   4.391   4.068  10.298  0.2152 -0.1950  0.0045
   69SLPC   H4R 5873   4.496   4.103  10.290 -0.7741  2.9558 -0.4388
   69SLPC   H4S 5874   4.343   4.142  10.365  2.2859 -0.9832  2.5355
   69SLPC   C25 5875   4.324   4.071  10.156  0.2806 -0.6262 -0.0679
   69SLPC   H5R 5876   4.311   4.180  10.140  1.4437 -0.3455  0.7427
   69SLPC   H5S 5877   4.220   4.032  10.161  0.7852 -1.8539  2.7125
   69SLPC   C26 5878   4.407   4.014  10.033  1.0968  0.3034  0.7133
   69SLPC   H6R 5879   4.399   3.905  10.052 -0.0592  0.2959  0.2847
   69SLPC   H6S 5880   4.510   4.044  10.060  0.8287  0.6249  1.4259
   69SLPC   C27 5881   4.372   4.068   9.896  0.4109 -0.1349  0.1420
   69SLPC   H7R 5882   4.364   4.179   9.903 -2.3253 -0.3666  3.8091
   69SLPC   H7S 5883   4.270   4.045   9.857 -0.4508  0.1688  2.1393
   69SLPC   C28 5884   4.484   4.036   9.794  0.5599 -0.2383  0.5966
   69SLPC   H8R 5885   4.578   4.054   9.850  0.3448 -2.6440  1.8480
   69SLPC   H8S 5886   4.477   4.119   9.720 -0.9068 -1.9529 -1.3312
   69SLPC   C29 5887   4.471   3.900   9.734  0.0183  0.0853 -0.1810
   69SLPC   H9R 5888   4.472   3.825   9.814  0.9744 -0.4397 -0.6733
   69SLPC  C210 5889   4.454   3.862   9.604  0.9674 -0.2534  0.5199
   69SLPC  H10R 5890   4.417   3.760   9.585  1.6847 -0.7459  1.6817
   69SLPC  C211 5891   4.434   3.964   9.494  1.7102  0.2367  0.1254
   69SLPC  H11R 5892   4.457   3.922   9.394  0.8097  1.6697 -0.7334
   69SLPC  H11S 5893   4.504   4.048   9.515  1.2051  0.5528  0.5636
   69SLPC  C212 5894   4.297   4.039   9.488 -0.8625  0.5955 -1.3397
   69SLPC  H12R 5895   4.266   4.083   9.584  1.4388 -1.2877  0.3672
   69SLPC  C213 5896   4.235   4.080   9.375  0.4743 -0.1713  0.0835
   69SLPC  H13R 5897   4.149   4.148   9.383  1.3711  1.1295 -0.9364
   69SLPC  C214 5898   4.273   4.062   9.231 -0.0014 -0.1674 -0.4112
   69SLPC  H14R 5899   4.367   4.005   9.216  0.7416  0.5612  1.1883
   69SLPC  H14S 5900   4.294   4.163   9.192  1.6098 -0.0566  0.6424
   69SLPC  C215 5901   4.166   3.995   9.147  0.2536  0.0040  0.7902
   69SLPC  H15R 5902   4.073   4.054   9.164  1.6826  2.4597  0.5733
   69SLPC  H15S 5903   4.159   3.888   9.177 -0.5622 -0.2121 -0.1066
   69SLPC  C216 5904   4.196   3.993   8.993  0.2884  0.0490 -0.2969
   69SLPC  H16R 5905   4.287   3.934   8.973 -0.3675 -0.2223 -2.9503
   69SLPC  H16S 5906   4.227   4.094   8.958 -1.0525  1.0321  1.1562
   69SLPC  C217 5907   4.087   3.914   8.915  0.2245 -0.6531 -0.3224
   69SLPC  H17R 5908   3.987   3.923   8.964  0.3193 -1.4429  0.0402
   69SLPC  H17S 5909   4.107   3.810   8.948 -1.4878 -0.8412  0.2803
   69SLPC  C218 5910   4.080   3.935   8.765  0.6316 -0.6522 -0.4115
   69SLPC  H18R 5911   4.064   4.041   8.735 -1.2818 -1.0812 -1.0366
   69SLPC  H18S 5912   3.999   3.885   8.708  0.1505  0.7744 -1.0399
   69SLPC  H18T 5913   4.181   3.909   8.728  0.6548 -0.6454 -0.3532
   69SLPC   C33 5914   4.054   3.720  10.175 -0.6271  0.7246  0.0668
   69SLPC   H3X 5915   4.131   3.800  10.176 -1.2149  1.3496 -1.3541
   69SLPC   H3Y 5916   3.963   3.754  10.230 -0.6011 -1.1084  1.3240
   69SLPC   C34 5917   4.014   3.687  10.032 -0.1692  0.3199 -0.4545
   69SLPC   H4X 5918   3.928   3.617  10.029 -0.0115  0.1675 -2.1879
   69SLPC   H4Y 5919   4.091   3.626   9.981 -0.4208 -1.3431  1.0518
   69SLPC   C35 5920   3.982   3.814   9.945  0.1707  0.0817 -0.1846
   69SLPC   H5X 5921   4.066   3.886   9.952 -0.8180  1.2792 -0.2252
   69SLPC   H5Y 5922   3.895   3.867   9.990  0.6973  0.8467 -0.0436
   69SLPC   C36 5923   3.943   3.785   9.805  0.3528 -0.9964  0.2471
   69SLPC   H6X 5924   3.876   3.865   9.765  1.6112  0.0703  0.2032
   69SLPC   H6Y 5925   3.879   3.695   9.815  1.5426 -2.1911 -2.0827
   69SLPC   C37 5926   4.063   3.779   9.712 -0.1430 -0.2661  0.1523
   69SLPC   H7X 5927   4.131   3.691   9.726 -0.0380 -0.1051  0.6619
   69SLPC   H7Y 5928   4.132   3.865   9.730  0.2825  0.1603 -2.9814
   69SLPC   C38 5929   4.020   3.771   9.563  0.9433  0.4136  0.1254
   69SLPC   H8X 5930   4.113   3.766   9.503 -0.0506 -1.1903 -1.3708
   69SLPC   H8Y 5931   3.969   3.864   9.531 -0.0742  0.1640  0.9606
   69SLPC   C39 5932   3.945   3.642   9.538 -0.3370  0.6873  0.9250
   69SLPC   H9X 5933   3.848   3.649   9.593 -1.2439  0.6802 -0.5981
   69SLPC   H9Y 5934   4.000   3.563   9.593  1.1273 -0.6780 -2.2338
   69SLPC  C310 5935   3.913   3.631   9.394  0.0247 -0.4331  0.2205
   69SLPC  H10X 5936   4.001   3.651   9.330 -0.2951 -0.0888 -0.1182
   69SLPC  H10Y 5937   3.840   3.715   9.391  1.3405  0.9519  2.9596
   69SLPC  C311 5938   3.859   3.498   9.345 -0.1428  0.4606 -0.7648
   69SLPC  H11X 5939   3.757   3.477   9.382  0.1318  0.4559  0.0014
   69SLPC  H11Y 5940   3.931   3.419   9.375 -0.3793  0.8933  1.0406
   69SLPC  C312 5941   3.840   3.491   9.196 -0.4535 -0.3744  0.3791
   69SLPC  H12X 5942   3.827   3.381   9.183 -0.0141 -0.2674 -1.1820
   69SLPC  H12Y 5943   3.923   3.520   9.129 -1.4786 -1.4357 -1.4466
   69SLPC  C313 5944   3.723   3.573   9.134  0.0302  0.0132 -0.1729
   69SLPC  H13X 5945   3.747   3.682   9.134 -1.4353  0.3734  0.7882
   69SLPC  H13Y 5946   3.637   3.566   9.204 -0.2917  2.5514 -0.2269
   69SLPC  C314 5947   3.673   3.535   8.994  0.0660 -0.0269 -0.4014
   69SLPC  H14X 5948   3.742   3.577   8.918 -2.6078  0.3317 -2.8428
   69SLPC  H14Y 5949   3.578   3.590   8.977 -0.4368 -0.5373  0.6209
   69SLPC  C315 5950   3.638   3.389   8.975  0.9866  0.5973 -0.6550
   69SLPC  H15X 5951   3.577   3.343   9.056  0.2434 -1.6542 -2.3683
   69SLPC  H15Y 5952   3.730   3.326   8.973  1.5047  1.3467 -0.7288
   69SLPC  C316 5953   3.571   3.362   8.835 -0.3089 -0.0348  0.4481
   69SLPC  H16X 5954   3.600   3.263   8.793 -2.5888 -0.6009  0.1170
   69SLPC  H16Y 5955   3.625   3.433   8.767  2.2437 -1.8081  0.4960
   69SLPC  C317 5956   3.420   3.375   8.837 -0.1902 -0.2261 -0.2286
   69SLPC  H17X 5957   3.404   3.477   8.878 -1.8737 -0.5321 -0.0621
   69SLPC  H17Y 5958   3.376   3.313   8.917  1.0230  1.7042  2.0675
   69SLPC  C318 5959   3.354   3.355   8.703  0.1616  0.7342  0.1722
   69SLPC  H18X 5960   3.387   3.428   8.627  3.2108 -2.6133 -2.0932
   69SLPC  H18Y 5961   3.245   3.365   8.723  0.0617 -0.1827  0.1548
   69SLPC  H18Z 5962   3.366   3.253   8.661  1.5523  0.3112  1.4769
   70SLPC     N 5963   5.918   3.241  11.101  0.1524  0.1900  0.4792
   70SLPC   C13 5964   6.068   3.259  11.087  0.7801 -0.1540 -0.0670
   70SLPC  H13A 5965   6.099   3.335  11.017  3.3240 -1.5349 -0.5438
   70SLPC  H13B 5966   6.115   3.287  11.180  0.9597 -0.3280 -0.1031
   70SLPC  H13C 5967   6.104   3.161  11.057 -1.4820 -1.4393  1.1120
   70SLPC   C14 5968   5.852   3.370  11.102 -0.1805 -0.2065 -0.3406
   70SLPC  H14A 5969   5.745   3.366  11.105 -0.3318  2.2624 -0.5084
   70SLPC  H14B 5970   5.879   3.438  11.182 -2.5433  1.6919 -1.0472
   70SLPC  H14C 5971   5.864   3.421  11.007 -2.7349  1.1665  0.0051
   70SLPC   C15 5972   5.896   3.174  11.228  0.0323  0.9821 -0.2341
   70SLPC  H15A 5973   5.939   3.234  11.306  2.1507  0.5590 -0.9982
   70SLPC  H15B 5974   5.799   3.142  11.263  1.2163 -3.7766 -0.5847
   70SLPC  H15C 5975   5.951   3.081  11.232 -2.8918 -0.8472  1.6008
   70SLPC   C12 5976   5.855   3.163  10.985  0.4956 -0.2017 -0.0399
   70SLPC  H12A 5977   5.887   3.060  10.979  1.0059  0.0317 -2.1129
   70SLPC  H12B 5978   5.900   3.211  10.899  4.3292  0.9834  2.3910
   70SLPC   C11 5979   5.702   3.158  10.975  0.2548 -0.1360  0.1811
   70SLPC  H11A 5980   5.658   3.101  11.060 -0.2473  0.7724  0.5410
   70SLPC  H11B 5981   5.689   3.092  10.886  3.0147 -1.7828  0.8640
   70SLPC     P 5982   5.476   3.280  10.945  0.0089 -0.3310 -0.1626
   70SLPC   O13 5983   5.430   3.220  11.072 -0.0684 -0.2612  0.4846
   70SLPC   O14 5984   5.422   3.414  10.917  0.4743  0.0958 -0.4776
   70SLPC   O12 5985   5.629   3.281  10.944  0.0878  0.4322  0.1315
   70SLPC   O11 5986   5.446   3.188  10.821 -0.3244 -0.1229  0.1680
   70SLPC    C1 5987   5.524   3.218  10.703 -0.1261 -0.3570 -0.2903
   70SLPC    HA 5988   5.540   3.327  10.691  0.4796  0.1178  3.5558
   70SLPC    HB 5989   5.624   3.170  10.700 -0.6009 -1.3271 -0.9693
   70SLPC    C2 5990   5.442   3.181  10.578  0.3643 -0.7673  0.4997
   70SLPC    HS 5991   5.335   3.198  10.603 -0.0973  3.7840 -3.0974
   70SLPC   O21 5992   5.469   3.045  10.543 -0.1634 -0.0472  0.3952
   70SLPC   C21 5993   5.369   2.973  10.500 -0.3468  0.5295  0.1415
   70SLPC   O22 5994   5.256   3.004  10.478  0.2364 -0.2865  0.0671
   70SLPC   C22 5995   5.429   2.830  10.477 -0.0986 -0.8037  0.1183
   70SLPC   H2R 5996   5.540   2.831  10.478 -0.1055 -0.7744  1.2096
   70SLPC   H2S 5997   5.399   2.754  10.553  3.2688 -2.5866 -0.1372
   70SLPC    C3 5998   5.482   3.267  10.455 -0.6042 -0.2604 -0.4382
   70SLPC    HX 5999   5.592   3.258  10.448 -0.7111 -1.1237 -1.2328
   70SLPC    HY 6000   5.455   3.374  10.468  0.1611  0.1729 -2.0877
   70SLPC   O31 6001   5.427   3.211  10.330  0.0698 -0.0589 -0.1027
   70SLPC   C31 6002   5.312   3.256  10.296  0.0753 -0.2309 -0.1974
   70SLPC   O32 6003   5.250   3.334  10.368 -0.3782 -0.6325 -0.0542
   70SLPC   C32 6004   5.275   3.195  10.165 -0.1271 -0.2257 -0.0689
   70SLPC   H2X 6005   5.230   3.095  10.177 -1.3295  0.0492 -1.7918
   70SLPC   H2Y 6006   5.361   3.188  10.095 -0.4779 -0.6093 -0.4690
   70SLPC   C23 6007   5.380   2.784  10.344 -1.0444  0.6120  0.8148
   70SLPC   H3R 6008   5.273   2.810  10.325 -1.0479  0.6371  0.8708
   70SLPC   H3S 6009   5.369   2.674  10.332 -0.7335  0.4290  2.0831
   70SLPC   C24 6010   5.472   2.835  10.230 -0.2965  0.4050  0.3372
   70SLPC   H4R 6011   5.578   2.804  10.245 -0.2533  0.6195  0.4739
   70SLPC   H4S 6012   5.474   2.945  10.238 -0.1716  0.3582  1.0135
   70SLPC   C25 6013   5.430   2.797  10.087  0.2418 -0.7074 -0.0340
   70SLPC   H5R 6014   5.322   2.824  10.083  0.2346 -0.7700 -0.2518
   70SLPC   H5S 6015   5.435   2.690  10.059  0.5694 -0.3122 -1.5426
   70SLPC   C26 6016   5.502   2.886   9.990  0.3141  0.0051  0.4048
   70SLPC   H6R 6017   5.608   2.851   9.997  1.0038  2.1570  1.8467
   70SLPC   H6S 6018   5.523   2.990  10.024 -0.5662  0.6123 -0.8006
   70SLPC   C27 6019   5.457   2.868   9.844 -0.4230 -0.3971  0.8188
   70SLPC   H7R 6020   5.409   2.768   9.835 -0.1330 -0.6512  1.9537
   70SLPC   H7S 6021   5.549   2.862   9.781  0.5450 -0.1052  2.1677
   70SLPC   C28 6022   5.365   2.978   9.794 -0.0165  0.1599 -0.1223
   70SLPC   H8R 6023   5.267   2.971   9.844  0.0835 -0.1423  0.0305
   70SLPC   H8S 6024   5.340   2.964   9.686  1.0124 -0.6047 -0.2814
   70SLPC   C29 6025   5.428   3.117   9.814 -0.3464 -0.5525 -0.5370
   70SLPC   H9R 6026   5.460   3.135   9.918  2.4399  0.9620 -1.5448
   70SLPC  C210 6027   5.458   3.199   9.716 -0.3115  0.1439  0.5709
   70SLPC  H10R 6028   5.506   3.295   9.742  1.1541 -0.6833  1.0574
   70SLPC  C211 6029   5.432   3.181   9.570  0.3155  0.2056  0.1995
   70SLPC  H11R 6030   5.469   3.080   9.541 -0.9113 -0.2557  0.1616
   70SLPC  H11S 6031   5.492   3.252   9.509  0.6402 -1.7813 -1.9152
   70SLPC  C212 6032   5.284   3.196   9.552 -0.1561 -0.2341 -0.0031
   70SLPC  H12R 6033   5.221   3.216   9.641 -2.8254 -1.2141 -1.5409
   70SLPC  C213 6034   5.224   3.201   9.433  0.1767 -0.2667  0.5471
   70SLPC  H13R 6035   5.119   3.230   9.423 -0.0368 -0.2502  2.5567
   70SLPC  C214 6036   5.306   3.187   9.303  0.5062  0.0431 -0.0813
   70SLPC  H14R 6037   5.416   3.178   9.314  0.3281 -1.9529  0.3762
   70SLPC  H14S 6038   5.291   3.279   9.241 -0.7086  1.0068  1.5599
   70SLPC  C215 6039   5.257   3.057   9.228 -0.1040 -0.3579 -0.1970
   70SLPC  H15R 6040   5.288   2.964   9.280 -2.4858 -0.9835  0.2240
   70SLPC  H15S 6041   5.312   3.057   9.132  1.0128 -0.6460  0.4297
   70SLPC  C216 6042   5.109   3.073   9.198  0.5503 -0.2337  0.8515
   70SLPC  H16R 6043   5.091   3.182   9.208  2.4624  0.2785 -0.5855
   70SLPC  H16S 6044   5.057   3.026   9.284 -1.5076 -0.5641 -0.5138
   70SLPC  C217 6045   5.061   3.012   9.076 -0.3755  0.7029  0.4448
   70SLPC  H17R 6046   5.116   3.056   8.989  0.0790 -1.9063 -0.6974
   70SLPC  H17S 6047   4.952   3.025   9.059 -0.0936 -0.7101 -3.5955
   70SLPC  C218 6048   5.089   2.858   9.070  0.1795  0.0522 -0.0270
   70SLPC  H18R 6049   5.030   2.803   9.147  1.4333 -0.6255  0.4733
   70SLPC  H18S 6050   5.196   2.841   9.092  0.6344  0.0808 -2.0894
   70SLPC  H18T 6051   5.052   2.821   8.972  0.2807  1.1242 -0.4749
   70SLPC   C33 6052   5.171   3.291  10.095 -0.1317 -0.0135 -0.1375
   70SLPC   H3X 6053   5.239   3.354  10.035  1.1469  0.2327  1.4927
   70SLPC   H3Y 6054   5.123   3.363  10.165 -0.9485  0.2983 -0.9917
   70SLPC   C34 6055   5.073   3.217  10.005 -0.0405  0.1618 -0.8084
   70SLPC   H4X 6056   4.985   3.189  10.067 -0.0140  0.1759 -0.7652
   70SLPC   H4Y 6057   5.121   3.121   9.976 -0.0357 -0.5530  1.3744
   70SLPC   C35 6058   5.024   3.314   9.890  0.2601  0.2272 -0.4991
   70SLPC   H5X 6059   5.117   3.347   9.840 -0.1246  0.0058 -1.3842
   70SLPC   H5Y 6060   4.980   3.406   9.935  0.1034 -0.3691  0.6012
   70SLPC   C36 6061   4.924   3.254   9.797 -0.6433  0.8488 -0.4006
   70SLPC   H6X 6062   4.825   3.239   9.845  0.2085 -0.1655  1.1578
   70SLPC   H6Y 6063   4.960   3.150   9.779  0.4375  0.5784  2.6266
   70SLPC   C37 6064   4.907   3.322   9.660 -0.1409 -0.4674 -0.6679
   70SLPC   H7X 6065   5.011   3.336   9.623  0.5000  2.6125  1.9052
   70SLPC   H7Y 6066   4.864   3.423   9.677  2.9292  0.6533  1.3444
   70SLPC   C38 6067   4.812   3.245   9.575 -0.1326 -0.1732 -0.9093
   70SLPC   H8X 6068   4.721   3.219   9.632  1.7727 -1.0884  1.9416
   70SLPC   H8Y 6069   4.841   3.141   9.548 -0.7372 -0.2618 -1.2233
   70SLPC   C39 6070   4.781   3.309   9.445 -0.0465 -0.7879  0.0257
   70SLPC   H9X 6071   4.869   3.327   9.380  0.5357 -0.1479  0.9564
   70SLPC   H9Y 6072   4.722   3.401   9.464 -1.6250 -1.9282  0.9464
   70SLPC  C310 6073   4.684   3.224   9.367 -0.0140  0.4858  0.6840
   70SLPC  H10X 6074   4.586   3.209   9.417 -0.8722  1.7426 -0.5529
   70SLPC  H10Y 6075   4.716   3.118   9.366 -3.1966 -0.5619  0.2667
   70SLPC  C311 6076   4.646   3.276   9.229  0.3818 -0.1387  0.1012
   70SLPC  H11X 6077   4.658   3.386   9.233  3.0246 -0.3617 -0.2466
   70SLPC  H11Y 6078   4.541   3.252   9.202 -0.4010  2.8836  0.1591
   70SLPC  C312 6079   4.742   3.221   9.124 -0.6487 -0.0562  0.2384
   70SLPC  H12X 6080   4.728   3.116   9.091 -0.1193  0.1543 -0.6790
   70SLPC  H12Y 6081   4.847   3.237   9.155 -0.1387  0.4929 -1.6796
   70SLPC  C313 6082   4.721   3.296   8.986 -0.1180  0.2844  0.3372
   70SLPC  H13X 6083   4.708   3.406   8.995 -0.4008  0.3717 -0.9713
   70SLPC  H13Y 6084   4.629   3.255   8.940  0.2406 -2.4837  1.8847
   70SLPC  C314 6085   4.819   3.254   8.879  0.6744  0.6380 -0.5650
   70SLPC  H14X 6086   4.808   3.147   8.850 -1.1771  1.0677 -1.5883
   70SLPC  H14Y 6087   4.927   3.258   8.908  1.0665 -2.2781 -1.2358
   70SLPC  C315 6088   4.811   3.345   8.756 -0.4259 -0.4004 -0.1229
   70SLPC  H15X 6089   4.714   3.324   8.705  0.4652  0.8907 -2.5309
   70SLPC  H15Y 6090   4.881   3.302   8.681 -1.5229 -0.5828 -1.0823
   70SLPC  C316 6091   4.827   3.495   8.784 -0.0345  0.7037  0.4221
   70SLPC  H16X 6092   4.895   3.512   8.870 -2.1149 -0.1350  2.3229
   70SLPC  H16Y 6093   4.733   3.548   8.812 -1.1770 -0.1358 -1.6107
   70SLPC  C317 6094   4.878   3.560   8.651 -0.4521  0.2088  0.2543
   70SLPC  H17X 6095   4.977   3.510   8.641  0.0318  1.1145  0.3666
   70SLPC  H17Y 6096   4.882   3.668   8.677  0.9880 -0.3705  2.8066
   70SLPC  C318 6097   4.779   3.544   8.532 -0.2755  0.3333  0.1271
   70SLPC  H18X 6098   4.811   3.593   8.438 -4.2263  1.5774 -0.7410
   70SLPC  H18Y 6099   4.678   3.579   8.560 -1.1513 -1.6576 -0.3962
   70SLPC  H18Z 6100   4.766   3.437   8.508 -1.8412  0.0676  1.9452
   71SLPC     N 6101   3.349   0.573  10.754 -0.3733 -0.0514  0.4238
   71SLPC   C13 6102   3.397   0.523  10.617  0.2307  0.0115 -0.0373
   71SLPC  H13A 6103   3.330   0.559  10.540 -1.5379  1.7172  2.1841
   71SLPC  H13B 6104   3.497   0.558  10.594  0.7074 -0.0249  1.8475
   71SLPC  H13C 6105   3.391   0.415  10.620 -1.4491  0.0393 -1.2474
   71SLPC   C14 6106   3.436   0.521  10.863  0.7645 -0.4439  0.5976
   71SLPC  H14A 6107   3.539   0.553  10.856 -0.0503  2.9291  1.8542
   71SLPC  H14B 6108   3.403   0.553  10.961  0.7485 -2.4893  1.3126
   71SLPC  H14C 6109   3.418   0.415  10.865 -1.2567 -0.1781 -0.8850
   71SLPC   C15 6110   3.210   0.527  10.772  0.5426  0.3397 -0.5503
   71SLPC  H15A 6111   3.147   0.552  10.688  0.3024  0.5187 -0.3195
   71SLPC  H15B 6112   3.205   0.419  10.771 -1.7911  0.2882  2.1985
   71SLPC  H15C 6113   3.161   0.561  10.862  0.3513  1.9307 -1.2315
   71SLPC   C12 6114   3.366   0.720  10.751  0.1624 -0.3065 -0.0096
   71SLPC  H12A 6115   3.471   0.741  10.747  0.6781 -2.6970 -0.9302
   71SLPC  H12B 6116   3.338   0.761  10.847 -1.9244  1.3049 -1.2003
   71SLPC   C11 6117   3.280   0.797  10.648 -0.1556 -0.3650 -0.0146
   71SLPC  H11A 6118   3.293   0.757  10.545 -2.0768  0.6477 -0.6950
   71SLPC  H11B 6119   3.313   0.902  10.630 -1.2018 -0.5226 -3.7336
   71SLPC     P 6120   3.079   0.905  10.767  0.1193  0.2455 -0.2416
   71SLPC   O13 6121   2.945   0.865  10.806  0.8285  0.3104  0.3152
   71SLPC   O14 6122   3.176   0.951  10.867 -0.4948  0.1032 -0.3748
   71SLPC   O12 6123   3.141   0.787  10.674  0.0354 -0.4584  0.4180
   71SLPC   O11 6124   3.073   1.025  10.660  0.4387  0.3375 -0.4752
   71SLPC    C1 6125   2.953   1.078  10.600 -0.3431  1.0414  0.3392
   71SLPC    HA 6126   2.861   1.051  10.655 -0.0790  2.5097  1.5812
   71SLPC    HB 6127   2.955   1.188  10.587 -0.0705  1.0122  0.1269
   71SLPC    C2 6128   2.921   1.004  10.471  0.0024  0.5077 -0.1560
   71SLPC    HS 6129   2.901   0.896  10.491 -3.4116  0.8411 -1.0842
   71SLPC   O21 6130   3.032   1.024  10.383 -0.2715  0.2954 -0.3658
   71SLPC   C21 6131   3.078   0.916  10.325  0.0377 -0.3864 -0.8010
   71SLPC   O22 6132   3.039   0.802  10.344 -0.2758 -0.0055  0.2730
   71SLPC   C22 6133   3.182   0.965  10.223 -0.1463  0.4829 -0.4007
   71SLPC   H2R 6134   3.135   1.006  10.131  3.0835  0.7954 -2.0455
   71SLPC   H2S 6135   3.231   1.055  10.266 -0.8532  0.0707  1.3482
   71SLPC    C3 6136   2.789   1.054  10.413  0.3490 -0.5184  0.1810
   71SLPC    HX 6137   2.784   1.163  10.389 -0.9004 -0.6659 -0.2863
   71SLPC    HY 6138   2.713   1.039  10.492 -0.5373 -0.7152 -0.6837
   71SLPC   O31 6139   2.753   0.970  10.302 -0.3971  0.4373 -0.0652
   71SLPC   C31 6140   2.654   1.008  10.233 -0.3615  0.1464  0.2129
   71SLPC   O32 6141   2.604   1.122  10.234  0.5233 -0.8574  0.3616
   71SLPC   C32 6142   2.605   0.906  10.141 -0.1144  0.8617  0.2166
   71SLPC   H2X 6143   2.505   0.937  10.103  0.2824  1.8867 -0.0026
   71SLPC   H2Y 6144   2.589   0.806  10.187  1.4433  1.1762  1.4952
   71SLPC   C23 6145   3.281   0.856  10.179 -0.3175 -0.1600  0.2840
   71SLPC   H3R 6146   3.209   0.776  10.152 -1.6163  1.3227 -0.7808
   71SLPC   H3S 6147   3.348   0.826  10.263 -1.0470 -1.0186  0.5776
   71SLPC   C24 6148   3.371   0.896  10.065 -0.2823  0.3204  0.2696
   71SLPC   H4R 6149   3.311   0.955   9.992 -0.0220 -0.4406 -0.5875
   71SLPC   H4S 6150   3.402   0.801  10.016  0.9514  0.8797 -0.0617
   71SLPC   C25 6151   3.506   0.980  10.098  1.3726  0.3060 -0.1010
   71SLPC   H5R 6152   3.571   0.912  10.157  0.6679 -1.0495 -0.8330
   71SLPC   H5S 6153   3.473   1.061  10.166  1.1416 -1.4413  1.9798
   71SLPC   C26 6154   3.556   1.035   9.969  0.5826  0.0500  0.1725
   71SLPC   H6R 6155   3.492   1.117   9.929  0.4785  0.6348  1.4940
   71SLPC   H6S 6156   3.565   0.955   9.892 -0.0511  0.5738 -0.4693
   71SLPC   C27 6157   3.697   1.091   9.991 -0.3205 -0.2718  0.5115
   71SLPC   H7R 6158   3.765   1.015  10.033 -0.4683 -1.1375 -0.7600
   71SLPC   H7S 6159   3.684   1.183  10.053  0.2565  0.2303 -0.0957
   71SLPC   C28 6160   3.751   1.148   9.858 -0.3659 -0.7074  0.4085
   71SLPC   H8R 6161   3.721   1.255   9.850 -1.6289 -1.1151 -0.7237
   71SLPC   H8S 6162   3.711   1.103   9.765  0.2892  0.3177 -0.3963
   71SLPC   C29 6163   3.901   1.152   9.862 -0.3129 -0.4300 -0.0148
   71SLPC   H9R 6164   3.942   1.214   9.943  0.4463 -1.6128  0.5369
   71SLPC  C210 6165   3.991   1.090   9.777  0.0841  0.1876 -0.2919
   71SLPC  H10R 6166   4.097   1.094   9.803  0.1560 -0.2245 -0.5019
   71SLPC  C211 6167   3.951   1.001   9.657 -0.0266  0.1461  0.1666
   71SLPC  H11R 6168   4.046   0.979   9.602 -0.5894  1.0157 -1.2060
   71SLPC  H11S 6169   3.895   1.069   9.590 -0.4764 -0.1233  0.2625
   71SLPC  C212 6170   3.870   0.881   9.687 -0.4437  1.0343 -0.1130
   71SLPC  H12R 6171   3.918   0.812   9.758  2.9849  1.4351 -1.8617
   71SLPC  C213 6172   3.769   0.834   9.617  0.0793  0.1871  0.3627
   71SLPC  H13R 6173   3.732   0.733   9.642  0.6661 -0.0833  0.1533
   71SLPC  C214 6174   3.706   0.896   9.499 -0.3421 -0.3461 -0.3426
   71SLPC  H14R 6175   3.739   0.998   9.469 -1.2047  0.4865  1.4239
   71SLPC  H14S 6176   3.596   0.903   9.510 -0.3926 -0.9211 -0.4208
   71SLPC  C215 6177   3.740   0.808   9.381  0.3691  0.6053 -0.0835
   71SLPC  H15R 6178   3.697   0.706   9.392 -0.7840  1.0922  0.0869
   71SLPC  H15S 6179   3.848   0.793   9.359  0.3924 -0.8278  0.8609
   71SLPC  C216 6180   3.674   0.852   9.248 -0.2418  0.1282  0.2999
   71SLPC  H16R 6181   3.728   0.947   9.228 -1.9950  1.1727  0.3068
   71SLPC  H16S 6182   3.569   0.885   9.262 -0.8738 -0.6302 -2.1708
   71SLPC  C217 6183   3.690   0.743   9.133 -0.5196 -0.5865  0.5759
   71SLPC  H17R 6184   3.678   0.643   9.178  1.7389 -0.7770  0.8749
   71SLPC  H17S 6185   3.794   0.755   9.093 -0.7572  1.2752  0.4126
   71SLPC  C218 6186   3.586   0.777   9.024  0.8700  0.1301  0.3547
   71SLPC  H18R 6187   3.632   0.809   8.928  0.6676  0.7599  0.4678
   71SLPC  H18S 6188   3.523   0.862   9.056  3.7181  2.8822 -0.7289
   71SLPC  H18T 6189   3.519   0.689   9.017 -0.3586  1.1538 -2.2454
   71SLPC   C33 6190   2.709   0.884  10.026  0.2919 -0.8225 -0.3770
   71SLPC   H3X 6191   2.741   0.982   9.985  0.1618 -0.6778 -0.1348
   71SLPC   H3Y 6192   2.661   0.839   9.936 -1.5342  0.1888  0.0335
   71SLPC   C34 6193   2.824   0.793  10.069 -0.4247 -0.0435  0.0445
   71SLPC   H4X 6194   2.784   0.695  10.102 -1.4550  0.5058  0.4625
   71SLPC   H4Y 6195   2.892   0.831  10.149 -3.2237  2.0496  1.5848
   71SLPC   C35 6196   2.919   0.756   9.953  0.4398 -0.0083  0.1205
   71SLPC   H5X 6197   2.851   0.694   9.892 -0.5220  0.3994  0.7542
   71SLPC   H5Y 6198   3.002   0.687   9.980 -0.4659 -0.9224  0.6020
   71SLPC   C36 6199   2.985   0.879   9.882  0.8075  0.2704  0.0455
   71SLPC   H6X 6200   2.997   0.956   9.961  0.2375  1.5418 -1.0737
   71SLPC   H6Y 6201   2.913   0.930   9.814  0.9688 -2.1722 -2.1484
   71SLPC   C37 6202   3.111   0.838   9.809 -1.4357 -0.3416  0.0249
   71SLPC   H7X 6203   3.083   0.767   9.728 -1.9755 -0.4990  0.3428
   71SLPC   H7Y 6204   3.172   0.775   9.877 -1.0463 -2.0706 -1.8281
   71SLPC   C38 6205   3.197   0.956   9.754  0.9316  0.3190  0.1236
   71SLPC   H8X 6206   3.223   1.023   9.838  0.4640  0.1144  0.4295
   71SLPC   H8Y 6207   3.128   1.016   9.691  0.2642 -1.5154 -0.9756
   71SLPC   C39 6208   3.332   0.920   9.686 -0.7306  0.5201  0.2792
   71SLPC   H9X 6209   3.396   0.888   9.771 -1.3904 -0.2602  0.5030
   71SLPC   H9Y 6210   3.383   1.013   9.655 -0.8030  0.8048  0.9875
   71SLPC  C310 6211   3.323   0.827   9.564 -0.1222 -0.8436 -0.2541
   71SLPC  H10X 6212   3.290   0.725   9.594 -4.4767  0.5589  0.5295
   71SLPC  H10Y 6213   3.425   0.805   9.527 -0.6977 -2.6523 -0.9262
   71SLPC  C311 6214   3.231   0.874   9.446  0.2524 -0.1042  0.5206
   71SLPC  H11X 6215   3.252   0.980   9.418 -3.6829  0.4927 -0.7527
   71SLPC  H11Y 6216   3.122   0.875   9.468 -0.0473 -1.2720 -0.8144
   71SLPC  C312 6217   3.251   0.777   9.326  0.7660 -0.2279 -0.3683
   71SLPC  H12X 6218   3.231   0.677   9.370  0.7193 -0.5179 -1.0483
   71SLPC  H12Y 6219   3.359   0.790   9.304  0.3626 -0.5403 -2.7436
   71SLPC  C313 6220   3.172   0.810   9.198 -0.6103  0.5354  0.1093
   71SLPC  H13X 6221   3.194   0.913   9.163  1.4242 -1.0912 -4.0429
   71SLPC  H13Y 6222   3.063   0.791   9.213 -0.1023 -2.3513  0.7530
   71SLPC  C314 6223   3.213   0.723   9.076  0.2598 -0.1855 -0.0744
   71SLPC  H14X 6224   3.170   0.624   9.105 -0.1160 -0.4642 -1.5162
   71SLPC  H14Y 6225   3.323   0.725   9.060 -0.0252 -0.2500 -2.3654
   71SLPC  C315 6226   3.144   0.776   8.952 -0.1242  0.1336 -0.3223
   71SLPC  H15X 6227   3.209   0.865   8.937  2.5413 -1.2661  1.8670
   71SLPC  H15Y 6228   3.045   0.822   8.972  1.4170  4.7077 -1.7289
   71SLPC  C316 6229   3.163   0.690   8.821 -0.1993 -0.4382 -0.0584
   71SLPC  H16X 6230   3.111   0.593   8.840  0.3321 -0.7480 -0.1799
   71SLPC  H16Y 6231   3.270   0.664   8.817 -0.1234 -0.7712  2.6114
   71SLPC  C317 6232   3.110   0.760   8.699  0.0631  0.6462  0.2757
   71SLPC  H17X 6233   3.174   0.849   8.679  0.2633  0.6656  0.9700
   71SLPC  H17Y 6234   3.004   0.787   8.723 -0.3567 -0.4227 -0.3391
   71SLPC  C318 6235   3.111   0.679   8.574  0.9614  0.5009 -0.2566
   71SLPC  H18X 6236   3.079   0.576   8.602  0.9258  0.5409 -0.1512
   71SLPC  H18Y 6237   3.214   0.667   8.533  1.9909 -3.0765  2.7874
   71SLPC  H18Z 6238   3.053   0.718   8.488  0.0706  1.0696  0.5947
   72SLPC     N 6239   4.858   6.551  10.957  0.6257 -0.0208 -0.0193
   72SLPC   C13 6240   4.864   6.645  11.072 -0.2839 -0.0883 -0.1432
   72SLPC  H13A 6241   4.847   6.745  11.035 -3.0791 -0.3229  0.3484
   72SLPC  H13B 6242   4.784   6.617  11.138 -0.8033  1.0830 -0.2432
   72SLPC  H13C 6243   4.960   6.631  11.121 -0.8431 -0.1547  0.9571
   72SLPC   C14 6244   4.731   6.582  10.886  0.7274 -0.3896  0.3356
   72SLPC  H14A 6245   4.704   6.686  10.892 -0.1527 -0.6188  0.5904
   72SLPC  H14B 6246   4.737   6.567  10.779 -0.6044 -0.5210  0.2553
   72SLPC  H14C 6247   4.645   6.530  10.928 -1.3792  1.4862 -1.3642
   72SLPC   C15 6248   4.866   6.411  11.003 -0.0413  0.0864 -0.5814
   72SLPC  H15A 6249   4.872   6.342  10.921 -3.3743  0.8086 -1.5552
   72SLPC  H15B 6250   4.957   6.408  11.061 -0.2174  1.6165 -0.1836
   72SLPC  H15C 6251   4.788   6.377  11.069  0.1995 -1.5803 -1.1210
   72SLPC   C12 6252   4.984   6.578  10.878  0.6376  0.4280 -0.2247
   72SLPC  H12A 6253   5.005   6.490  10.818 -2.2616  0.7722 -1.9090
   72SLPC  H12B 6254   5.064   6.577  10.951  0.1482  1.2291  0.3354
   72SLPC   C11 6255   4.983   6.703  10.789 -0.1885  0.0320  0.2653
   72SLPC  H11A 6256   4.910   6.699  10.705  0.6562 -3.6800 -0.5066
   72SLPC  H11B 6257   5.080   6.702  10.735  0.5294 -1.2554  1.4975
   72SLPC     P 6258   4.876   6.940  10.819  0.1063  0.2718  0.1166
   72SLPC   O13 6259   4.765   6.946  10.921 -0.7352 -0.0766  0.2589
   72SLPC   O14 6260   4.964   7.060  10.803  0.3131 -0.4542  0.2025
   72SLPC   O12 6261   4.973   6.824  10.863 -0.0061 -0.0737 -0.3805
   72SLPC   O11 6262   4.819   6.890  10.676  0.5151  0.0851 -0.4619
   72SLPC    C1 6263   4.825   6.976  10.563  0.5167  0.9264  0.0288
   72SLPC    HA 6264   4.914   7.041  10.554 -1.5418  4.0315  0.4266
   72SLPC    HB 6265   4.816   6.912  10.472 -1.9520  1.0615  0.1124
   72SLPC    C2 6266   4.709   7.078  10.552  0.0140 -0.3507 -0.5297
   72SLPC    HS 6267   4.727   7.153  10.631  0.2631 -0.8415 -0.1176
   72SLPC   O21 6268   4.580   7.009  10.560  0.3639 -0.2949 -0.1475
   72SLPC   C21 6269   4.482   7.065  10.635 -0.8808 -0.0424  0.2216
   72SLPC   O22 6270   4.508   7.161  10.707  0.0115  0.1146 -0.1054
   72SLPC   C22 6271   4.348   6.990  10.613  0.7623 -0.3096 -0.0360
   72SLPC   H2R 6272   4.357   6.889  10.566 -1.8030 -1.0127  0.8505
   72SLPC   H2S 6273   4.312   6.960  10.714 -3.5247  1.3891 -0.8721
   72SLPC    C3 6274   4.701   7.147  10.411 -0.7320 -0.1989 -0.0800
   72SLPC    HX 6275   4.789   7.213  10.396 -1.2773  0.6328  0.3212
   72SLPC    HY 6276   4.606   7.203  10.421 -0.7593 -0.5193  1.9757
   72SLPC   O31 6277   4.697   7.048  10.310  0.1647 -0.3178 -0.1999
   72SLPC   C31 6278   4.667   7.103  10.189  0.8179  0.0421 -0.4604
   72SLPC   O32 6279   4.643   7.221  10.168 -0.3758  0.1726  0.4174
   72SLPC   C32 6280   4.662   6.999  10.073 -0.2735 -0.1215  0.4801
   72SLPC   H2X 6281   4.573   6.932  10.078 -1.5721  1.5175  0.1656
   72SLPC   H2Y 6282   4.750   6.933  10.088 -0.7235 -0.7036  0.6110
   72SLPC   C23 6283   4.235   7.062  10.531  0.2532  0.5900  0.3245
   72SLPC   H3R 6284   4.209   7.162  10.573 -2.3856 -0.4559  1.3962
   72SLPC   H3S 6285   4.143   7.000  10.537  0.0038  1.0472  1.5702
   72SLPC   C24 6286   4.283   7.081  10.388 -0.0336 -0.0804 -0.1944
   72SLPC   H4R 6287   4.262   6.982  10.341 -1.1610 -0.1702  0.4518
   72SLPC   H4S 6288   4.391   7.104  10.381 -0.3582  1.2515 -1.1694
   72SLPC   C25 6289   4.204   7.190  10.301  0.4242  0.1660  0.5331
   72SLPC   H5R 6290   4.194   7.286  10.356 -0.5565 -0.4297  1.4317
   72SLPC   H5S 6291   4.107   7.160  10.255  1.1231  0.0706 -0.9366
   72SLPC   C26 6292   4.285   7.208  10.173 -0.5486 -0.5492  0.1039
   72SLPC   H6R 6293   4.275   7.116  10.111  0.7314 -0.4691 -0.2498
   72SLPC   H6S 6294   4.388   7.219  10.212 -1.3233  1.1886  1.8184
   72SLPC   C27 6295   4.226   7.333  10.105  0.0224 -0.1815 -0.3735
   72SLPC   H7R 6296   4.191   7.406  10.181 -1.2457  0.1157 -1.2052
   72SLPC   H7S 6297   4.142   7.304  10.038 -0.3407  1.2200 -0.5427
   72SLPC   C28 6298   4.325   7.404  10.008 -0.2032 -0.0038  0.5024
   72SLPC   H8R 6299   4.368   7.331   9.937  0.5151 -0.2329  1.1551
   72SLPC   H8S 6300   4.413   7.441  10.065 -0.1044  0.9292 -0.2342
   72SLPC   C29 6301   4.270   7.525   9.937 -0.1619 -0.1822 -0.3288
   72SLPC   H9R 6302   4.232   7.604  10.002 -2.9697 -1.8571  0.2172
   72SLPC  C210 6303   4.243   7.539   9.809 -0.5259 -0.3042  0.5061
   72SLPC  H10R 6304   4.183   7.628   9.783 -1.0325 -0.6717  0.4031
   72SLPC  C211 6305   4.271   7.441   9.701 -0.6003 -0.9141  0.4615
   72SLPC  H11R 6306   4.369   7.390   9.697  0.3428  0.8739 -1.8695
   72SLPC  H11S 6307   4.289   7.497   9.606  2.2457 -1.2936  0.7045
   72SLPC  C212 6308   4.158   7.345   9.689 -0.7320  0.5905 -0.0595
   72SLPC  H12R 6309   4.137   7.310   9.791  2.6196  1.9544  1.2341
   72SLPC  C213 6310   4.073   7.315   9.590 -0.3176  0.2329  0.5457
   72SLPC  H13R 6311   3.991   7.242   9.603  0.6951 -0.7265  1.7751
   72SLPC  C214 6312   4.075   7.365   9.450 -1.2674 -0.2797 -0.2268
   72SLPC  H14R 6313   4.167   7.423   9.430 -2.0106  1.1718  0.4288
   72SLPC  H14S 6314   3.999   7.445   9.436  1.1206  2.0887 -0.4419
   72SLPC  C215 6315   4.053   7.269   9.333  0.3246 -0.1775 -0.1971
   72SLPC  H15R 6316   3.951   7.228   9.350  0.6840  0.0561  3.2702
   72SLPC  H15S 6317   4.122   7.183   9.325  1.4325  0.8004 -1.9272
   72SLPC  C216 6318   4.069   7.338   9.199  0.0838  0.5505  0.7377
   72SLPC  H16R 6319   4.170   7.353   9.154 -1.1157 -2.2582 -3.4770
   72SLPC  H16S 6320   4.035   7.443   9.215  0.6903  0.2853  4.8120
   72SLPC  C217 6321   3.968   7.280   9.098 -0.3043 -0.1439 -0.5975
   72SLPC  H17R 6322   3.969   7.325   8.997 -2.8541 -0.0693 -0.6543
   72SLPC  H17S 6323   3.866   7.296   9.138  0.2217  2.6522 -0.1717
   72SLPC  C218 6324   3.978   7.123   9.072  0.1253 -1.0241 -0.2796
   72SLPC  H18R 6325   3.958   7.075   9.170  0.6199  0.4336  0.5783
   72SLPC  H18S 6326   4.084   7.106   9.045  0.4834 -0.2711  0.5730
   72SLPC  H18T 6327   3.909   7.096   8.990  0.2898  1.9378 -1.5202
   72SLPC   C33 6328   4.664   7.063   9.931  0.1692 -0.5904  0.5175
   72SLPC   H3X 6329   4.762   7.107   9.902  0.2907 -0.3777  1.2398
   72SLPC   H3Y 6330   4.613   7.161   9.937  3.3347  1.4953 -2.2867
   72SLPC   C34 6331   4.613   6.970   9.823  0.0059 -0.7515  0.5063
   72SLPC   H4X 6332   4.511   6.930   9.845 -0.7920  0.4035 -0.8819
   72SLPC   H4Y 6333   4.676   6.879   9.822  0.4564 -0.7864 -5.3316
   72SLPC   C35 6334   4.632   7.026   9.679  0.5923 -0.5247 -0.0203
   72SLPC   H5X 6335   4.610   6.948   9.602 -0.0230 -0.6097  0.2301
   72SLPC   H5Y 6336   4.733   7.067   9.660  1.3462 -2.9912 -1.9190
   72SLPC   C36 6337   4.519   7.131   9.656 -0.4542 -0.0879 -0.3182
   72SLPC   H6X 6338   4.552   7.237   9.660 -1.1253  0.2160 -1.9990
   72SLPC   H6Y 6339   4.447   7.121   9.740 -0.3438  4.2992  0.5201
   72SLPC   C37 6340   4.463   7.109   9.512 -0.2190 -0.5148  1.2882
   72SLPC   H7X 6341   4.388   7.186   9.484  2.3477  1.5408 -0.3458
   72SLPC   H7Y 6342   4.415   7.009   9.509  0.2103 -0.6964  0.3229
   72SLPC   C38 6343   4.572   7.111   9.401 -0.3826 -0.0245  0.2200
   72SLPC   H8X 6344   4.631   7.017   9.403  2.0099  1.3915  2.0179
   72SLPC   H8Y 6345   4.645   7.193   9.415  1.8861 -2.0654  1.1347
   72SLPC   C39 6346   4.507   7.104   9.258  0.0977  0.0446 -0.4561
   72SLPC   H9X 6347   4.418   7.171   9.259 -0.8678 -1.1995  0.5605
   72SLPC   H9Y 6348   4.480   6.998   9.236  1.1247  0.0004 -1.6200
   72SLPC  C310 6349   4.602   7.147   9.150 -0.3292 -0.4523 -0.1575
   72SLPC  H10X 6350   4.687   7.076   9.142 -1.3397 -1.6059 -1.0896
   72SLPC  H10Y 6351   4.654   7.236   9.191  0.6187 -1.3856  0.7051
   72SLPC  C311 6352   4.547   7.167   9.009 -0.1047  0.1217 -0.8646
   72SLPC  H11X 6353   4.632   7.188   8.940  0.0160  1.1152 -0.4341
   72SLPC  H11Y 6354   4.479   7.253   9.023 -0.4130 -0.4907  1.8472
   72SLPC  C312 6355   4.476   7.038   8.958 -0.3990 -0.4734  1.0380
   72SLPC  H12X 6356   4.391   7.022   9.028 -2.0803  0.5624 -0.6820
   72SLPC  H12Y 6357   4.533   6.945   8.978 -1.7561 -1.5904 -0.1344
   72SLPC  C313 6358   4.427   7.050   8.817  0.3412 -0.3953 -0.6908
   72SLPC  H13X 6359   4.514   7.072   8.751  0.2810  0.2717 -0.5514
   72SLPC  H13Y 6360   4.360   7.138   8.810  1.8480  0.7720 -1.1824
   72SLPC  C314 6361   4.337   6.931   8.770 -0.9186  0.1918 -0.3946
   72SLPC  H14X 6362   4.366   6.844   8.833 -0.0185 -0.5456 -1.7707
   72SLPC  H14Y 6363   4.362   6.908   8.664  2.7482  0.3692  0.2974
   72SLPC  C315 6364   4.186   6.940   8.791  0.3220 -0.3940 -0.5306
   72SLPC  H15X 6365   4.143   7.035   8.752  0.6133 -0.4398 -0.9717
   72SLPC  H15Y 6366   4.172   6.950   8.900  0.0518  0.4410 -0.6376
   72SLPC  C316 6367   4.108   6.820   8.736 -0.4983 -0.0963 -0.1460
   72SLPC  H16X 6368   4.150   6.736   8.794  3.0916  0.5512 -1.5738
   72SLPC  H16Y 6369   4.126   6.800   8.628 -0.3376  2.1517 -0.5866
   72SLPC  C317 6370   3.954   6.833   8.747  0.3460 -0.1057 -0.2757
   72SLPC  H17X 6371   3.914   6.902   8.671 -0.3454 -0.5879 -0.3650
   72SLPC  H17Y 6372   3.914   6.866   8.845 -2.1977 -0.2263 -1.1961
   72SLPC  C318 6373   3.886   6.704   8.717 -0.2134 -0.1403 -0.3942
   72SLPC  H18X 6374   3.776   6.719   8.715  0.0884  2.5338 -0.8555
   72SLPC  H18Y 6375   3.896   6.636   8.804  1.0077  0.5420  0.0211
   72SLPC  H18Z 6376   3.913   6.660   8.618 -0.1224 -0.6484 -0.1494
   73SLPC     N 6377   5.695   4.497  11.159 -0.7877 -0.1991 -0.4393
   73SLPC   C13 6378   5.791   4.465  11.272 -0.3712 -0.4628  0.8320
   73SLPC  H13A 6379   5.832   4.549  11.326 -0.4759  1.5381 -1.9858
   73SLPC  H13B 6380   5.739   4.402  11.343 -0.8302 -2.3816 -1.0726
   73SLPC  H13C 6381   5.862   4.403  11.219 -1.2507  0.2204 -1.2379
   73SLPC   C14 6382   5.581   4.576  11.209 -0.1900  0.6673  0.0402
   73SLPC  H14A 6383   5.547   4.512  11.288  1.6302 -0.3037  0.0999
   73SLPC  H14B 6384   5.613   4.670  11.251 -0.1861 -1.0505  4.4297
   73SLPC  H14C 6385   5.505   4.596  11.135  0.1940  2.9246  0.1894
   73SLPC   C15 6386   5.622   4.375  11.113 -0.3548  0.4708  0.5715
   73SLPC  H15A 6387   5.567   4.395  11.023 -1.5282 -1.3573  0.8423
   73SLPC  H15B 6388   5.687   4.292  11.093 -2.8053 -1.3826 -0.1154
   73SLPC  H15C 6389   5.545   4.347  11.182 -0.1231  0.9287  1.0285
   73SLPC   C12 6390   5.760   4.573  11.047 -0.1643 -0.1445 -0.5049
   73SLPC  H12A 6391   5.849   4.524  11.008 -0.8223 -1.1602 -0.7722
   73SLPC  H12B 6392   5.788   4.671  11.084 -0.1438  0.1194 -1.2013
   73SLPC   C11 6393   5.667   4.606  10.935  0.9769  0.7044  0.5677
   73SLPC  H11A 6394   5.596   4.522  10.920 -0.0161  1.2809  1.8254
   73SLPC  H11B 6395   5.709   4.608  10.832 -2.5588 -1.2825 -1.0999
   73SLPC     P 6396   5.630   4.863  10.966 -0.1550  0.1935 -0.2380
   73SLPC   O13 6397   5.515   4.959  10.977  0.3048  0.4518  0.3415
   73SLPC   O14 6398   5.732   4.875  11.071  0.1711  0.5276  0.1987
   73SLPC   O12 6399   5.578   4.717  10.954 -0.0002  0.6559  0.6941
   73SLPC   O11 6400   5.709   4.885  10.834 -0.1279  0.8219 -0.5479
   73SLPC    C1 6401   5.662   4.957  10.720 -0.4022 -0.1271 -0.8366
   73SLPC    HA 6402   5.617   5.050  10.760  1.9476 -0.1463  2.2269
   73SLPC    HB 6403   5.751   4.979  10.657  2.7000 -0.8732  2.8857
   73SLPC    C2 6404   5.559   4.874  10.631 -0.0833 -0.1363  0.9236
   73SLPC    HS 6405   5.459   4.873  10.679 -0.4027  0.5877  0.2919
   73SLPC   O21 6406   5.605   4.735  10.613 -0.0887  0.4412 -0.1122
   73SLPC   C21 6407   5.507   4.649  10.570 -0.4749  1.2489  0.5415
   73SLPC   O22 6408   5.387   4.660  10.587 -0.2727 -0.2796  0.0233
   73SLPC   C22 6409   5.578   4.526  10.506  0.0161  0.6085  0.7698
   73SLPC   H2R 6410   5.655   4.492  10.578  1.7362  3.3440  0.3802
   73SLPC   H2S 6411   5.497   4.451  10.498  1.6825 -1.0886 -1.7627
   73SLPC    C3 6412   5.549   4.958  10.496 -0.3031  0.6339  0.4368
   73SLPC    HX 6413   5.635   4.915  10.440 -1.7659 -2.3051  0.2363
   73SLPC    HY 6414   5.565   5.067  10.506 -1.1902  0.9790 -1.3934
   73SLPC   O31 6415   5.429   4.916  10.428 -0.7259  0.6023  0.5589
   73SLPC   C31 6416   5.329   4.998  10.443 -0.4200  0.2914  0.6628
   73SLPC   O32 6417   5.319   5.095  10.520  0.1992  0.8642 -0.6101
   73SLPC   C32 6418   5.212   4.919  10.371 -0.4069 -1.4298  0.0096
   73SLPC   H2X 6419   5.118   4.955  10.417  0.5071  0.2425  0.6516
   73SLPC   H2Y 6420   5.233   4.816  10.408  1.1148 -0.6621  1.4520
   73SLPC   C23 6421   5.649   4.553  10.366 -0.0405  0.2428 -0.1980
   73SLPC   H3R 6422   5.707   4.468  10.324  1.5003  0.9712  0.4188
   73SLPC   H3S 6423   5.716   4.641  10.375  0.7890 -0.4080  0.1083
   73SLPC   C24 6424   5.555   4.597  10.253 -0.5430 -0.2142 -0.8009
   73SLPC   H4R 6425   5.486   4.675  10.293  1.7668  0.1998  2.9199
   73SLPC   H4S 6426   5.492   4.517  10.210 -3.2990  2.8592 -2.8945
   73SLPC   C25 6427   5.650   4.657  10.142  0.3401  0.7034 -0.2980
   73SLPC   H5R 6428   5.719   4.575  10.113  0.4355 -0.1290  2.0729
   73SLPC   H5S 6429   5.719   4.728  10.192 -1.0605  1.2437  0.9373
   73SLPC   C26 6430   5.582   4.721  10.032  0.1091 -0.9532  1.2261
   73SLPC   H6R 6431   5.642   4.796   9.976 -2.5196  1.6695  1.6692
   73SLPC   H6S 6432   5.496   4.785  10.064  0.1520  0.8075 -1.7228
   73SLPC   C27 6433   5.522   4.625   9.927  0.1866 -0.7148 -0.3542
   73SLPC   H7R 6434   5.492   4.695   9.846  2.4594 -0.5791 -1.1549
   73SLPC   H7S 6435   5.436   4.573   9.974  0.0785  1.9596  2.7833
   73SLPC   C28 6436   5.623   4.537   9.862 -0.6877  0.2575 -0.1335
   73SLPC   H8R 6437   5.661   4.452   9.921 -0.8963  0.6304  0.5578
   73SLPC   H8S 6438   5.707   4.605   9.836 -0.4291  0.1367  0.3814
   73SLPC   C29 6439   5.574   4.484   9.726  0.1694 -0.2306  0.4299
   73SLPC   H9R 6440   5.490   4.415   9.746 -1.1576  1.5423  1.2220
   73SLPC  C210 6441   5.621   4.488   9.600  0.5912 -0.0526  0.6284
   73SLPC  H10R 6442   5.575   4.437   9.514  1.3984 -1.7657  1.1578
   73SLPC  C211 6443   5.753   4.562   9.572 -0.1088  0.4068  0.0749
   73SLPC  H11R 6444   5.793   4.614   9.661 -0.1428  0.7943 -0.1346
   73SLPC  H11S 6445   5.750   4.624   9.480  0.4491  0.5585  0.1541
   73SLPC  C212 6446   5.846   4.449   9.537 -0.5495  0.5030  0.1671
   73SLPC  H12R 6447   5.820   4.379   9.457 -0.4107  1.3053 -0.5918
   73SLPC  C213 6448   5.972   4.433   9.579  0.0157 -0.1966 -0.0364
   73SLPC  H13R 6449   6.021   4.341   9.545  1.0619  0.6700 -0.9334
   73SLPC  C214 6450   6.044   4.521   9.681 -0.0475 -0.1768 -0.0450
   73SLPC  H14R 6451   6.024   4.629   9.667  1.2030  0.3212  1.7014
   73SLPC  H14S 6452   6.155   4.519   9.673  0.0061 -0.9344  0.7094
   73SLPC  C215 6453   6.016   4.491   9.834  0.3071  1.1748  0.3163
   73SLPC  H15R 6454   6.051   4.386   9.844 -0.9523  0.7888  0.7830
   73SLPC  H15S 6455   5.905   4.491   9.845  0.3109  2.5145  0.5037
   73SLPC  C216 6456   6.083   4.584   9.929  0.3235  0.1684 -0.5592
   73SLPC  H16R 6457   6.053   4.685   9.894  0.8708  1.1480  1.6761
   73SLPC  H16S 6458   6.194   4.582   9.930  0.3865  1.9008  1.0619
   73SLPC  C217 6459   6.026   4.565  10.079 -0.8104 -0.4137  0.3120
   73SLPC  H17R 6460   5.929   4.618  10.085 -1.3506 -1.2330 -0.9268
   73SLPC  H17S 6461   6.092   4.627  10.144 -0.3620  1.4390 -1.7662
   73SLPC  C218 6462   6.020   4.421  10.114  0.7935 -0.1471 -0.0087
   73SLPC  H18R 6463   6.124   4.380  10.111  0.3128 -1.4731  0.7131
   73SLPC  H18S 6464   5.941   4.371  10.054  1.5027  0.0157 -1.1169
   73SLPC  H18T 6465   5.988   4.404  10.219  2.3124 -0.2053  0.4800
   73SLPC   C33 6466   5.204   4.916  10.210  0.2432 -0.4400  0.6223
   73SLPC   H3X 6467   5.310   4.894  10.186 -0.3928 -0.0389 -3.1629
   73SLPC   H3Y 6468   5.186   5.018  10.170 -0.6379 -1.1736 -0.9398
   73SLPC   C34 6469   5.092   4.832  10.154 -0.3079  0.1256 -0.4478
   73SLPC   H4X 6470   4.992   4.859  10.192 -0.8581 -2.9800  0.5818
   73SLPC   H4Y 6471   5.103   4.723  10.173 -1.9113 -0.0625 -0.5301
   73SLPC   C35 6472   5.073   4.850  10.007  0.1929  0.4397  0.1064
   73SLPC   H5X 6473   5.069   4.956   9.974 -2.1258  0.7116  1.0800
   73SLPC   H5Y 6474   4.969   4.819   9.983  0.3767  0.7977 -1.2518
   73SLPC   C36 6475   5.166   4.769   9.918 -0.2003 -0.2717 -0.1848
   73SLPC   H6X 6476   5.181   4.667   9.959  0.2655  0.0409  0.4275
   73SLPC   H6Y 6477   5.269   4.808   9.921 -0.8000  1.7406 -2.5890
   73SLPC   C37 6478   5.109   4.763   9.771 -0.2660 -0.4085 -0.5963
   73SLPC   H7X 6479   5.088   4.863   9.727  2.0531 -0.3363 -1.6821
   73SLPC   H7Y 6480   5.009   4.718   9.785 -0.3365  0.0465  0.3844
   73SLPC   C38 6481   5.192   4.669   9.682  0.0035  0.2313 -0.9968
   73SLPC   H8X 6482   5.191   4.560   9.704  0.6611  0.1345 -1.4321
   73SLPC   H8Y 6483   5.299   4.689   9.702 -0.3405  0.5279  0.6909
   73SLPC   C39 6484   5.185   4.702   9.531 -0.1998 -1.0227  0.3096
   73SLPC   H9X 6485   5.172   4.812   9.519  2.6530 -0.2290  3.0650
   73SLPC   H9Y 6486   5.099   4.644   9.492  0.6133 -0.8122 -1.9076
   73SLPC  C310 6487   5.311   4.664   9.447  0.0392 -0.1154 -0.0049
   73SLPC  H10X 6488   5.321   4.554   9.454 -0.6835 -0.1416  0.8696
   73SLPC  H10Y 6489   5.397   4.714   9.497  0.6931 -0.6840 -0.5427
   73SLPC  C311 6490   5.293   4.701   9.298  0.0668 -0.4746 -0.3135
   73SLPC  H11X 6491   5.390   4.734   9.255 -0.5247  0.3746 -1.0290
   73SLPC  H11Y 6492   5.219   4.784   9.296 -0.8111 -1.2294 -0.0565
   73SLPC  C312 6493   5.242   4.586   9.208  0.2387 -0.1011 -0.0662
   73SLPC  H12X 6494   5.134   4.576   9.235 -0.1610  2.0795 -0.6482
   73SLPC  H12Y 6495   5.292   4.490   9.233 -3.8503 -1.9109  2.3745
   73SLPC  C313 6496   5.260   4.608   9.058  0.1473  0.0377  0.0497
   73SLPC  H13X 6497   5.237   4.508   9.015 -2.1290  0.8011 -0.6195
   73SLPC  H13Y 6498   5.368   4.623   9.038  0.4174 -1.9773 -0.2575
   73SLPC  C314 6499   5.156   4.716   9.010  0.4555 -0.3096 -0.7107
   73SLPC  H14X 6500   5.165   4.817   9.055 -0.3266  0.2173 -1.7067
   73SLPC  H14Y 6501   5.059   4.674   9.045  1.7478 -1.6815  1.4458
   73SLPC  C315 6502   5.148   4.733   8.859 -0.2439  0.1580 -0.4525
   73SLPC  H15X 6503   5.141   4.630   8.819  1.4312 -1.3419  2.7133
   73SLPC  H15Y 6504   5.237   4.780   8.813 -1.4909  1.8063 -1.2914
   73SLPC  C316 6505   5.022   4.810   8.822 -0.2240 -0.1845  0.3738
   73SLPC  H16X 6506   5.052   4.917   8.810 -0.6325 -0.1412 -0.3459
   73SLPC  H16Y 6507   4.942   4.796   8.898 -1.8500 -0.7014 -1.3365
   73SLPC  C317 6508   4.966   4.771   8.685 -0.0536  0.3121  0.2169
   73SLPC  H17X 6509   4.945   4.662   8.693 -2.7823  0.7721  0.3872
   73SLPC  H17Y 6510   5.046   4.777   8.608  0.0001 -0.1007  0.2369
   73SLPC  C318 6511   4.840   4.843   8.648  0.6228 -0.5030 -0.5024
   73SLPC  H18X 6512   4.856   4.953   8.656  0.4755 -0.5250  0.1240
   73SLPC  H18Y 6513   4.760   4.818   8.720  2.2647 -2.7180  0.6707
   73SLPC  H18Z 6514   4.807   4.815   8.546 -2.6350 -1.6097  0.7346
   74SLPC     N 6515   6.320   6.565  10.770  0.6393 -0.1994 -0.1982
   74SLPC   C13 6516   6.463   6.584  10.775 -0.3698 -0.1857 -0.3638
   74SLPC  H13A 6517   6.513   6.523  10.700 -2.5189 -2.2696 -0.2023
   74SLPC  H13B 6518   6.498   6.684  10.757 -1.2318  0.3495  0.8488
   74SLPC  H13C 6519   6.488   6.561  10.877  0.1810 -0.2164 -0.5014
   74SLPC   C14 6520   6.250   6.650  10.865  0.5676 -0.0230  0.0769
   74SLPC  H14A 6521   6.290   6.749  10.848  0.9097 -0.0802  0.5280
   74SLPC  H14B 6522   6.142   6.640  10.864  0.5488  0.1533  0.2962
   74SLPC  H14C 6523   6.280   6.633  10.968 -2.4462 -0.0743  1.0481
   74SLPC   C15 6524   6.290   6.419  10.790 -0.4184  0.3153 -0.3598
   74SLPC  H15A 6525   6.294   6.380  10.891 -3.6094 -1.3782 -0.7680
   74SLPC  H15B 6526   6.189   6.392  10.765  0.0995  0.4502 -2.8362
   74SLPC  H15C 6527   6.342   6.363  10.714  1.0738 -0.9873  1.5174
   74SLPC   C12 6528   6.262   6.605  10.635 -0.4073 -0.1975 -0.5041
   74SLPC  H12A 6529   6.156   6.587  10.639 -0.5246  0.3836 -0.9181
   74SLPC  H12B 6530   6.285   6.530  10.561 -3.3483 -0.9585 -0.7716
   74SLPC   C11 6531   6.297   6.751  10.578 -0.3421  0.0805 -0.3440
   74SLPC  H11A 6532   6.267   6.768  10.473 -0.3276  0.9065 -0.2212
   74SLPC  H11B 6533   6.407   6.744  10.566  0.1341  2.3074  1.9194
   74SLPC     P 6534   6.126   6.941  10.645  0.1295 -0.0201 -0.4287
   74SLPC   O13 6535   6.017   6.842  10.621  0.2844 -0.1774  0.6077
   74SLPC   O14 6536   6.116   7.032  10.757  0.0749  0.4851  0.5383
   74SLPC   O12 6537   6.264   6.864  10.659 -0.2557  0.0965 -0.4613
   74SLPC   O11 6538   6.153   7.030  10.514 -0.5907  0.3652 -0.4713
   74SLPC    C1 6539   6.060   7.131  10.478  0.0204 -0.0661  0.2870
   74SLPC    HA 6540   6.001   7.168  10.564 -1.6411 -0.7954 -0.4852
   74SLPC    HB 6541   6.118   7.212  10.428  1.0506 -0.5731  0.6219
   74SLPC    C2 6542   5.958   7.081  10.381 -0.4774  0.0842 -0.3721
   74SLPC    HS 6543   5.907   6.993  10.424  0.4369 -1.7253 -2.7393
   74SLPC   O21 6544   6.028   7.036  10.264 -0.4150 -0.7075 -0.4540
   74SLPC   C21 6545   5.962   6.942  10.191  0.6265 -0.3991 -0.0286
   74SLPC   O22 6546   5.880   6.873  10.246 -0.3897 -0.0539  0.8521
   74SLPC   C22 6547   6.012   6.932  10.041 -0.0579 -0.0407 -0.6767
   74SLPC   H2R 6548   5.934   6.975   9.974  0.5648  0.6776 -0.9492
   74SLPC   H2S 6549   6.099   7.000  10.031 -0.4241  0.3739 -1.1289
   74SLPC    C3 6550   5.857   7.188  10.333  0.3072  0.4590  0.4386
   74SLPC    HX 6551   5.901   7.281  10.292 -2.0388  0.1607 -3.3158
   74SLPC    HY 6552   5.799   7.210  10.425  1.1870  1.6747  0.7246
   74SLPC   O31 6553   5.772   7.139  10.225  0.1126 -0.9653 -0.0523
   74SLPC   C31 6554   5.640   7.169  10.242  0.0273 -0.0746  0.3381
   74SLPC   O32 6555   5.592   7.226  10.336 -0.0629 -1.2234  0.2825
   74SLPC   C32 6556   5.556   7.143  10.119  0.4647 -0.0575  0.1278
   74SLPC   H2X 6557   5.501   7.239  10.106  3.5622  1.6928 -0.9476
   74SLPC   H2Y 6558   5.482   7.062  10.137  0.5494 -0.0461  0.5429
   74SLPC   C23 6559   6.058   6.792  10.021 -0.1671 -0.0416  0.6906
   74SLPC   H3R 6560   5.974   6.720  10.032 -0.6523  0.0981 -1.6478
   74SLPC   H3S 6561   6.139   6.772  10.095  2.5276  1.4911 -1.6332
   74SLPC   C24 6562   6.116   6.762   9.885 -0.4217  0.1271  0.1770
   74SLPC   H4R 6563   6.204   6.827   9.867 -0.4258  0.2821  0.7018
   74SLPC   H4S 6564   6.044   6.792   9.805  2.8757  0.2231 -3.0437
   74SLPC   C25 6565   6.160   6.616   9.859  0.7301 -0.3143 -0.0972
   74SLPC   H5R 6566   6.075   6.553   9.893  2.8061 -1.7511  2.8797
   74SLPC   H5S 6567   6.249   6.586   9.919  0.0166 -3.0884 -0.3022
   74SLPC   C26 6568   6.198   6.589   9.714  0.6591 -0.1798 -0.2530
   74SLPC   H6R 6569   6.282   6.655   9.684  0.2383  1.2220  1.4653
   74SLPC   H6S 6570   6.102   6.610   9.663 -0.7037 -1.7081  1.5103
   74SLPC   C27 6571   6.232   6.443   9.680 -0.5320 -0.4595 -0.1065
   74SLPC   H7R 6572   6.191   6.412   9.581  0.3138  2.4301 -1.4745
   74SLPC   H7S 6573   6.180   6.380   9.756 -2.6323 -2.1144 -2.6990
   74SLPC   C28 6574   6.386   6.422   9.677  0.1285 -0.2257  0.0960
   74SLPC   H8R 6575   6.429   6.455   9.774 -1.7920  0.3897  0.7849
   74SLPC   H8S 6576   6.425   6.488   9.597  0.3668  2.2231  2.1107
   74SLPC   C29 6577   6.422   6.272   9.655  0.5265  0.3877 -0.1253
   74SLPC   H9R 6578   6.459   6.216   9.743 -2.6504 -2.6124 -0.4905
   74SLPC  C210 6579   6.420   6.218   9.532  0.0790 -0.2382  0.1437
   74SLPC  H10R 6580   6.439   6.110   9.524 -2.0572 -0.6329 -0.3452
   74SLPC  C211 6581   6.375   6.268   9.396 -0.2664 -0.4253  0.6982
   74SLPC  H11R 6582   6.270   6.303   9.406  0.1281  0.4769  1.9561
   74SLPC  H11S 6583   6.376   6.178   9.331  0.8150 -0.4975  0.8036
   74SLPC  C212 6584   6.458   6.375   9.343 -0.1590 -0.8506  0.3366
   74SLPC  H12R 6585   6.565   6.350   9.345 -0.0463 -0.7290 -1.6522
   74SLPC  C213 6586   6.410   6.497   9.298  0.0937  0.8285 -0.2560
   74SLPC  H13R 6587   6.479   6.561   9.242  0.7910  0.9370  0.7132
   74SLPC  C214 6588   6.265   6.552   9.299 -0.5617  0.1987 -0.1388
   74SLPC  H14R 6589   6.256   6.654   9.344 -0.5001 -0.6022  1.7890
   74SLPC  H14S 6590   6.203   6.481   9.358 -0.0932 -0.8603 -0.9078
   74SLPC  C215 6591   6.219   6.563   9.153 -0.4416  0.1436 -0.1281
   74SLPC  H15R 6592   6.299   6.624   9.106  2.1738 -2.6249  0.4465
   74SLPC  H15S 6593   6.118   6.611   9.149 -0.2779  0.5540  0.4618
   74SLPC  C216 6594   6.220   6.431   9.081  0.3706  0.8122  0.2632
   74SLPC  H16R 6595   6.181   6.353   9.149  2.6981  0.0938  0.8906
   74SLPC  H16S 6596   6.323   6.391   9.063  0.1818 -0.3960  1.7052
   74SLPC  C217 6597   6.130   6.419   8.951 -0.4051  0.3415  0.4618
   74SLPC  H17R 6598   6.177   6.490   8.879  0.1326 -0.9214 -0.4809
   74SLPC  H17S 6599   6.026   6.449   8.976 -0.9741  0.2063 -1.5669
   74SLPC  C218 6600   6.123   6.275   8.890  0.1715  0.2656  0.5081
   74SLPC  H18R 6601   6.225   6.237   8.868 -0.2390 -1.0289  0.7625
   74SLPC  H18S 6602   6.065   6.278   8.795 -0.9418 -3.1816  0.9369
   74SLPC  H18T 6603   6.072   6.216   8.969 -1.9220  0.2738 -0.7691
   74SLPC   C33 6604   5.639   7.121   9.991  0.4694  0.0820 -0.1533
   74SLPC   H3X 6605   5.681   7.018   9.981 -1.8680 -0.8582 -1.1459
   74SLPC   H3Y 6606   5.716   7.200   9.990 -0.4044  0.9797  0.9181
   74SLPC   C34 6607   5.550   7.127   9.859 -0.6085  0.8324 -0.4277
   74SLPC   H4X 6608   5.504   7.228   9.852  0.4709  1.2994 -1.0159
   74SLPC   H4Y 6609   5.466   7.055   9.858 -0.1178  0.2653 -1.0420
   74SLPC   C35 6610   5.638   7.086   9.742 -0.1180  0.1525  0.5017
   74SLPC   H5X 6611   5.685   6.987   9.760 -0.5592 -0.3639 -1.0618
   74SLPC   H5Y 6612   5.707   7.172   9.730 -0.0130 -0.1326 -1.1190
   74SLPC   C36 6613   5.560   7.079   9.610  0.5842  0.8296 -0.0166
   74SLPC   H6X 6614   5.465   7.034   9.647  0.6947  0.5230 -0.1022
   74SLPC   H6Y 6615   5.609   7.017   9.532  1.9702  3.7996 -1.6749
   74SLPC   C37 6616   5.544   7.219   9.552 -0.1653 -0.2143  0.3785
   74SLPC   H7X 6617   5.647   7.260   9.539 -0.0674 -0.1662  1.2633
   74SLPC   H7Y 6618   5.502   7.286   9.630 -0.4285 -0.2220  0.2418
   74SLPC   C38 6619   5.459   7.231   9.429 -0.7089  0.0085  0.1941
   74SLPC   H8X 6620   5.459   7.338   9.399  0.0723 -0.6281 -2.3021
   74SLPC   H8Y 6621   5.355   7.203   9.455 -0.2652  0.0899  2.2829
   74SLPC   C39 6622   5.516   7.155   9.315  0.4944  0.2342  0.3951
   74SLPC   H9X 6623   5.520   7.045   9.329  0.1996  0.4303  2.3403
   74SLPC   H9Y 6624   5.625   7.171   9.308  1.3889 -3.3918  2.9337
   74SLPC  C310 6625   5.441   7.172   9.181  0.1534 -0.4384 -0.1453
   74SLPC  H10X 6626   5.455   7.278   9.149  0.6475 -0.3613  0.3175
   74SLPC  H10Y 6627   5.337   7.147   9.210  0.7647 -1.6392  1.0958
   74SLPC  C311 6628   5.497   7.091   9.062  0.2410  0.2569  0.0297
   74SLPC  H11X 6629   5.456   6.988   9.063 -1.6906  0.9900  1.3146
   74SLPC  H11Y 6630   5.608   7.086   9.068  0.1607 -2.5178  0.4660
   74SLPC  C312 6631   5.461   7.142   8.918  0.1902 -0.2508 -0.5044
   74SLPC  H12X 6632   5.495   7.247   8.903  0.2736 -0.0275  1.0944
   74SLPC  H12Y 6633   5.350   7.155   8.913  0.1654 -0.2875 -0.0797
   74SLPC  C313 6634   5.509   7.058   8.797 -0.4929 -0.3935  0.2989
   74SLPC  H13X 6635   5.619   7.045   8.799 -0.3672  0.4612 -0.5944
   74SLPC  H13Y 6636   5.497   7.127   8.710  3.8624  2.1165  1.4052
   74SLPC  C314 6637   5.422   6.938   8.756  0.8702  0.8937 -0.4189
   74SLPC  H14X 6638   5.314   6.963   8.749  0.6338  0.3266  0.7947
   74SLPC  H14Y 6639   5.436   6.862   8.836 -1.3792  1.2508  0.3799
   74SLPC  C315 6640   5.472   6.890   8.617  0.4848  0.2098 -0.2514
   74SLPC  H15X 6641   5.583   6.887   8.614  0.4670 -2.0594 -1.0387
   74SLPC  H15Y 6642   5.447   6.971   8.546  1.6972  0.3839 -0.4969
   74SLPC  C316 6643   5.419   6.760   8.584  0.4391 -0.4080  0.1132
   74SLPC  H16X 6644   5.324   6.734   8.636  0.4676  1.2009  1.0548
   74SLPC  H16Y 6645   5.493   6.687   8.624  0.5970 -0.6415 -0.6036
   74SLPC  C317 6646   5.405   6.724   8.437 -1.0610 -0.0327 -0.5982
   74SLPC  H17X 6647   5.497   6.753   8.383  0.4625  0.5914  2.1599
   74SLPC  H17Y 6648   5.324   6.787   8.392 -1.8793 -2.1741 -2.3524
   74SLPC  C318 6649   5.366   6.574   8.404  0.3923 -0.3338  0.3713
   74SLPC  H18X 6650   5.451   6.505   8.424  1.0635  0.0580 -0.9996
   74SLPC  H18Y 6651   5.346   6.575   8.295  0.8909 -1.5096  0.2538
   74SLPC  H18Z 6652   5.275   6.538   8.457 -0.0623  1.4910  0.9013
   75SLPC     N 6653   4.630   0.168   6.341 -0.1896  0.5103  0.1401
   75SLPC   C13 6654   4.656   0.291   6.426 -0.7624 -0.1185 -0.5645
   75SLPC  H13A 6655   4.622   0.268   6.526 -0.3954  0.0969 -0.3877
   75SLPC  H13B 6656   4.763   0.307   6.432 -0.6799 -0.4409 -1.1487
   75SLPC  H13C 6657   4.601   0.376   6.389 -0.9166 -0.3556 -0.8810
   75SLPC   C14 6658   4.665   0.192   6.197 -0.0479  0.5905 -0.7959
   75SLPC  H14A 6659   4.758   0.245   6.185 -0.6060  1.3334 -2.0366
   75SLPC  H14B 6660   4.675   0.097   6.147  0.1189  0.8017 -1.1683
   75SLPC  H14C 6661   4.586   0.244   6.146 -1.5452 -0.7992  0.0150
   75SLPC   C15 6662   4.486   0.133   6.350 -0.1375  0.3248 -0.0750
   75SLPC  H15A 6663   4.427   0.214   6.310 -1.9900 -0.8601  0.0932
   75SLPC  H15B 6664   4.458   0.042   6.299  1.6199 -0.2945  0.0061
   75SLPC  H15C 6665   4.444   0.103   6.446 -0.9852 -1.6910 -1.0244
   75SLPC   C12 6666   4.718   0.046   6.401  0.4574  0.7129 -0.3160
   75SLPC  H12A 6667   4.712   0.048   6.509  1.3049 -0.7000 -0.2137
   75SLPC  H12B 6668   4.822   0.063   6.376  0.6835 -0.5624 -0.2986
   75SLPC   C11 6669   4.685  -0.092   6.354  1.1063 -0.5165  0.9357
   75SLPC  H11A 6670   4.776  -0.154   6.340  0.5319 -1.0526 -0.6238
   75SLPC  H11B 6671   4.633  -0.082   6.257  2.0199  1.1179  0.5738
   75SLPC     P 6672   4.668  -0.246   6.561  0.0591 -0.2018 -0.1621
   75SLPC   O13 6673   4.652  -0.383   6.511  0.0888 -0.0400  0.3412
   75SLPC   O14 6674   4.808  -0.199   6.577 -0.1503 -0.7707 -0.3526
   75SLPC   O12 6675   4.597  -0.150   6.454 -0.2072  0.2810 -0.3682
   75SLPC   O11 6676   4.585  -0.222   6.691  0.0664 -0.5373 -0.5659
   75SLPC    C1 6677   4.516  -0.097   6.716  0.0840 -0.3919  0.0619
   75SLPC    HA 6678   4.532  -0.018   6.639  0.4445  1.7643  2.2402
   75SLPC    HB 6679   4.406  -0.112   6.717  0.0766 -1.1823 -2.9101
   75SLPC    C2 6680   4.547  -0.033   6.851 -0.7239 -0.2710  0.6321
   75SLPC    HS 6681   4.480   0.055   6.862 -0.6425 -0.0241 -0.6215
   75SLPC   O21 6682   4.690  -0.002   6.866  0.0027  0.1857 -0.4121
   75SLPC   C21 6683   4.722   0.107   6.797 -0.1242 -0.7060 -0.9475
   75SLPC   O22 6684   4.645   0.173   6.734 -0.0181  0.4973 -0.0209
   75SLPC   C22 6685   4.864   0.160   6.822  0.5635 -0.6696 -0.0851
   75SLPC   H2R 6686   4.922   0.067   6.841 -1.7745 -2.6913 -2.1418
   75SLPC   H2S 6687   4.904   0.208   6.730  1.2567  0.0394  0.5702
   75SLPC    C3 6688   4.509  -0.128   6.972 -0.1978  0.6980 -0.0973
   75SLPC    HX 6689   4.595  -0.199   6.975 -0.2223  0.6971  0.7161
   75SLPC    HY 6690   4.415  -0.185   6.959  0.7300 -0.5125 -2.0925
   75SLPC   O31 6691   4.495  -0.061   7.100  0.1230  0.1422  0.1988
   75SLPC   C31 6692   4.386   0.020   7.108  0.8904 -0.4829 -0.5026
   75SLPC   O32 6693   4.308   0.047   7.020 -0.2526 -0.1613  0.3467
   75SLPC   C32 6694   4.376   0.066   7.256  0.0987 -0.2085 -0.5122
   75SLPC   H2X 6695   4.268   0.086   7.273  0.2579 -0.4333  0.8326
   75SLPC   H2Y 6696   4.440   0.156   7.264 -2.2863  1.6083 -0.6717
   75SLPC   C23 6697   4.874   0.257   6.944  0.1764  0.2291 -0.0102
   75SLPC   H3R 6698   4.832   0.355   6.913  1.2837  1.2773  1.6413
   75SLPC   H3S 6699   4.980   0.282   6.965  0.4692  0.9655 -2.1184
   75SLPC   C24 6700   4.806   0.209   7.073 -0.1101 -0.2011  0.7482
   75SLPC   H4R 6701   4.870   0.127   7.112 -1.6726 -2.7471 -1.5987
   75SLPC   H4S 6702   4.703   0.172   7.058 -1.9163  4.6995 -0.9328
   75SLPC   C25 6703   4.800   0.318   7.184  0.2708 -0.5059  0.2569
   75SLPC   H5R 6704   4.901   0.365   7.195 -1.4745  3.5095  0.8032
   75SLPC   H5S 6705   4.789   0.265   7.282  0.4826  1.1635  1.2191
   75SLPC   C26 6706   4.690   0.414   7.152 -0.2962 -0.5954 -0.2484
   75SLPC   H6R 6707   4.592   0.364   7.141 -1.3649  1.0532  1.1342
   75SLPC   H6S 6708   4.712   0.470   7.059 -1.8674 -1.6397 -1.2962
   75SLPC   C27 6709   4.675   0.518   7.264 -0.8816  0.8818  0.2920
   75SLPC   H7R 6710   4.773   0.563   7.292 -0.4039 -0.0878  0.2075
   75SLPC   H7S 6711   4.634   0.467   7.354 -0.9762 -0.6201 -0.5649
   75SLPC   C28 6712   4.571   0.626   7.226 -0.0172  0.0383  0.5557
   75SLPC   H8R 6713   4.534   0.685   7.312  0.0578  0.5286  0.2550
   75SLPC   H8S 6714   4.489   0.566   7.182 -0.5243  0.4405  0.9369
   75SLPC   C29 6715   4.606   0.720   7.113 -1.1412 -0.1088 -0.3944
   75SLPC   H9R 6716   4.587   0.677   7.014 -0.6498 -0.7506 -0.2142
   75SLPC  C210 6717   4.679   0.841   7.126 -0.0907 -0.5852 -0.1998
   75SLPC  H10R 6718   4.694   0.905   7.038  0.3609 -0.2293  0.1307
   75SLPC  C211 6719   4.737   0.892   7.260  0.5932  0.6408  0.2253
   75SLPC  H11R 6720   4.847   0.908   7.254  0.8275 -0.8797  0.2009
   75SLPC  H11S 6721   4.722   0.826   7.348  0.5180 -2.1246 -1.7195
   75SLPC  C212 6722   4.675   1.024   7.301  0.8373 -0.3071  0.5782
   75SLPC  H12R 6723   4.584   1.067   7.255  0.0001  1.6453  3.7130
   75SLPC  C213 6724   4.715   1.104   7.402 -0.3684 -0.2009 -0.3226
   75SLPC  H13R 6725   4.665   1.201   7.412  1.2112  0.6030  0.1377
   75SLPC  C214 6726   4.828   1.066   7.500  0.0548  0.4600 -0.2102
   75SLPC  H14R 6727   4.930   1.068   7.457 -0.1026 -0.1778 -0.6266
   75SLPC  H14S 6728   4.806   0.962   7.531  1.5080  0.9409  2.9432
   75SLPC  C215 6729   4.835   1.141   7.637 -0.4046  0.1878 -0.5759
   75SLPC  H15R 6730   4.891   1.080   7.712  0.8500 -2.3264 -3.3625
   75SLPC  H15S 6731   4.729   1.157   7.665 -1.0523 -1.0444 -2.1829
   75SLPC  C216 6732   4.894   1.283   7.630 -0.2169  0.2129 -0.7135
   75SLPC  H16R 6733   4.836   1.341   7.555 -0.4210  1.6804  0.5229
   75SLPC  H16S 6734   5.001   1.278   7.601 -0.7019  2.1260 -3.1359
   75SLPC  C217 6735   4.882   1.369   7.758  0.2351  0.1014 -0.4351
   75SLPC  H17R 6736   4.777   1.401   7.772 -1.1163 -3.2899 -1.6756
   75SLPC  H17S 6737   4.951   1.455   7.749 -0.0908  0.5859  1.3608
   75SLPC  C218 6738   4.930   1.295   7.886  0.2316  0.5129  0.2015
   75SLPC  H18R 6739   5.008   1.220   7.856 -0.7054 -1.2239  1.9034
   75SLPC  H18S 6740   4.846   1.235   7.928  0.4865  1.1430  1.6730
   75SLPC  H18T 6741   4.974   1.362   7.963  0.3972 -0.4635  0.9751
   75SLPC   C33 6742   4.404  -0.047   7.367 -0.4156 -0.1700  0.4926
   75SLPC   H3X 6743   4.331  -0.130   7.354 -0.3961 -0.7511  3.3208
   75SLPC   H3Y 6744   4.505  -0.086   7.342 -1.6062 -3.2085  0.0109
   75SLPC   C34 6745   4.401   0.007   7.509  0.0789 -0.4889 -0.1928
   75SLPC   H4X 6746   4.313   0.070   7.534  0.9107  0.7638 -0.3229
   75SLPC   H4Y 6747   4.486   0.077   7.527 -2.2545  2.6793 -0.8095
   75SLPC   C35 6748   4.391  -0.099   7.619 -1.0154  0.6686  0.3286
   75SLPC   H5X 6749   4.458  -0.185   7.597 -0.1851  1.5244 -0.6216
   75SLPC   H5Y 6750   4.288  -0.142   7.625 -1.0969  1.0128  1.5691
   75SLPC   C36 6751   4.428  -0.053   7.766  0.4279 -0.5444  1.0655
   75SLPC   H6X 6752   4.345   0.013   7.799  0.3582 -0.4250  0.6687
   75SLPC   H6Y 6753   4.519   0.009   7.754  0.2029 -0.1602  1.3327
   75SLPC   C37 6754   4.471  -0.167   7.853  0.5589 -0.4289 -0.1252
   75SLPC   H7X 6755   4.555  -0.227   7.811  0.1357 -0.2530 -1.2586
   75SLPC   H7Y 6756   4.383  -0.234   7.864  2.2594 -3.4073 -2.8567
   75SLPC   C38 6757   4.504  -0.104   7.988  0.5506  0.1013 -0.1226
   75SLPC   H8X 6758   4.429  -0.026   8.013  1.6826  0.8929  0.9408
   75SLPC   H8Y 6759   4.604  -0.057   7.971 -0.2116  1.5413 -0.7657
   75SLPC   C39 6760   4.511  -0.201   8.102  0.1977 -0.5023 -0.3303
   75SLPC   H9X 6761   4.594  -0.269   8.075 -0.1942 -0.9465 -0.4242
   75SLPC   H9Y 6762   4.411  -0.247   8.120 -0.4676 -0.2205 -2.8849
   75SLPC  C310 6763   4.549  -0.133   8.228 -0.7005 -0.6528  0.0971
   75SLPC  H10X 6764   4.467  -0.064   8.256  1.5508  1.6748  1.3684
   75SLPC  H10Y 6765   4.638  -0.066   8.221 -0.8777 -0.3759  0.4457
   75SLPC  C311 6766   4.573  -0.219   8.349  1.0089  0.4388  0.0445
   75SLPC  H11X 6767   4.657  -0.289   8.328 -0.8599 -1.9073  0.0348
   75SLPC  H11Y 6768   4.484  -0.285   8.342 -0.0321  1.7830  0.2179
   75SLPC  C312 6769   4.606  -0.156   8.484 -0.0143  0.2134 -0.7697
   75SLPC  H12X 6770   4.529  -0.078   8.503  0.1061  0.2565 -0.4435
   75SLPC  H12Y 6771   4.706  -0.109   8.487  1.1566 -2.1562  0.7802
   75SLPC  C313 6772   4.597  -0.259   8.606 -0.7131  0.3567  0.7522
   75SLPC  H13X 6773   4.607  -0.208   8.704  0.5956  0.4333  0.5987
   75SLPC  H13Y 6774   4.682  -0.329   8.598 -0.7558  0.3189  0.6206
   75SLPC  C314 6775   4.477  -0.353   8.605 -0.6363 -0.3722  0.1475
   75SLPC  H14X 6776   4.492  -0.426   8.687 -1.9976  0.1001  0.8434
   75SLPC  H14Y 6777   4.454  -0.409   8.512 -0.7378 -0.4467  0.2171
   75SLPC  C315 6778   4.360  -0.268   8.641  0.4648 -1.1460  0.2646
   75SLPC  H15X 6779   4.336  -0.221   8.544  0.7925 -1.2670  0.1249
   75SLPC  H15Y 6780   4.383  -0.182   8.708 -1.5022 -1.1128  0.9705
   75SLPC  C316 6781   4.229  -0.345   8.689 -0.9558 -0.0017 -0.2113
   75SLPC  H16X 6782   4.214  -0.441   8.636  0.4962  0.1257 -0.8857
   75SLPC  H16Y 6783   4.145  -0.277   8.661  1.2275  2.9635 -0.0590
   75SLPC  C317 6784   4.218  -0.373   8.840 -0.2289 -0.6817 -0.2896
   75SLPC  H17X 6785   4.217  -0.269   8.878 -2.1160 -0.2501 -1.4035
   75SLPC  H17Y 6786   4.303  -0.434   8.877  0.8913 -0.9994 -3.1467
   75SLPC  C318 6787   4.088  -0.436   8.890 -0.6282  0.3653 -0.2335
   75SLPC  H18X 6788   4.067  -0.518   8.819 -1.5071 -0.1618  0.6101
   75SLPC  H18Y 6789   4.009  -0.359   8.894  0.4523  1.5861 -1.5377
   75SLPC  H18Z 6790   4.089  -0.483   8.991  0.3468 -1.2676 -0.9436
   76SLPC     N 6791   6.178   1.053   6.206  0.4282  0.1722 -0.3829
   76SLPC   C13 6792   6.238   1.173   6.137  0.1304  0.2127 -0.5097
   76SLPC  H13A 6793   6.168   1.255   6.150 -1.3910 -1.2760  1.3501
   76SLPC  H13B 6794   6.334   1.208   6.171  0.4873  0.1792 -1.4519
   76SLPC  H13C 6795   6.247   1.142   6.034 -1.2083 -0.6619 -0.3826
   76SLPC   C14 6796   6.279   0.943   6.193  0.8439  0.7300  0.5078
   76SLPC  H14A 6797   6.256   0.855   6.252 -0.2770  0.7503  0.1294
   76SLPC  H14B 6798   6.289   0.903   6.093 -3.9440  0.5298 -0.1397
   76SLPC  H14C 6799   6.370   0.963   6.247  1.9329  1.0576 -1.3838
   76SLPC   C15 6800   6.044   1.010   6.147 -0.0448 -0.5004 -0.0719
   76SLPC  H15A 6801   5.971   1.090   6.143  0.6086  0.1583  0.8501
   76SLPC  H15B 6802   6.052   0.975   6.045  1.3716 -0.5549  0.0401
   76SLPC  H15C 6803   6.000   0.927   6.200  2.4246 -2.0735 -0.3009
   76SLPC   C12 6804   6.155   1.078   6.360  0.1367  0.0860  0.3363
   76SLPC  H12A 6805   6.063   1.135   6.368  0.1656 -0.0441  1.8739
   76SLPC  H12B 6806   6.234   1.142   6.397  0.4577  0.2916 -0.6733
   76SLPC   C11 6807   6.146   0.948   6.441 -0.1380  0.0485 -0.1774
   76SLPC  H11A 6808   6.131   0.977   6.547  2.9863 -1.1624  0.7027
   76SLPC  H11B 6809   6.240   0.890   6.446 -0.3194 -0.2161  0.1866
   76SLPC     P 6810   6.049   0.714   6.396  0.5770 -0.0869 -0.2974
   76SLPC   O13 6811   5.911   0.666   6.379 -0.8117 -0.6140 -0.1240
   76SLPC   O14 6812   6.145   0.682   6.291 -0.4298  0.2562 -0.3803
   76SLPC   O12 6813   6.029   0.869   6.413  0.2956 -0.7844 -0.0464
   76SLPC   O11 6814   6.102   0.667   6.539 -0.2540 -0.5718 -0.2634
   76SLPC    C1 6815   6.027   0.707   6.657  0.2388 -0.1401 -0.0726
   76SLPC    HA 6816   5.970   0.802   6.649  1.0833  0.4721  0.8414
   76SLPC    HB 6817   5.956   0.627   6.687  1.3519 -0.8411  0.7670
   76SLPC    C2 6818   6.128   0.747   6.770  0.2280  0.5755  0.0805
   76SLPC    HS 6819   6.201   0.817   6.725 -0.2139  0.5265 -0.7303
   76SLPC   O21 6820   6.183   0.620   6.824 -0.1743 -1.0303  0.2954
   76SLPC   C21 6821   6.312   0.617   6.832 -0.3857 -0.1930  0.1735
   76SLPC   O22 6822   6.394   0.706   6.798  0.0812  0.3263  0.0340
   76SLPC   C22 6823   6.350   0.482   6.896 -0.0018 -0.8243 -0.8139
   76SLPC   H2R 6824   6.295   0.487   6.992  1.5952  0.2373  0.0860
   76SLPC   H2S 6825   6.302   0.413   6.823  1.8800 -0.3482 -2.6060
   76SLPC    C3 6826   6.052   0.818   6.886  0.0399  1.3218 -0.2911
   76SLPC    HX 6827   5.963   0.753   6.907  0.2009  1.0787 -0.3547
   76SLPC    HY 6828   6.013   0.911   6.841 -0.9929  1.3946  0.7069
   76SLPC   O31 6829   6.129   0.833   7.006  0.1717  0.3026 -0.3188
   76SLPC   C31 6830   6.221   0.925   6.995  0.2552 -0.0942  0.5576
   76SLPC   O32 6831   6.252   0.982   6.894  0.1454 -0.0530 -0.0681
   76SLPC   C32 6832   6.285   0.953   7.135  0.4012 -0.6412  0.1646
   76SLPC   H2X 6833   6.211   1.014   7.192  1.0385 -0.4089  0.7497
   76SLPC   H2Y 6834   6.375   1.016   7.125  0.2626 -0.5872 -0.9954
   76SLPC   C23 6835   6.498   0.459   6.885  0.6785  0.0697 -0.0360
   76SLPC   H3R 6836   6.537   0.490   6.786 -0.4208  0.7252 -0.2769
   76SLPC   H3S 6837   6.520   0.350   6.884 -2.7979 -0.7489  0.3394
   76SLPC   C24 6838   6.585   0.523   6.988  0.4542 -0.2715 -0.5386
   76SLPC   H4R 6839   6.550   0.629   6.993 -0.4707 -0.5853 -0.1453
   76SLPC   H4S 6840   6.687   0.513   6.946 -0.2338 -1.8725 -1.9149
   76SLPC   C25 6841   6.586   0.453   7.125 -0.2080 -0.2286 -0.0407
   76SLPC   H5R 6842   6.610   0.345   7.120 -0.9187 -0.3578 -1.0847
   76SLPC   H5S 6843   6.485   0.460   7.170  0.0154  3.5063  0.2220
   76SLPC   C26 6844   6.692   0.511   7.218 -0.2724 -0.6766 -0.0471
   76SLPC   H6R 6845   6.669   0.610   7.263  1.1128 -0.1608 -0.4465
   76SLPC   H6S 6846   6.788   0.513   7.163 -1.9464  0.9244 -3.1916
   76SLPC   C27 6847   6.699   0.416   7.343  0.3475 -0.7426 -1.2009
   76SLPC   H7R 6848   6.718   0.318   7.293  0.7931 -0.4488 -1.6040
   76SLPC   H7S 6849   6.601   0.419   7.396  1.0416 -0.4612  0.1027
   76SLPC   C28 6850   6.837   0.435   7.419 -0.0446  0.2245 -0.1599
   76SLPC   H8R 6851   6.852   0.354   7.494  0.1180  1.7837  1.5657
   76SLPC   H8S 6852   6.918   0.438   7.344  1.6243  0.4633  1.5681
   76SLPC   C29 6853   6.844   0.558   7.503  0.2623 -0.1752  0.0034
   76SLPC   H9R 6854   6.842   0.652   7.446  0.3688 -0.5918 -0.7009
   76SLPC  C210 6855   6.824   0.566   7.637  0.0459  0.1178  0.1308
   76SLPC  H10R 6856   6.841   0.667   7.679  1.1905 -0.5689  1.4101
   76SLPC  C211 6857   6.790   0.457   7.742  0.4910 -0.2436  0.3670
   76SLPC  H11R 6858   6.819   0.503   7.839  1.6821 -2.1222  0.9549
   76SLPC  H11S 6859   6.858   0.370   7.726 -0.3394 -0.4839 -2.3878
   76SLPC  C212 6860   6.643   0.419   7.762  0.9867  0.1933  0.5592
   76SLPC  H12R 6861   6.576   0.425   7.674  0.2239 -0.0865  1.1067
   76SLPC  C213 6862   6.586   0.372   7.875  0.3706 -0.0840 -0.1252
   76SLPC  H13R 6863   6.477   0.354   7.875  0.4039 -1.3506 -4.2551
   76SLPC  C214 6864   6.652   0.359   8.010  0.2609 -0.0839 -0.9459
   76SLPC  H14R 6865   6.761   0.382   8.010  0.3126  0.0651  2.2914
   76SLPC  H14S 6866   6.665   0.255   8.048  1.5736 -0.5623 -2.5724
   76SLPC  C215 6867   6.572   0.430   8.126 -0.0786  0.1634 -0.0995
   76SLPC  H15R 6868   6.633   0.413   8.218 -0.2230  0.0750 -0.0217
   76SLPC  H15S 6869   6.477   0.381   8.155 -0.2747  0.4480 -0.2580
   76SLPC  C216 6870   6.563   0.585   8.127  0.0441 -0.4861  0.1216
   76SLPC  H16R 6871   6.525   0.614   8.027 -0.0201 -2.1915 -0.3768
   76SLPC  H16S 6872   6.664   0.630   8.136  0.0317 -0.7023  1.6898
   76SLPC  C217 6873   6.477   0.645   8.236  0.0385  0.2264  0.3174
   76SLPC  H17R 6874   6.525   0.610   8.330 -1.4062 -2.0567  0.3017
   76SLPC  H17S 6875   6.371   0.610   8.231  0.1519 -0.1228  0.3190
   76SLPC  C218 6876   6.465   0.799   8.234 -0.0281 -0.4788 -0.1038
   76SLPC  H18R 6877   6.436   0.837   8.134 -0.2992 -0.8561 -0.1730
   76SLPC  H18S 6878   6.562   0.843   8.268  0.6324 -3.3732  2.2731
   76SLPC  H18T 6879   6.375   0.829   8.291 -2.0509 -0.8582 -2.9461
   76SLPC   C33 6880   6.315   0.829   7.217 -0.5493 -0.2158  0.2696
   76SLPC   H3X 6881   6.393   0.787   7.151  2.2025  2.8251  1.3252
   76SLPC   H3Y 6882   6.216   0.782   7.234 -0.6811  0.2096  0.6947
   76SLPC   C34 6883   6.372   0.857   7.357  0.3822  0.4493  0.3105
   76SLPC   H4X 6884   6.293   0.910   7.414  0.5717  0.4047  0.6169
   76SLPC   H4Y 6885   6.464   0.918   7.353  1.8920 -1.6672  0.6391
   76SLPC   C35 6886   6.397   0.736   7.446 -0.4534 -0.0479  0.0348
   76SLPC   H5X 6887   6.479   0.677   7.401  1.3361  0.0437  2.9461
   76SLPC   H5Y 6888   6.313   0.663   7.443  0.6442 -1.3342 -0.2475
   76SLPC   C36 6889   6.417   0.761   7.596 -0.2128  0.2934  0.0097
   76SLPC   H6X 6890   6.450   0.669   7.650  0.8646 -0.1380 -1.3390
   76SLPC   H6Y 6891   6.323   0.784   7.651 -0.1740 -1.1598  0.7414
   76SLPC   C37 6892   6.526   0.871   7.631 -0.0492 -0.1279  0.0208
   76SLPC   H7X 6893   6.494   0.964   7.580  1.9384  0.3576 -0.4215
   76SLPC   H7Y 6894   6.621   0.842   7.582  1.4227 -1.0224  3.1249
   76SLPC   C38 6895   6.548   0.887   7.783  0.2777  0.3211 -0.1106
   76SLPC   H8X 6896   6.566   0.784   7.821 -2.2283 -1.1987 -2.6588
   76SLPC   H8Y 6897   6.456   0.918   7.836 -0.7406  0.5203 -1.9335
   76SLPC   C39 6898   6.659   0.983   7.822  0.5581  0.3956 -0.4576
   76SLPC   H9X 6899   6.612   1.084   7.821 -1.1638 -0.3707 -0.7072
   76SLPC   H9Y 6900   6.745   0.992   7.752  1.1955  1.3474  0.4181
   76SLPC  C310 6901   6.709   0.943   7.966  0.1128 -1.0229  0.1446
   76SLPC  H10X 6902   6.736   0.836   7.960 -0.0188 -1.1809  1.8143
   76SLPC  H10Y 6903   6.621   0.949   8.034  1.4150 -0.4216  1.8576
   76SLPC  C311 6904   6.821   1.037   7.995 -0.8232  0.6005 -0.0040
   76SLPC  H11X 6905   6.883   1.048   7.904 -0.7418 -1.4678 -0.2473
   76SLPC  H11Y 6906   6.885   0.988   8.072 -2.9604 -1.7867  0.3970
   76SLPC  C312 6907   6.778   1.175   8.057 -0.6792  0.0062 -0.8300
   76SLPC  H12X 6908   6.752   1.162   8.164 -0.6474 -0.3584 -0.8660
   76SLPC  H12Y 6909   6.685   1.216   8.011 -0.3901  1.0924 -0.4779
   76SLPC  C313 6910   6.888   1.278   8.030 -0.7888  0.2826 -0.4029
   76SLPC  H13X 6911   6.906   1.298   7.922 -1.2154 -2.1067 -0.9739
   76SLPC  H13Y 6912   6.976   1.239   8.083 -0.4922  0.5997 -0.6559
   76SLPC  C314 6913   6.852   1.411   8.087 -0.1262 -0.7725 -0.9894
   76SLPC  H14X 6914   6.945   1.470   8.071  0.6737 -1.7210 -0.0207
   76SLPC  H14Y 6915   6.824   1.387   8.192  0.8826  0.7607 -0.3390
   76SLPC  C315 6916   6.736   1.480   8.010 -0.6093  0.3619  0.6044
   76SLPC  H15X 6917   6.631   1.455   8.037 -0.6072  1.0930  1.3351
   76SLPC  H15Y 6918   6.749   1.460   7.902  1.6481 -0.9972  1.0594
   76SLPC  C316 6919   6.736   1.631   8.026  0.1600 -0.4315 -0.3575
   76SLPC  H16X 6920   6.651   1.664   7.963 -1.7833 -1.7594  1.4386
   76SLPC  H16Y 6921   6.830   1.671   7.982  0.4707  0.7814  1.3133
   76SLPC  C317 6922   6.712   1.680   8.169 -0.0868  0.2170  0.2699
   76SLPC  H17X 6923   6.797   1.646   8.233  0.1643  2.3648  1.1703
   76SLPC  H17Y 6924   6.622   1.631   8.213 -0.7358  0.5589 -0.6421
   76SLPC  C318 6925   6.676   1.829   8.182 -0.7885  0.0950 -0.1752
   76SLPC  H18X 6926   6.597   1.862   8.111  0.6124 -0.8655 -2.3141
   76SLPC  H18Y 6927   6.767   1.890   8.163  1.4059 -0.8415  5.3081
   76SLPC  H18Z 6928   6.644   1.852   8.285  0.1949 -0.0629  0.1801
   77SLPC     N 6929   2.569   6.086   6.156  0.0421 -0.1068  0.1868
   77SLPC   C13 6930   2.630   5.953   6.186 -0.2370  0.0049 -0.7695
   77SLPC  H13A 6931   2.604   5.877   6.115  2.3855 -0.2930 -1.5303
   77SLPC  H13B 6932   2.736   5.961   6.169 -0.1785 -1.2868 -1.0851
   77SLPC  H13C 6933   2.611   5.929   6.290 -1.9566 -0.6772 -1.2080
   77SLPC   C14 6934   2.613   6.126   6.015 -0.0381  0.1329  0.9129
   77SLPC  H14A 6935   2.580   6.227   5.995  0.7356  0.4916  1.3786
   77SLPC  H14B 6936   2.721   6.123   6.009  0.1825  2.3308  2.4250
   77SLPC  H14C 6937   2.573   6.059   5.941 -0.1796  1.0150  0.1674
   77SLPC   C15 6938   2.614   6.176   6.264 -0.4780 -0.1865  0.0454
   77SLPC  H15A 6939   2.590   6.276   6.229  3.0335  0.3453 -1.2833
   77SLPC  H15B 6940   2.557   6.149   6.351  0.0847  0.1277  0.5164
   77SLPC  H15C 6941   2.720   6.185   6.283 -0.2827  0.6866 -1.3247
   77SLPC   C12 6942   2.412   6.078   6.160 -0.3975  0.4971 -0.0324
   77SLPC  H12A 6943   2.382   6.045   6.258  0.1957  3.4691  1.2569
   77SLPC  H12B 6944   2.388   6.005   6.084 -0.8130  0.7514 -0.1499
   77SLPC   C11 6945   2.326   6.211   6.145  0.3649  0.4324  0.0250
   77SLPC  H11A 6946   2.228   6.176   6.106  0.6175  1.8258 -2.0485
   77SLPC  H11B 6947   2.359   6.269   6.056 -0.0090  2.2568  1.0379
   77SLPC     P 6948   2.197   6.285   6.362 -0.3212 -0.1336  0.5117
   77SLPC   O13 6949   2.199   6.399   6.461 -0.4347 -0.4819  0.1111
   77SLPC   O14 6950   2.080   6.276   6.272  0.2677  0.0644  0.0136
   77SLPC   O12 6951   2.318   6.293   6.260  0.5489  0.0378  0.5155
   77SLPC   O11 6952   2.206   6.144   6.440 -0.2927  0.0813  0.6648
   77SLPC    C1 6953   2.320   6.122   6.526  0.1221  0.1669  0.9312
   77SLPC    HA 6954   2.379   6.039   6.481 -1.7576 -0.1124 -1.1612
   77SLPC    HB 6955   2.390   6.206   6.547  1.2616 -0.8973  1.5170
   77SLPC    C2 6956   2.277   6.089   6.674 -0.1205 -0.0418  0.5763
   77SLPC    HS 6957   2.364   6.076   6.742  0.0181 -0.8056  0.2649
   77SLPC   O21 6958   2.190   5.973   6.675 -0.2191 -0.0072  0.0146
   77SLPC   C21 6959   2.244   5.856   6.650 -0.0119 -0.4006  0.5440
   77SLPC   O22 6960   2.362   5.836   6.627 -0.1715 -0.2043 -0.3704
   77SLPC   C22 6961   2.130   5.752   6.655  0.0765 -0.4681 -0.0500
   77SLPC   H2R 6962   2.034   5.785   6.700 -0.9260 -2.6886 -0.4530
   77SLPC   H2S 6963   2.098   5.743   6.549  0.7002  1.8339 -0.4868
   77SLPC    C3 6964   2.209   6.212   6.743  0.0305  0.1604 -0.3040
   77SLPC    HX 6965   2.110   6.235   6.699 -0.9228 -1.4879  0.8878
   77SLPC    HY 6966   2.274   6.302   6.731 -0.6666  0.8977  1.1273
   77SLPC   O31 6967   2.173   6.177   6.884  0.1865  0.4547  0.1074
   77SLPC   C31 6968   2.275   6.183   6.963 -1.1085 -0.3668  0.3326
   77SLPC   O32 6969   2.389   6.220   6.936 -0.0528 -0.6432 -0.3275
   77SLPC   C32 6970   2.222   6.143   7.095 -0.1905 -1.2210 -0.1096
   77SLPC   H2X 6971   2.209   6.033   7.102  1.6170 -1.4797 -0.3552
   77SLPC   H2Y 6972   2.121   6.187   7.108  0.5082  0.4925 -0.2490
   77SLPC   C23 6973   2.182   5.615   6.698 -0.8473 -0.0711  0.4170
   77SLPC   H3R 6974   2.282   5.575   6.671 -0.7372 -1.5994  2.7522
   77SLPC   H3S 6975   2.104   5.546   6.657 -0.9345  1.4413 -2.1776
   77SLPC   C24 6976   2.174   5.586   6.852 -0.5193  0.0941  0.1496
   77SLPC   H4R 6977   2.211   5.486   6.884 -0.7584  0.0094  0.1706
   77SLPC   H4S 6978   2.064   5.591   6.867 -0.4825 -0.1724  0.5257
   77SLPC   C25 6979   2.257   5.688   6.927 -0.0965 -0.7525 -0.2884
   77SLPC   H5R 6980   2.193   5.776   6.949 -2.0044 -2.3122  0.5700
   77SLPC   H5S 6981   2.353   5.707   6.874 -0.8782  1.4449 -1.0216
   77SLPC   C26 6982   2.293   5.644   7.069  0.1119 -0.0380 -0.0649
   77SLPC   H6R 6983   2.199   5.602   7.112  0.0424  1.8194  1.7338
   77SLPC   H6S 6984   2.314   5.734   7.131  0.9994  0.4844 -1.0941
   77SLPC   C27 6985   2.409   5.538   7.076  0.6607  0.1838 -0.4965
   77SLPC   H7R 6986   2.490   5.597   7.027  1.6970  0.2100  1.1720
   77SLPC   H7S 6987   2.397   5.448   7.013  2.0197 -0.0933 -0.4085
   77SLPC   C28 6988   2.467   5.514   7.220  0.9780  0.2349  0.3189
   77SLPC   H8R 6989   2.402   5.453   7.286  0.5740  0.8388  0.4813
   77SLPC   H8S 6990   2.478   5.610   7.275  4.1943  0.6472 -0.7836
   77SLPC   C29 6991   2.603   5.447   7.204  0.4406  0.0384 -0.7234
   77SLPC   H9R 6992   2.655   5.475   7.111 -1.5368  1.1333 -1.5544
   77SLPC  C210 6993   2.670   5.372   7.292 -0.0588 -0.2208 -0.5767
   77SLPC  H10R 6994   2.769   5.338   7.259  0.7862  1.3248  0.2458
   77SLPC  C211 6995   2.625   5.337   7.442 -0.3687 -0.0712  0.0497
   77SLPC  H11R 6996   2.590   5.232   7.445 -1.4381  0.2603 -0.2452
   77SLPC  H11S 6997   2.534   5.399   7.461 -1.1309 -1.1651  0.0163
   77SLPC  C212 6998   2.730   5.375   7.538  0.3187  0.9792  0.0478
   77SLPC  H12R 6999   2.812   5.427   7.487  0.1078  0.0917 -1.2377
   77SLPC  C213 7000   2.726   5.373   7.670 -1.0435 -0.0233  0.1447
   77SLPC  H13R 7001   2.807   5.418   7.730 -0.9510 -0.7637  0.5787
   77SLPC  C214 7002   2.606   5.324   7.748 -0.2589  0.7036 -0.0104
   77SLPC  H14R 7003   2.524   5.285   7.683 -0.6066  2.2326 -0.5529
   77SLPC  H14S 7004   2.562   5.411   7.802 -0.1870  1.0408 -0.4796
   77SLPC  C215 7005   2.634   5.209   7.852 -0.0531  0.2990 -0.0399
   77SLPC  H15R 7006   2.683   5.129   7.792 -1.1585 -1.6690  1.5228
   77SLPC  H15S 7007   2.538   5.168   7.890 -0.1236  0.3840 -0.1267
   77SLPC  C216 7008   2.712   5.254   7.976 -0.2694  0.2024 -0.0056
   77SLPC  H16R 7009   2.649   5.327   8.029 -1.0569  0.6626 -1.5291
   77SLPC  H16S 7010   2.805   5.310   7.953 -0.9548  1.2170 -0.3872
   77SLPC  C217 7011   2.745   5.140   8.072 -0.1910 -0.4552 -0.3046
   77SLPC  H17R 7012   2.824   5.070   8.039 -0.2258 -0.2264 -0.8959
   77SLPC  H17S 7013   2.658   5.076   8.099 -0.9697  1.7654  3.0104
   77SLPC  C218 7014   2.791   5.192   8.206 -0.2315  0.7368 -0.3454
   77SLPC  H18R 7015   2.900   5.174   8.212 -0.3747  0.1007  0.7451
   77SLPC  H18S 7016   2.748   5.132   8.290  2.6136 -0.6862  0.1954
   77SLPC  H18T 7017   2.781   5.299   8.232  1.2608  0.2476  2.7224
   77SLPC   C33 7018   2.302   6.213   7.207 -0.8027  0.8713 -0.1543
   77SLPC   H3X 7019   2.307   6.319   7.176 -2.0953  0.6705 -1.1223
   77SLPC   H3Y 7020   2.408   6.180   7.210 -1.3608 -1.3034 -1.8476
   77SLPC   C34 7021   2.231   6.197   7.347  0.6615 -0.1382 -0.4398
   77SLPC   H4X 7022   2.219   6.090   7.375 -0.4395 -0.1502 -0.9126
   77SLPC   H4Y 7023   2.128   6.231   7.325 -0.1658 -1.9347  0.3930
   77SLPC   C35 7024   2.303   6.271   7.456  0.7327 -0.1252  0.3513
   77SLPC   H5X 7025   2.246   6.299   7.547 -1.3718 -2.5108 -0.1498
   77SLPC   H5Y 7026   2.331   6.368   7.409 -0.9680 -0.2602 -1.0181
   77SLPC   C36 7027   2.428   6.197   7.505  0.8256  0.7814 -0.7733
   77SLPC   H6X 7028   2.507   6.201   7.426  0.9003  0.8572 -0.6947
   77SLPC   H6Y 7029   2.404   6.089   7.520  1.0477  0.6554 -1.2743
   77SLPC   C37 7030   2.475   6.261   7.637 -0.3240  0.1585  0.1288
   77SLPC   H7X 7031   2.560   6.197   7.670 -0.4723 -0.3156 -0.3930
   77SLPC   H7Y 7032   2.395   6.236   7.710 -0.7813 -0.8329 -0.6837
   77SLPC   C38 7033   2.515   6.416   7.638 -0.4251  0.4225 -0.1617
   77SLPC   H8X 7034   2.431   6.483   7.612  0.2268  0.8593 -1.2362
   77SLPC   H8Y 7035   2.587   6.417   7.553 -0.1429  1.3563  0.0806
   77SLPC   C39 7036   2.592   6.463   7.764  0.5771  1.3515  0.7158
   77SLPC   H9X 7037   2.598   6.574   7.762 -0.5794  1.4141 -0.8304
   77SLPC   H9Y 7038   2.689   6.409   7.755 -1.3630 -2.1232 -1.8581
   77SLPC  C310 7039   2.532   6.422   7.899  0.4197 -0.1533 -0.6088
   77SLPC  H10X 7040   2.544   6.312   7.900 -2.4000 -0.5300 -0.7293
   77SLPC  H10Y 7041   2.425   6.451   7.896  0.9434  2.0656 -0.0076
   77SLPC  C311 7042   2.599   6.490   8.021  0.1012  0.1492  0.6720
   77SLPC  H11X 7043   2.589   6.600   8.013  0.4251  0.3879  2.8818
   77SLPC  H11Y 7044   2.709   6.476   8.015  0.2338 -0.2042  3.1628
   77SLPC  C312 7045   2.555   6.453   8.156  0.2252  0.0376  0.2236
   77SLPC  H12X 7046   2.520   6.347   8.165 -2.4237  0.8879  0.8889
   77SLPC  H12Y 7047   2.464   6.512   8.180  0.5955  0.1069  1.5753
   77SLPC  C313 7048   2.669   6.482   8.253 -0.1188 -0.0108 -0.3327
   77SLPC  H13X 7049   2.729   6.572   8.231  1.0387 -1.1205 -1.9420
   77SLPC  H13Y 7050   2.739   6.396   8.245  2.5585  1.7233  2.4259
   77SLPC  C314 7051   2.627   6.477   8.405  0.4265 -0.1652  0.1035
   77SLPC  H14X 7052   2.571   6.383   8.422  2.5189 -1.7259 -1.1183
   77SLPC  H14Y 7053   2.558   6.563   8.417  1.5857  1.0023 -1.2081
   77SLPC  C315 7054   2.744   6.500   8.504  0.0949  0.1349 -0.7537
   77SLPC  H15X 7055   2.819   6.572   8.465 -0.3498  1.2570  0.3693
   77SLPC  H15Y 7056   2.802   6.406   8.510  0.1100  0.2320  2.3914
   77SLPC  C316 7057   2.712   6.556   8.646 -0.5777  0.7982  0.7111
   77SLPC  H16X 7058   2.688   6.664   8.638 -1.3805  0.5493 -0.5692
   77SLPC  H16Y 7059   2.800   6.535   8.711  0.1611  2.2620  0.2181
   77SLPC  C317 7060   2.591   6.481   8.712  0.4741 -0.4716  0.0205
   77SLPC  H17X 7061   2.500   6.497   8.650 -0.1809  0.2551  1.1313
   77SLPC  H17Y 7062   2.569   6.528   8.810 -4.7350 -2.0624 -0.1024
   77SLPC  C318 7063   2.619   6.334   8.733 -0.4680  0.4513  0.7195
   77SLPC  H18X 7064   2.702   6.294   8.670 -2.6914 -2.4705 -0.5343
   77SLPC  H18Y 7065   2.526   6.280   8.709  0.4100 -1.0985  0.7093
   77SLPC  H18Z 7066   2.665   6.301   8.829  1.0410 -0.9003 -0.4008
   78SLPC     N 7067   3.431   6.343   6.262 -0.1032  0.1016  0.4254
   78SLPC   C13 7068   3.395   6.209   6.204 -0.1078 -0.1412 -0.1072
   78SLPC  H13A 7069   3.294   6.179   6.230 -0.1327 -0.0963 -0.1526
   78SLPC  H13B 7070   3.406   6.205   6.096 -1.4420 -1.1072 -0.2338
   78SLPC  H13C 7071   3.461   6.133   6.243 -0.7256  0.2093  1.7069
   78SLPC   C14 7072   3.558   6.395   6.189  0.5220  0.5991 -0.7196
   78SLPC  H14A 7073   3.545   6.377   6.084 -0.2375 -0.2009 -0.4935
   78SLPC  H14B 7074   3.579   6.501   6.191 -1.7377  1.1531 -2.8637
   78SLPC  H14C 7075   3.640   6.340   6.235 -1.6987  0.0216  2.9759
   78SLPC   C15 7076   3.467   6.321   6.406  0.0635  0.3560  0.3025
   78SLPC  H15A 7077   3.550   6.251   6.414  1.2574  1.8284  1.6110
   78SLPC  H15B 7078   3.502   6.411   6.454 -0.8372  0.0307  1.6236
   78SLPC  H15C 7079   3.381   6.290   6.463 -0.7544  0.4614 -0.8485
   78SLPC   C12 7080   3.315   6.442   6.241 -0.3270 -0.0698 -0.3911
   78SLPC  H12A 7081   3.225   6.407   6.290 -0.9666  0.3118 -1.2614
   78SLPC  H12B 7082   3.292   6.445   6.135  0.7550 -2.1962 -0.7197
   78SLPC   C11 7083   3.333   6.584   6.293  0.9877  0.2628 -0.5285
   78SLPC  H11A 7084   3.359   6.582   6.401  0.2677 -2.0961 -0.3224
   78SLPC  H11B 7085   3.236   6.638   6.287  0.3469 -0.9808 -3.4792
   78SLPC     P 7086   3.462   6.812   6.244 -0.5323  0.5780 -0.6038
   78SLPC   O13 7087   3.501   6.888   6.122 -0.1207 -0.2965  0.0393
   78SLPC   O14 7088   3.356   6.875   6.324  0.1823 -0.7653 -0.2288
   78SLPC   O12 7089   3.428   6.657   6.213 -0.6133 -0.2549 -0.0155
   78SLPC   O11 7090   3.600   6.801   6.319  0.1261 -0.2958  0.3234
   78SLPC    C1 7091   3.647   6.706   6.410 -0.0047  0.1992 -0.9405
   78SLPC    HA 7092   3.596   6.607   6.405  0.2493  0.0968 -1.4841
   78SLPC    HB 7093   3.752   6.676   6.393 -0.4700 -0.9134 -1.9963
   78SLPC    C2 7094   3.649   6.757   6.562 -0.1813  0.3158  0.0144
   78SLPC    HS 7095   3.688   6.667   6.616  2.0923  1.8314  1.0520
   78SLPC   O21 7096   3.517   6.803   6.609  0.1653  0.9169  0.4318
   78SLPC   C21 7097   3.437   6.695   6.630  0.3052  0.2354 -0.5543
   78SLPC   O22 7098   3.459   6.574   6.610 -0.0726 -0.2496 -0.2478
   78SLPC   C22 7099   3.310   6.752   6.694  0.7087  0.9031 -0.2215
   78SLPC   H2R 7100   3.243   6.782   6.611 -0.1985 -0.5195 -0.0240
   78SLPC   H2S 7101   3.259   6.672   6.752  1.1833  1.3980  0.9101
   78SLPC    C3 7102   3.750   6.868   6.576 -0.4857 -0.0870 -0.3227
   78SLPC    HX 7103   3.718   6.954   6.514  0.6682  2.1471  2.0007
   78SLPC    HY 7104   3.852   6.838   6.543 -0.9190 -1.2362 -0.6580
   78SLPC   O31 7105   3.753   6.911   6.715 -0.6717  0.0224  0.0555
   78SLPC   C31 7106   3.717   7.032   6.738 -0.0764 -0.0510 -0.2685
   78SLPC   O32 7107   3.673   7.121   6.662  0.0369  0.7992 -0.4117
   78SLPC   C32 7108   3.749   7.068   6.887 -0.0812  0.1765  0.1556
   78SLPC   H2X 7109   3.851   7.031   6.912 -0.3909 -0.5720  0.3417
   78SLPC   H2Y 7110   3.680   7.011   6.952 -1.1178  2.2670  0.9861
   78SLPC   C23 7111   3.317   6.878   6.783 -0.1087 -0.1374  0.4009
   78SLPC   H3R 7112   3.213   6.916   6.792 -0.0315  0.6110 -1.5323
   78SLPC   H3S 7113   3.374   6.957   6.730 -0.3756 -0.9747 -1.1887
   78SLPC   C24 7114   3.376   6.852   6.926 -0.1943  0.2959  0.6693
   78SLPC   H4R 7115   3.462   6.782   6.924 -2.3093 -2.4932 -1.5477
   78SLPC   H4S 7116   3.291   6.789   6.963  1.1627 -2.3377 -0.3945
   78SLPC   C25 7117   3.383   6.978   7.015 -0.0933  0.2496  0.2873
   78SLPC   H5R 7118   3.323   7.058   6.967  0.7738  1.1464  0.6413
   78SLPC   H5S 7119   3.487   7.017   7.014 -0.4473  1.2750 -1.4124
   78SLPC   C26 7120   3.345   6.948   7.161 -0.1888 -0.5862  0.1288
   78SLPC   H6R 7121   3.424   6.874   7.187  1.3185  0.2367 -1.8367
   78SLPC   H6S 7122   3.244   6.903   7.154 -0.2761 -0.2668 -0.7358
   78SLPC   C27 7123   3.330   7.059   7.263 -0.5968  0.2454  0.0226
   78SLPC   H7R 7124   3.263   7.138   7.221 -1.1296  1.5144  3.0034
   78SLPC   H7S 7125   3.430   7.106   7.275  0.1101 -0.9297 -1.0339
   78SLPC   C28 7126   3.265   7.020   7.398  0.5116  0.0143  0.5437
   78SLPC   H8R 7127   3.168   6.973   7.369  0.2240  1.0913 -0.3690
   78SLPC   H8S 7128   3.233   7.106   7.460 -0.1115 -0.8300  1.4144
   78SLPC   C29 7129   3.355   6.924   7.474  0.2541  0.5884 -0.1412
   78SLPC   H9R 7130   3.342   6.817   7.449 -0.6296  0.5965  0.2544
   78SLPC  C210 7131   3.453   6.961   7.558  0.2218  0.4404  0.5819
   78SLPC  H10R 7132   3.510   6.879   7.604  0.3135 -1.5432 -2.6651
   78SLPC  C211 7133   3.494   7.101   7.591  1.0824 -0.3260  0.1635
   78SLPC  H11R 7134   3.408   7.162   7.624 -0.5635 -3.3082  1.8217
   78SLPC  H11S 7135   3.527   7.147   7.495 -0.0942 -1.8059 -0.9959
   78SLPC  C212 7136   3.609   7.114   7.687  0.0161 -0.1894  0.2661
   78SLPC  H12R 7137   3.699   7.125   7.625 -1.1576 -1.5145 -1.7735
   78SLPC  C213 7138   3.608   7.150   7.816 -0.8053 -0.2368 -0.6287
   78SLPC  H13R 7139   3.702   7.153   7.873 -1.4216 -3.4506  0.7976
   78SLPC  C214 7140   3.488   7.177   7.897 -0.2510 -0.8366 -0.5054
   78SLPC  H14R 7141   3.422   7.088   7.909  0.5204 -1.1721  1.5873
   78SLPC  H14S 7142   3.434   7.261   7.848 -0.9719 -0.0749  1.5052
   78SLPC  C215 7143   3.537   7.216   8.042  0.4868 -0.4972  0.4167
   78SLPC  H15R 7144   3.621   7.153   8.078  2.0886  1.2569 -0.0616
   78SLPC  H15S 7145   3.448   7.202   8.106 -0.5067  1.6387 -0.3805
   78SLPC  C216 7146   3.584   7.367   8.046 -0.1536 -0.7029  0.2814
   78SLPC  H16R 7147   3.493   7.427   8.027  0.2955 -0.9353 -3.2767
   78SLPC  H16S 7148   3.640   7.384   7.951 -1.7052  0.8848 -0.4052
   78SLPC  C217 7149   3.653   7.398   8.169  0.0896  0.3566  0.1509
   78SLPC  H17R 7150   3.585   7.374   8.254  0.5480 -1.1153  0.1213
   78SLPC  H17S 7151   3.676   7.507   8.163 -0.4617  0.5037  0.5601
   78SLPC  C218 7152   3.787   7.336   8.196  0.7064  0.0208 -0.3560
   78SLPC  H18R 7153   3.813   7.355   8.302 -0.6684  1.0935 -0.1902
   78SLPC  H18S 7154   3.869   7.372   8.129  1.2344 -3.1888 -1.6833
   78SLPC  H18T 7155   3.770   7.230   8.166 -2.3743  0.7559 -1.6252
   78SLPC   C33 7156   3.737   7.222   6.917  0.0740 -0.0533 -0.1096
   78SLPC   H3X 7157   3.634   7.250   6.889  0.2291  0.0228 -0.6100
   78SLPC   H3Y 7158   3.803   7.286   6.854  1.5284 -1.0987  0.3047
   78SLPC   C34 7159   3.765   7.248   7.068  0.4599  0.2044 -0.2898
   78SLPC   H4X 7160   3.863   7.198   7.085  0.8638  0.1768 -2.4496
   78SLPC   H4Y 7161   3.690   7.188   7.124 -0.3227 -2.1259 -3.5720
   78SLPC   C35 7162   3.756   7.398   7.102  0.1244 -0.5654 -0.3671
   78SLPC   H5X 7163   3.653   7.433   7.078  0.6753  1.0334 -0.4932
   78SLPC   H5Y 7164   3.815   7.451   7.025  0.7787 -1.2600 -0.3522
   78SLPC   C36 7165   3.789   7.432   7.251 -0.2407  0.5761 -0.3982
   78SLPC   H6X 7166   3.760   7.537   7.275 -0.7325 -0.2136  3.1155
   78SLPC   H6Y 7167   3.900   7.428   7.258 -0.1522 -0.4618 -1.9741
   78SLPC   C37 7168   3.743   7.323   7.355 -0.2020 -0.8269 -0.0344
   78SLPC   H7X 7169   3.798   7.227   7.360  1.0427 -0.0955  0.9355
   78SLPC   H7Y 7170   3.634   7.307   7.338 -1.0351  1.4963  2.4965
   78SLPC   C38 7171   3.752   7.387   7.501 -0.2188  0.0238  0.3732
   78SLPC   H8X 7172   3.692   7.321   7.568 -0.1031  0.7122  1.1739
   78SLPC   H8Y 7173   3.691   7.480   7.499 -0.4005  0.0081  2.6816
   78SLPC   C39 7174   3.891   7.417   7.556  0.0214  0.0778 -0.6452
   78SLPC   H9X 7175   3.917   7.512   7.503 -1.7831  1.5987  1.0603
   78SLPC   H9Y 7176   3.947   7.333   7.510 -2.9784 -1.8899 -0.9930
   78SLPC  C310 7177   3.897   7.445   7.704  0.5004  0.0491 -0.1322
   78SLPC  H10X 7178   3.873   7.353   7.761  0.6671  0.3963  0.5135
   78SLPC  H10Y 7179   3.826   7.526   7.732  1.3166  0.2137  1.5497
   78SLPC  C311 7180   4.037   7.488   7.764 -0.2565 -0.0172  0.3617
   78SLPC  H11X 7181   4.074   7.576   7.707 -1.5531  0.3399  0.0317
   78SLPC  H11Y 7182   4.107   7.402   7.756 -1.6507 -1.0846 -0.9872
   78SLPC  C312 7183   4.038   7.521   7.917  0.3096  0.4822  0.7797
   78SLPC  H12X 7184   3.994   7.441   7.980 -0.5405 -1.5640 -2.1849
   78SLPC  H12Y 7185   3.975   7.610   7.937  0.1210  0.5031  0.1305
   78SLPC  C313 7186   4.181   7.545   7.969 -0.0469  0.6915 -0.2815
   78SLPC  H13X 7187   4.237   7.607   7.896 -0.7967  1.0778 -0.5445
   78SLPC  H13Y 7188   4.244   7.454   7.964  2.0309  2.1234 -0.9787
   78SLPC  C314 7189   4.188   7.620   8.098  0.5853 -0.1150 -0.9856
   78SLPC  H14X 7190   4.290   7.661   8.112 -0.5251  2.1400  1.3228
   78SLPC  H14Y 7191   4.151   7.553   8.179 -1.8474 -3.2240 -4.3367
   78SLPC  C315 7192   4.091   7.740   8.105  0.3893 -0.0152  0.6753
   78SLPC  H15X 7193   4.000   7.691   8.145 -0.2702  1.6713  1.3234
   78SLPC  H15Y 7194   4.072   7.786   8.006  1.6677 -1.3752 -0.2548
   78SLPC  C316 7195   4.140   7.842   8.213  0.4861 -0.8571  0.7691
   78SLPC  H16X 7196   4.242   7.883   8.195  0.3102 -0.0594  1.5023
   78SLPC  H16Y 7197   4.133   7.795   8.313  0.2514 -1.2719  0.5587
   78SLPC  C317 7198   4.047   7.969   8.209 -0.4726 -0.1480  0.2270
   78SLPC  H17X 7199   4.065   8.024   8.114  0.6211 -0.4782  0.2303
   78SLPC  H17Y 7200   4.083   8.041   8.285 -1.3658  1.1344 -0.5210
   78SLPC  C318 7201   3.897   7.948   8.240 -0.2935 -0.6008  0.1414
   78SLPC  H18X 7202   3.845   8.046   8.242 -0.8606 -0.9057  1.0151
   78SLPC  H18Y 7203   3.883   7.905   8.342 -1.1053 -1.8648 -0.4765
   78SLPC  H18Z 7204   3.851   7.886   8.160  0.7866 -0.1960 -0.8266
   79SLPC     N 7205   1.856   2.862   6.039 -0.0372 -0.4327  0.0721
   79SLPC   C13 7206   1.959   2.962   5.988  0.4534 -0.1833 -0.0165
   79SLPC  H13A 7207   1.916   3.060   5.967  0.1544 -0.3077  0.0012
   79SLPC  H13B 7208   2.039   2.973   6.059  1.5030  0.0081 -1.1984
   79SLPC  H13C 7209   2.006   2.936   5.894  0.0442 -1.5723  0.1526
   79SLPC   C14 7210   1.740   2.871   5.946  0.6994 -0.5835  0.0200
   79SLPC  H14A 7211   1.766   2.821   5.854  0.6479  0.2822 -0.4708
   79SLPC  H14B 7212   1.652   2.822   5.987 -0.8905  0.1573 -2.3138
   79SLPC  H14C 7213   1.708   2.972   5.927 -1.8381 -0.7013  2.8927
   79SLPC   C15 7214   1.824   2.912   6.176  0.2371 -0.6966  0.2300
   79SLPC  H15A 7215   1.771   3.005   6.166 -0.0933 -0.9515 -0.3733
   79SLPC  H15B 7216   1.764   2.847   6.238 -1.6424 -0.6686 -1.4640
   79SLPC  H15C 7217   1.917   2.923   6.231  2.1896 -1.7418 -2.6102
   79SLPC   C12 7218   1.912   2.724   6.051  0.6616  0.8662  0.1871
   79SLPC  H12A 7219   1.902   2.680   5.953  0.1941 -2.2512  1.5355
   79SLPC  H12B 7220   1.847   2.662   6.111  0.9310 -1.5458 -1.8532
   79SLPC   C11 7221   2.058   2.696   6.103 -0.0008 -0.2095  0.4258
   79SLPC  H11A 7222   2.125   2.728   6.021 -0.5063  0.1371  0.1386
   79SLPC  H11B 7223   2.066   2.588   6.126 -1.3542 -0.2156  1.0006
   79SLPC     P 7224   2.234   2.835   6.228 -0.2064  0.1096 -0.2801
   79SLPC   O13 7225   2.318   2.818   6.107 -0.1043 -0.1979  0.4545
   79SLPC   O14 7226   2.204   2.971   6.264  0.0921 -0.8548  0.6203
   79SLPC   O12 7227   2.091   2.764   6.220 -0.5138 -0.0340  1.0826
   79SLPC   O11 7228   2.310   2.768   6.353 -0.6617 -0.2312 -0.1160
   79SLPC    C1 7229   2.229   2.742   6.477 -1.0168  0.3634  0.1076
   79SLPC    HA 7230   2.143   2.676   6.455 -2.1596  1.6298  0.6770
   79SLPC    HB 7231   2.282   2.678   6.552 -1.9132  0.6794  1.0266
   79SLPC    C2 7232   2.204   2.868   6.557 -0.1102 -0.6324  0.8281
   79SLPC    HS 7233   2.140   2.933   6.494 -0.2201 -1.2547  0.2917
   79SLPC   O21 7234   2.336   2.925   6.582  0.4732 -0.5138  0.2613
   79SLPC   C21 7235   2.339   3.028   6.662  0.3543 -0.2982  0.1698
   79SLPC   O22 7236   2.244   3.111   6.681 -0.5079  0.6713  0.0263
   79SLPC   C22 7237   2.476   3.053   6.723  0.6775  0.1000 -1.3688
   79SLPC   H2R 7238   2.531   2.957   6.735  1.3427  0.3165 -2.5077
   79SLPC   H2S 7239   2.528   3.127   6.658  3.4258  0.7215  1.2825
   79SLPC    C3 7240   2.124   2.843   6.690  0.2502  0.0184  0.4643
   79SLPC    HX 7241   2.041   2.786   6.642  0.0722  0.0809  0.7008
   79SLPC    HY 7242   2.096   2.937   6.742  3.1613  0.1820  1.9105
   79SLPC   O31 7243   2.194   2.746   6.778 -0.5415  0.3520  0.4513
   79SLPC   C31 7244   2.141   2.748   6.900  0.3808 -0.7400 -0.0393
   79SLPC   O32 7245   2.029   2.795   6.923  0.1397 -0.4066 -0.4333
   79SLPC   C32 7246   2.247   2.697   6.999 -0.6187  0.2966  0.3890
   79SLPC   H2X 7247   2.342   2.746   6.970  1.1871 -2.0241  2.0101
   79SLPC   H2Y 7248   2.260   2.587   6.990  0.4287  0.5949 -3.2656
   79SLPC   C23 7249   2.465   3.108   6.868 -0.4582 -0.2322 -0.2194
   79SLPC   H3R 7250   2.418   3.033   6.936  0.0190  0.6215  1.0759
   79SLPC   H3S 7251   2.408   3.201   6.848 -0.7390 -0.9387 -3.1846
   79SLPC   C24 7252   2.600   3.134   6.934  0.0663 -0.3834  0.2278
   79SLPC   H4R 7253   2.660   3.194   6.863  1.4391 -1.0431  0.7914
   79SLPC   H4S 7254   2.650   3.035   6.940 -2.0970 -1.4882  1.3805
   79SLPC   C25 7255   2.597   3.200   7.076 -0.6783 -0.0895 -0.1932
   79SLPC   H5R 7256   2.542   3.133   7.145  0.1015 -1.9725 -1.3258
   79SLPC   H5S 7257   2.535   3.292   7.069  1.8937  1.6790 -1.3549
   79SLPC   C26 7258   2.739   3.215   7.120 -0.1505  0.1651  0.1230
   79SLPC   H6R 7259   2.803   3.265   7.044 -1.8738  1.6074 -0.4495
   79SLPC   H6S 7260   2.771   3.111   7.142  3.2840  1.0992  0.1765
   79SLPC   C27 7261   2.761   3.298   7.245 -0.0354 -0.3497 -0.2214
   79SLPC   H7R 7262   2.710   3.397   7.241 -0.1467 -0.2917  1.7332
   79SLPC   H7S 7263   2.868   3.324   7.255 -0.2246  0.1170  0.7259
   79SLPC   C28 7264   2.708   3.237   7.376  0.0733  0.3851  0.0152
   79SLPC   H8R 7265   2.759   3.138   7.376 -3.3001 -1.4904 -0.8401
   79SLPC   H8S 7266   2.600   3.211   7.366  0.4733 -1.0813 -0.9184
   79SLPC   C29 7267   2.742   3.321   7.496 -0.1460 -0.2782 -0.7439
   79SLPC   H9R 7268   2.739   3.430   7.478  3.9590 -0.0039 -0.7101
   79SLPC  C210 7269   2.782   3.266   7.620  0.0068 -0.4231 -0.2206
   79SLPC  H10R 7270   2.821   3.329   7.701  2.1037 -2.0114  0.0840
   79SLPC  C211 7271   2.796   3.115   7.652  0.3505  0.2910 -0.0979
   79SLPC  H11R 7272   2.896   3.107   7.700 -0.0213 -1.3618  0.4532
   79SLPC  H11S 7273   2.791   3.054   7.559 -0.9296  1.9371 -1.1805
   79SLPC  C212 7274   2.685   3.054   7.741 -0.4341 -0.3725  0.4566
   79SLPC  H12R 7275   2.639   2.963   7.699  0.6114 -0.5022 -0.4545
   79SLPC  C213 7276   2.646   3.093   7.859  1.1407  0.3153  0.0278
   79SLPC  H13R 7277   2.559   3.041   7.902 -0.4631  1.5570 -1.5635
   79SLPC  C214 7278   2.696   3.210   7.935 -0.2640 -0.0715 -0.7521
   79SLPC  H14R 7279   2.646   3.301   7.896 -2.1064 -1.3020 -1.4062
   79SLPC  H14S 7280   2.806   3.217   7.921 -0.0077 -1.2614  0.4598
   79SLPC  C215 7281   2.661   3.197   8.088 -0.8907  0.3129 -0.0672
   79SLPC  H15R 7282   2.708   3.283   8.141  0.0817 -1.3893  2.0325
   79SLPC  H15S 7283   2.699   3.101   8.132 -0.6228  0.7980  0.7901
   79SLPC  C216 7284   2.515   3.211   8.116 -0.0229 -0.0114 -0.9963
   79SLPC  H16R 7285   2.448   3.130   8.081  1.3175 -1.9230  0.6010
   79SLPC  H16S 7286   2.487   3.305   8.064  0.5232  0.1779 -0.9569
   79SLPC  C217 7287   2.494   3.244   8.268 -0.8358 -0.8435  0.2916
   79SLPC  H17R 7288   2.539   3.339   8.302  1.6272 -0.9182 -2.3529
   79SLPC  H17S 7289   2.544   3.157   8.316 -0.9283 -1.1221 -0.1105
   79SLPC  C218 7290   2.344   3.244   8.302 -0.7079  0.3340 -0.4876
   79SLPC  H18R 7291   2.294   3.325   8.244 -4.3221 -2.1506 -1.1762
   79SLPC  H18S 7292   2.327   3.279   8.407  0.8297 -0.4407  0.0580
   79SLPC  H18T 7293   2.300   3.144   8.282 -2.5892  1.0540 -0.1651
   79SLPC   C33 7294   2.212   2.737   7.144 -0.2643 -0.4889  0.2415
   79SLPC   H3X 7295   2.264   2.659   7.205 -3.1350 -2.5955  0.2439
   79SLPC   H3Y 7296   2.104   2.727   7.169 -0.1575  1.2774  1.5699
   79SLPC   C34 7297   2.259   2.877   7.168 -0.3325 -0.0245  0.1130
   79SLPC   H4X 7298   2.208   2.945   7.095  0.3090  1.4165  0.9617
   79SLPC   H4Y 7299   2.368   2.894   7.155  0.0176 -0.0986  2.5891
   79SLPC   C35 7300   2.223   2.929   7.310  0.7104  0.3399  0.1908
   79SLPC   H5X 7301   2.112   2.927   7.319  0.7261 -1.3558  0.3090
   79SLPC   H5Y 7302   2.258   3.034   7.322 -1.3696  1.1819 -0.5934
   79SLPC   C36 7303   2.293   2.844   7.416  0.6735 -0.5444  0.6531
   79SLPC   H6X 7304   2.400   2.839   7.388  0.5792  0.5335  0.0277
   79SLPC   H6Y 7305   2.254   2.740   7.422  0.1162 -0.4924 -1.2028
   79SLPC   C37 7306   2.274   2.903   7.549  0.1140  0.2503 -0.7601
   79SLPC   H7X 7307   2.166   2.906   7.575  0.1605 -0.9516 -0.3627
   79SLPC   H7Y 7308   2.320   3.004   7.550  2.2718 -0.6862 -0.8135
   79SLPC   C38 7309   2.346   2.816   7.659 -0.1518  0.2514 -0.0607
   79SLPC   H8X 7310   2.452   2.838   7.634 -0.5621 -0.0842 -2.3327
   79SLPC   H8Y 7311   2.326   2.710   7.636 -1.1129 -0.1921  2.4895
   79SLPC   C39 7312   2.305   2.858   7.797 -0.0303  0.3164 -0.1712
   79SLPC   H9X 7313   2.196   2.840   7.807 -0.0208  0.8154  1.0672
   79SLPC   H9Y 7314   2.317   2.968   7.814 -1.0561  0.4679 -0.3814
   79SLPC  C310 7315   2.382   2.776   7.902 -0.4574 -0.3394 -0.1268
   79SLPC  H10X 7316   2.488   2.784   7.872 -0.2541 -1.9075  0.0936
   79SLPC  H10Y 7317   2.352   2.670   7.891 -0.6507 -0.7015  2.8449
   79SLPC  C311 7318   2.348   2.832   8.046  0.0310  0.6816 -0.2251
   79SLPC  H11X 7319   2.263   2.777   8.092  2.1952 -2.7770  0.0457
   79SLPC  H11Y 7320   2.325   2.938   8.022  0.3512  0.2883 -2.5922
   79SLPC  C312 7321   2.469   2.836   8.144 -0.0245 -0.4502  0.4100
   79SLPC  H12X 7322   2.547   2.909   8.113  1.0842 -1.8814 -0.2709
   79SLPC  H12Y 7323   2.520   2.738   8.133  1.0463  0.3566 -3.3356
   79SLPC  C313 7324   2.439   2.869   8.290  0.1965 -0.6482  0.2133
   79SLPC  H13X 7325   2.346   2.817   8.321  0.0325  0.0173  0.8582
   79SLPC  H13Y 7326   2.414   2.976   8.300 -2.4212 -1.3625  2.6216
   79SLPC  C314 7327   2.558   2.821   8.377  0.0487  0.1682  0.7330
   79SLPC  H14X 7328   2.655   2.859   8.338  0.8540 -1.3512  1.1624
   79SLPC  H14Y 7329   2.553   2.712   8.357  2.4238  0.3381 -1.2816
   79SLPC  C315 7330   2.538   2.856   8.527 -0.2000 -0.2253  0.0230
   79SLPC  H15X 7331   2.626   2.808   8.575 -0.5162 -0.9298 -0.0798
   79SLPC  H15Y 7332   2.450   2.802   8.569  0.7678 -1.5283  0.4551
   79SLPC  C316 7333   2.535   2.997   8.562 -0.6330 -0.2296 -0.1745
   79SLPC  H16X 7334   2.445   3.043   8.516 -0.3695  0.1236 -0.3480
   79SLPC  H16Y 7335   2.623   3.057   8.529 -0.7774  0.4227  0.5928
   79SLPC  C317 7336   2.513   3.029   8.711  0.3085 -1.1864 -0.7788
   79SLPC  H17X 7337   2.595   2.987   8.773  1.7077  1.5811 -0.5739
   79SLPC  H17Y 7338   2.412   3.000   8.745 -0.2917  1.6795  0.2218
   79SLPC  C318 7339   2.511   3.182   8.747  0.4276 -0.9258 -0.1217
   79SLPC  H18X 7340   2.470   3.195   8.849  1.7094 -1.8854  0.5497
   79SLPC  H18Y 7341   2.451   3.246   8.679 -1.2579 -3.1556 -0.8724
   79SLPC  H18Z 7342   2.613   3.223   8.762 -0.2198  1.4011 -1.5290
   80SLPC     N 7343   2.568   0.719   6.213  0.5944  0.5332 -0.0914
   80SLPC   C13 7344   2.425   0.692   6.234 -0.1190 -0.0367  0.0848
   80SLPC  H13A 7345   2.382   0.733   6.324 -1.0676  3.6754 -1.8486
   80SLPC  H13B 7346   2.367   0.742   6.157 -0.8214  0.1507  0.7243
   80SLPC  H13C 7347   2.394   0.590   6.218 -0.1865 -0.2748  1.6019
   80SLPC   C14 7348   2.594   0.864   6.184  0.4374  0.7614  0.4986
   80SLPC  H14A 7349   2.542   0.901   6.097  0.8776 -1.8659 -0.9851
   80SLPC  H14B 7350   2.555   0.923   6.265 -1.1683  0.0211  0.3205
   80SLPC  H14C 7351   2.700   0.876   6.168  0.4297 -0.6568 -0.8409
   80SLPC   C15 7352   2.615   0.635   6.096 -0.0983  0.0106  0.0335
   80SLPC  H15A 7353   2.554   0.661   6.011 -1.5429  0.6008  1.1997
   80SLPC  H15B 7354   2.721   0.641   6.082 -0.1609  0.7184 -0.1549
   80SLPC  H15C 7355   2.601   0.529   6.115  1.8723  0.0803  2.3496
   80SLPC   C12 7356   2.656   0.680   6.331 -0.2377  0.2539 -0.3869
   80SLPC  H12A 7357   2.638   0.576   6.356  1.7401 -0.0534 -0.1057
   80SLPC  H12B 7358   2.623   0.750   6.406  1.7918  4.1217 -2.7514
   80SLPC   C11 7359   2.813   0.690   6.306  0.1988  0.2939  0.4722
   80SLPC  H11A 7360   2.867   0.687   6.404  0.3281  0.4630  0.4041
   80SLPC  H11B 7361   2.834   0.781   6.247 -2.6712  0.7728  0.0306
   80SLPC     P 7362   2.869   0.434   6.261 -0.4084  0.4249  0.1118
   80SLPC   O13 7363   2.795   0.351   6.167  0.1626  0.5159 -0.2136
   80SLPC   O14 7364   3.011   0.388   6.286 -0.1468  0.1571  0.3211
   80SLPC   O12 7365   2.862   0.592   6.221  0.1993  0.6372  0.7993
   80SLPC   O11 7366   2.789   0.433   6.395  0.5188 -0.4002  0.0501
   80SLPC    C1 7367   2.741   0.315   6.464 -0.1831 -0.2161  0.5917
   80SLPC    HA 7368   2.649   0.284   6.409 -0.7461  2.9176 -0.4534
   80SLPC    HB 7369   2.817   0.237   6.447  0.3385  0.5875 -0.9830
   80SLPC    C2 7370   2.703   0.338   6.617  0.3746 -0.3437  1.1435
   80SLPC    HS 7371   2.670   0.242   6.663 -0.4501 -1.7601 -2.0854
   80SLPC   O21 7372   2.609   0.451   6.618 -0.0926 -0.2344 -0.1690
   80SLPC   C21 7373   2.503   0.432   6.701 -0.4543  0.0719 -0.1431
   80SLPC   O22 7374   2.494   0.336   6.781 -0.2560 -0.2453 -0.5966
   80SLPC   C22 7375   2.428   0.565   6.709 -0.2506 -0.0023  0.2133
   80SLPC   H2R 7376   2.499   0.645   6.736  2.6203 -2.2605 -0.2235
   80SLPC   H2S 7377   2.389   0.592   6.608  0.6026 -3.3755 -1.1387
   80SLPC    C3 7378   2.829   0.387   6.699  0.3504  0.3423  0.2312
   80SLPC    HX 7379   2.860   0.483   6.654  0.6918  0.8768  1.5527
   80SLPC    HY 7380   2.906   0.309   6.684 -1.7012 -1.6614 -0.4311
   80SLPC   O31 7381   2.794   0.418   6.837 -0.5599 -0.2776 -0.4799
   80SLPC   C31 7382   2.803   0.323   6.929  0.7493 -0.4576 -0.7650
   80SLPC   O32 7383   2.854   0.216   6.914  0.2692 -0.0564  0.5430
   80SLPC   C32 7384   2.770   0.379   7.071  0.0470  0.0638  0.9098
   80SLPC   H2X 7385   2.662   0.357   7.084 -0.3785  0.4855 -1.4392
   80SLPC   H2Y 7386   2.797   0.487   7.079  0.2796 -0.0523  1.7556
   80SLPC   C23 7387   2.305   0.551   6.806  0.4504  0.5090  0.4134
   80SLPC   H3R 7388   2.264   0.448   6.794 -1.1199  0.8900  1.9830
   80SLPC   H3S 7389   2.220   0.613   6.768  0.0267 -0.7956 -0.8591
   80SLPC   C24 7390   2.341   0.575   6.951 -0.4402 -0.1132  0.4354
   80SLPC   H4R 7391   2.386   0.677   6.956 -2.0819  0.7439 -1.1857
   80SLPC   H4S 7392   2.421   0.502   6.975 -0.1712  0.2081  0.5280
   80SLPC   C25 7393   2.217   0.563   7.046 -0.6604 -0.3819  0.1225
   80SLPC   H5R 7394   2.193   0.456   7.060 -1.2754 -0.2212  0.3100
   80SLPC   H5S 7395   2.130   0.590   6.982 -0.5407 -3.1128 -1.3543
   80SLPC   C26 7396   2.234   0.649   7.172 -0.1715  0.1464  0.4869
   80SLPC   H6R 7397   2.273   0.751   7.151  1.0146 -0.2773  0.5308
   80SLPC   H6S 7398   2.300   0.594   7.243 -1.1452 -1.3652  0.2738
   80SLPC   C27 7399   2.100   0.673   7.239  0.1528  0.0655 -0.5338
   80SLPC   H7R 7400   2.067   0.577   7.283  0.0617  0.8324  1.1720
   80SLPC   H7S 7401   2.024   0.706   7.165  1.6156 -0.1172 -2.1944
   80SLPC   C28 7402   2.117   0.788   7.344 -0.7667 -0.1486  0.4729
   80SLPC   H8R 7403   2.120   0.881   7.284 -0.4995  0.9837  2.1869
   80SLPC   H8S 7404   2.210   0.765   7.400 -1.7215  0.7010  2.5045
   80SLPC   C29 7405   1.997   0.799   7.438 -0.1191 -0.4955 -0.1446
   80SLPC   H9R 7406   1.895   0.800   7.398 -0.5404 -1.6403  0.8451
   80SLPC  C210 7407   2.014   0.802   7.568 -0.1249 -0.2233 -0.3914
   80SLPC  H10R 7408   1.926   0.818   7.632 -0.3894 -1.0387 -0.5522
   80SLPC  C211 7409   2.140   0.805   7.652  0.0005  0.8873  0.4351
   80SLPC  H11R 7410   2.233   0.817   7.592 -0.2774  1.0197  0.0211
   80SLPC  H11S 7411   2.151   0.711   7.710 -3.2284  0.3737  0.3987
   80SLPC  C212 7412   2.146   0.909   7.760  0.9818  0.4905  0.0680
   80SLPC  H12R 7413   2.198   1.001   7.730 -0.0712  1.9532  2.4301
   80SLPC  C213 7414   2.086   0.899   7.883  0.3030 -0.1192 -0.2545
   80SLPC  H13R 7415   2.097   0.985   7.951  2.2827  1.8658 -2.8722
   80SLPC  C214 7416   2.029   0.769   7.924  0.3592 -0.1997  0.3960
   80SLPC  H14R 7417   2.108   0.703   7.967  0.6264 -1.9471 -2.5111
   80SLPC  H14S 7418   1.986   0.706   7.843  0.1410 -0.2026  0.5136
   80SLPC  C215 7419   1.913   0.779   8.028  1.4636  0.0617  0.0334
   80SLPC  H15R 7420   1.884   0.675   8.057 -2.4244  0.8127 -0.5241
   80SLPC  H15S 7421   1.816   0.821   7.993  0.6866 -2.1789 -0.6785
   80SLPC  C216 7422   1.957   0.865   8.149 -0.4150 -0.4866 -0.4654
   80SLPC  H16R 7423   1.962   0.972   8.119 -0.9972 -0.9438 -2.3564
   80SLPC  H16S 7424   2.060   0.826   8.163  0.1417  0.4858 -1.6458
   80SLPC  C217 7425   1.860   0.837   8.261  0.0079 -0.0455 -0.3004
   80SLPC  H17R 7426   1.866   0.728   8.285  1.9453  0.1926  0.5050
   80SLPC  H17S 7427   1.754   0.859   8.238 -0.3696  0.7986  1.9739
   80SLPC  C218 7428   1.914   0.921   8.376  0.1242  0.3567 -0.6069
   80SLPC  H18R 7429   2.022   0.917   8.400 -0.2267 -1.1229  0.9406
   80SLPC  H18S 7430   1.853   0.888   8.463  0.5669  0.8347 -0.1015
   80SLPC  H18T 7431   1.870   1.023   8.367  2.4941  1.3159 -2.2178
   80SLPC   C33 7432   2.852   0.302   7.178  0.2757  0.4384 -0.1871
   80SLPC   H3X 7433   2.959   0.329   7.171  0.0505  2.1380  1.9591
   80SLPC   H3Y 7434   2.838   0.192   7.164  1.7032  0.3398 -0.9965
   80SLPC   C34 7435   2.802   0.332   7.323 -0.7967  0.4112  0.4368
   80SLPC   H4X 7436   2.704   0.281   7.338 -0.4247 -1.2400 -2.1145
   80SLPC   H4Y 7437   2.789   0.443   7.325 -2.0848  0.2847  0.1651
   80SLPC   C35 7438   2.900   0.290   7.434 -0.2643 -0.7567  0.5056
   80SLPC   H5X 7439   3.002   0.334   7.425 -0.1841 -1.3392 -2.2220
   80SLPC   H5Y 7440   2.907   0.179   7.425 -1.0207 -0.8404  0.8980
   80SLPC   C36 7441   2.836   0.299   7.574  0.0314  0.8401 -0.8710
   80SLPC   H6X 7442   2.750   0.232   7.591  0.4625  0.4504 -0.1670
   80SLPC   H6Y 7443   2.795   0.401   7.590 -1.5787 -0.1054  1.5299
   80SLPC   C37 7444   2.937   0.288   7.687 -0.0010  0.8690 -0.1732
   80SLPC   H7X 7445   3.026   0.348   7.659 -0.4523  2.2572  1.2247
   80SLPC   H7Y 7446   2.968   0.183   7.704 -3.0009 -0.0518  0.2537
   80SLPC   C38 7447   2.902   0.368   7.815  0.1901  0.0208 -0.3287
   80SLPC   H8X 7448   2.870   0.471   7.789  0.1399 -0.2582 -1.4162
   80SLPC   H8Y 7449   2.996   0.384   7.873  0.3102 -0.1316 -0.4817
   80SLPC   C39 7450   2.808   0.287   7.910  0.2630 -0.7382  0.1111
   80SLPC   H9X 7451   2.711   0.277   7.857  0.2357 -0.9904  0.2059
   80SLPC   H9Y 7452   2.785   0.347   8.000 -0.8631 -1.8163  0.5625
   80SLPC  C310 7453   2.863   0.153   7.960  0.0479  0.8427  0.1952
   80SLPC  H10X 7454   2.946   0.172   8.031 -1.3117 -0.0294  2.1109
   80SLPC  H10Y 7455   2.893   0.095   7.869 -3.4202 -1.3269  0.2248
   80SLPC  C311 7456   2.758   0.062   8.023  0.2752  0.3638  0.3345
   80SLPC  H11X 7457   2.810  -0.032   8.052 -0.6707 -0.0913  0.6119
   80SLPC  H11Y 7458   2.681   0.036   7.947  0.3883  0.8421  0.0538
   80SLPC  C312 7459   2.698   0.127   8.149  1.0340 -0.1334  0.5383
   80SLPC  H12X 7460   2.641   0.218   8.120  1.8894 -0.4342 -2.4251
   80SLPC  H12Y 7461   2.770   0.152   8.230 -2.1140  2.8062  2.6990
   80SLPC  C313 7462   2.596   0.042   8.229  0.7765  0.4013 -0.5090
   80SLPC  H13X 7463   2.645  -0.032   8.295 -2.2458 -0.6268  0.7231
   80SLPC  H13Y 7464   2.541  -0.023   8.158  1.4065  1.0881 -1.6775
   80SLPC  C314 7465   2.486   0.124   8.302  0.5011  0.9810 -0.3319
   80SLPC  H14X 7466   2.422   0.191   8.240 -0.4808  0.5621  0.2072
   80SLPC  H14Y 7467   2.545   0.186   8.371  2.3392 -1.0165 -0.0087
   80SLPC  C315 7468   2.401   0.032   8.383  0.2604  0.8180  0.5746
   80SLPC  H15X 7469   2.351   0.109   8.446 -0.8551  1.2397 -0.7676
   80SLPC  H15Y 7470   2.458  -0.039   8.447  0.2586  0.4233  0.1498
   80SLPC  C316 7471   2.302  -0.053   8.300 -0.2286  0.0373 -0.2178
   80SLPC  H16X 7472   2.363  -0.109   8.226 -1.2783  0.7567 -1.6963
   80SLPC  H16Y 7473   2.244   0.014   8.233  1.1971  0.8081 -0.7167
   80SLPC  C317 7474   2.219  -0.160   8.378  0.0043 -0.4487  0.5968
   80SLPC  H17X 7475   2.152  -0.103   8.446  1.1363  0.4609  0.9921
   80SLPC  H17Y 7476   2.299  -0.214   8.431  0.6778 -1.2158 -1.1180
   80SLPC  C318 7477   2.136  -0.250   8.281  0.2584 -0.7959 -0.1545
   80SLPC  H18X 7478   2.094  -0.186   8.201 -2.4065 -0.8298  1.1049
   80SLPC  H18Y 7479   2.047  -0.297   8.328  1.0281 -1.9887  0.1514
   80SLPC  H18Z 7480   2.205  -0.325   8.236  3.1040  1.1803  0.6564
   81SAPS     N 7481   2.213   2.930  10.824  0.4189  0.2974  0.1272
   81SAPS   HN1 7482   2.160   2.852  10.780 -0.7701  1.7892 -1.1988
   81SAPS   HN2 7483   2.242   2.998  10.751  0.1973 -0.1402 -0.3732
   81SAPS   HN3 7484   2.294   2.888  10.874 -1.4999 -1.3493  2.0304
   81SAPS   C12 7485   2.121   2.989  10.917  1.0001 -0.0948  0.1866
   81SAPS  H12A 7486   2.025   2.982  10.867  1.8873 -0.9486 -1.4650
   81SAPS   C13 7487   2.109   2.904  11.047 -0.7288  0.3417 -0.5109
   81SAPS  O13A 7488   2.175   2.794  11.055  0.3977  0.4704  0.1802
   81SAPS  O13B 7489   2.022   2.921  11.142 -0.4133 -0.3131  0.2152
   81SAPS   C11 7490   2.158   3.142  10.963  0.1112  0.0346  0.6714
   81SAPS  H11A 7491   2.070   3.166  11.026  0.7657  0.9438  1.2703
   81SAPS  H11B 7492   2.151   3.202  10.870  0.0363 -0.2441  0.4972
   81SAPS     P 7493   2.411   3.207  10.976 -0.0293 -0.2148 -0.1204
   81SAPS   O13 7494   2.397   3.352  10.947  0.0473 -0.2420  0.1980
   81SAPS   O14 7495   2.530   3.175  11.062  0.0609 -0.2534 -0.3052
   81SAPS   O12 7496   2.282   3.149  11.044  0.2036  0.3983 -0.7869
   81SAPS   O11 7497   2.415   3.136  10.836  0.2594 -0.2769  0.4262
   81SAPS    C1 7498   2.496   3.210  10.732  0.2982  0.0324  0.5133
   81SAPS    HA 7499   2.578   3.273  10.773  2.5884 -2.0145 -0.6910
   81SAPS    HB 7500   2.548   3.131  10.674  0.4722 -0.5181  1.3890
   81SAPS    C2 7501   2.402   3.286  10.638  0.6958  1.5100  0.8574
   81SAPS    HS 7502   2.302   3.275  10.686  0.0990 -0.9030 -0.7698
   81SAPS   O21 7503   2.399   3.223  10.511 -0.4577 -0.5291  0.3206
   81SAPS   C21 7504   2.350   3.102  10.500  0.1496  0.5285  0.0548
   81SAPS   O22 7505   2.295   3.032  10.587  0.1580 -0.5003 -0.3370
   81SAPS   C22 7506   2.379   3.052  10.365 -0.3262  0.4959  0.2128
   81SAPS   H2R 7507   2.483   3.088  10.352 -1.1391  2.4730 -1.1962
   81SAPS   H2S 7508   2.390   2.942  10.375 -1.3574  0.3241 -0.3928
   81SAPS    C3 7509   2.451   3.433  10.611  0.4853 -0.6314  0.2543
   81SAPS    HX 7510   2.444   3.494  10.703  0.2192  1.1965 -0.9343
   81SAPS    HY 7511   2.381   3.478  10.537  0.1399 -1.1855  0.2285
   81SAPS   O31 7512   2.586   3.424  10.568  0.5159 -0.5412 -0.2596
   81SAPS   C31 7513   2.629   3.495  10.459 -0.3856 -0.3952  0.6358
   81SAPS   O32 7514   2.557   3.572  10.393 -0.1821 -0.0622 -0.6710
   81SAPS   C32 7515   2.777   3.461  10.436  0.5288 -1.1508  0.4559
   81SAPS   H2X 7516   2.799   3.355  10.462  3.6744 -0.3640  1.4372
   81SAPS   H2Y 7517   2.829   3.523  10.513 -1.5928  1.6243 -0.1640
   81SAPS   C23 7518   2.277   3.095  10.256  0.1538 -0.4908 -0.5524
   81SAPS   H3R 7519   2.183   3.042  10.283 -0.1773 -0.2113 -1.1443
   81SAPS   H3S 7520   2.307   3.039  10.165 -0.3840  0.4328 -1.3109
   81SAPS   C24 7521   2.249   3.244  10.231  0.0099  0.1472  0.0252
   81SAPS   H4R 7522   2.205   3.294  10.319  0.7399  1.9650 -0.5865
   81SAPS   H4S 7523   2.184   3.243  10.141 -2.1297  0.6223  1.4856
   81SAPS   C25 7524   2.373   3.319  10.192 -0.2970 -0.2995 -0.1163
   81SAPS   H5R 7525   2.449   3.313  10.271 -1.6156 -3.3904  1.0737
   81SAPS   C26 7526   2.393   3.392  10.085  0.0908 -0.3088 -0.1532
   81SAPS   H6R 7527   2.495   3.427  10.064  1.0919 -3.1715 -0.6408
   81SAPS   C27 7528   2.299   3.407   9.971 -0.6144  0.1784  0.0226
   81SAPS   H7R 7529   2.197   3.436  10.004 -0.7064 -0.9443  0.7707
   81SAPS   H7S 7530   2.283   3.311   9.919  1.0410 -0.7345  1.1317
   81SAPS   C28 7531   2.344   3.521   9.883 -0.3076  0.0375  0.1719
   81SAPS   H8R 7532   2.398   3.608   9.923 -0.5663  0.9976 -1.4728
   81SAPS   C29 7533   2.313   3.517   9.749 -0.2114 -1.0210  0.9817
   81SAPS   H9R 7534   2.344   3.610   9.698 -0.2417 -0.1412  2.5117
   81SAPS  C210 7535   2.240   3.410   9.670 -0.5678  0.6458 -0.4967
   81SAPS  H10R 7536   2.139   3.392   9.713 -0.7672  1.6801 -0.4980
   81SAPS  H10S 7537   2.299   3.316   9.678 -1.3193  0.3089  2.7794
   81SAPS  C211 7538   2.233   3.455   9.529  0.3316  0.6379 -0.2190
   81SAPS  H11R 7539   2.219   3.563   9.512 -0.2815  0.5223 -0.4996
   81SAPS  C212 7540   2.245   3.371   9.431 -0.3551  0.6604  0.5760
   81SAPS  H12R 7541   2.219   3.403   9.329  0.9463 -1.7517 -0.6057
   81SAPS  C213 7542   2.267   3.221   9.428 -0.1227  0.5909 -0.6462
   81SAPS  H13R 7543   2.357   3.197   9.489  0.7012  1.8442 -1.3230
   81SAPS  H13S 7544   2.306   3.188   9.329  4.6987  0.9852  0.8779
   81SAPS  C214 7545   2.151   3.133   9.467  0.8761  1.0979 -0.2703
   81SAPS  H14R 7546   2.075   3.177   9.533  0.4239 -1.1670  0.8133
   81SAPS  C215 7547   2.120   3.009   9.413  0.5034 -0.2848  0.1323
   81SAPS  H15R 7548   2.024   2.971   9.451  0.0121  1.7917  1.0934
   81SAPS  C216 7549   2.196   2.925   9.316 -0.2840  0.5940 -0.1389
   81SAPS  H16R 7550   2.216   2.824   9.357 -0.6212  1.1697  1.5050
   81SAPS  H16S 7551   2.298   2.963   9.292  0.1491 -0.8267 -0.6937
   81SAPS  C217 7552   2.128   2.897   9.179  0.7209  0.4962  0.3365
   81SAPS  H17R 7553   2.121   2.997   9.131 -0.2578 -0.5143 -1.7672
   81SAPS  H17S 7554   2.019   2.874   9.186  1.0189 -1.5706 -0.9405
   81SAPS  C218 7555   2.202   2.793   9.094  0.6613 -0.3785 -0.1860
   81SAPS  H18R 7556   2.128   2.724   9.048  1.0807 -1.0001  0.0631
   81SAPS  H18S 7557   2.263   2.734   9.166  2.1670  2.3414  0.9057
   81SAPS  C219 7558   2.292   2.853   8.989  0.3144 -0.4643  0.3129
   81SAPS  H19R 7559   2.354   2.938   9.026  1.0876 -1.1002  0.4915
   81SAPS  H19S 7560   2.217   2.894   8.917 -1.2089 -2.4490  0.6894
   81SAPS  C220 7561   2.378   2.742   8.918  0.4603 -0.4788  0.1685
   81SAPS  H20R 7562   2.442   2.797   8.846 -1.1189  2.5480  0.9139
   81SAPS  H20S 7563   2.319   2.663   8.867 -1.8083 -0.6473  2.8600
   81SAPS  H20T 7564   2.442   2.690   8.992  2.1616  1.4292  0.1376
   81SAPS   C33 7565   2.830   3.502  10.293  0.7299 -1.1465 -0.6179
   81SAPS   H3X 7566   2.941   3.515  10.298  0.4805  1.9157 -1.0562
   81SAPS   H3Y 7567   2.796   3.607  10.282  0.0613 -1.4340 -1.3483
   81SAPS   C34 7568   2.791   3.409  10.189  0.3486  0.0556  0.4008
   81SAPS   H4X 7569   2.681   3.399  10.184  0.3233  0.3971  0.2049
   81SAPS   H4Y 7570   2.841   3.314  10.220  5.6633  2.5849  0.7652
   81SAPS   C35 7571   2.841   3.451  10.050  0.9609  0.2980 -0.6177
   81SAPS   H5X 7572   2.947   3.420  10.050  0.7770 -0.5126  1.9143
   81SAPS   H5Y 7573   2.826   3.561  10.038  2.3829  0.6939  0.8833
   81SAPS   C36 7574   2.772   3.390   9.931  0.6131 -0.1118  0.1890
   81SAPS   H6X 7575   2.662   3.389   9.947  0.4460  3.3665  0.1694
   81SAPS   H6Y 7576   2.808   3.285   9.929  2.3991  0.4492  0.7368
   81SAPS   C37 7577   2.802   3.452   9.793  0.0350  0.3315 -0.8161
   81SAPS   H7X 7578   2.909   3.431   9.774 -0.4595 -1.2385 -2.1359
   81SAPS   H7Y 7579   2.786   3.562   9.796  0.5454  0.4032 -0.7766
   81SAPS   C38 7580   2.707   3.397   9.686  0.3177  0.7463  0.2436
   81SAPS   H8X 7581   2.602   3.431   9.698  0.4115  0.8472  0.8010
   81SAPS   H8Y 7582   2.712   3.287   9.700 -2.4976  0.2388 -1.9021
   81SAPS   C39 7583   2.744   3.421   9.541 -0.1769 -0.5043 -0.4305
   81SAPS   H9X 7584   2.847   3.391   9.512  0.0745  1.3040 -1.5746
   81SAPS   H9Y 7585   2.746   3.532   9.536  1.7433 -0.4317  0.7925
   81SAPS  C310 7586   2.656   3.346   9.445 -0.2196  0.0339  0.0334
   81SAPS  H10X 7587   2.551   3.361   9.479  0.2023  2.2943  0.4711
   81SAPS  H10Y 7588   2.669   3.236   9.457  0.4254  0.0150 -0.7859
   81SAPS  C311 7589   2.670   3.387   9.300 -0.2662 -0.0580 -0.5013
   81SAPS  H11X 7590   2.730   3.481   9.293  0.4080 -0.3520  0.9985
   81SAPS  H11Y 7591   2.573   3.408   9.251 -0.2371  0.3251 -0.4031
   81SAPS  C312 7592   2.728   3.273   9.211 -0.0247 -0.5685 -0.1493
   81SAPS  H12X 7593   2.665   3.182   9.194  2.1438 -2.0359 -0.7554
   81SAPS  H12Y 7594   2.822   3.236   9.257 -1.1190 -1.4259  1.4949
   81SAPS  C313 7595   2.750   3.320   9.066 -0.3866 -0.2954 -0.8286
   81SAPS  H13X 7596   2.781   3.427   9.070 -0.4915 -0.2428 -1.3273
   81SAPS  H13Y 7597   2.659   3.312   9.002  0.5495 -0.7913 -2.1326
   81SAPS  C314 7598   2.867   3.248   8.993 -1.0168  0.5060  1.0507
   81SAPS  H14X 7599   2.852   3.139   8.985  1.4272  0.1959 -0.0203
   81SAPS  H14Y 7600   2.956   3.252   9.059 -0.5536 -0.1849  0.4772
   81SAPS  C315 7601   2.901   3.305   8.850 -0.1426  0.3262 -0.0697
   81SAPS  H15X 7602   2.819   3.285   8.777  0.7243 -0.4788 -0.8406
   81SAPS  H15Y 7603   2.986   3.248   8.807 -0.3172  1.3044 -1.7922
   81SAPS  C316 7604   2.937   3.456   8.847 -0.1866  0.3036  0.0494
   81SAPS  H16X 7605   3.036   3.473   8.894 -0.6918  0.7133  0.9779
   81SAPS  H16Y 7606   2.870   3.525   8.901 -1.7880  0.0151 -1.4766
   81SAPS  C317 7607   2.944   3.517   8.706 -0.0035 -0.2872  0.1988
   81SAPS  H17X 7608   2.842   3.539   8.668  0.2662 -1.2001 -1.1209
   81SAPS  H17Y 7609   2.999   3.454   8.634  0.3287  0.4340 -0.1863
   81SAPS  C318 7610   3.013   3.655   8.713  0.0511 -0.5436 -0.0114
   81SAPS  H18X 7611   2.956   3.722   8.779 -0.4460  0.3373 -1.2923
   81SAPS  H18Y 7612   3.010   3.701   8.612 -0.3658 -2.0628 -0.7255
   81SAPS  H18Z 7613   3.116   3.657   8.755  0.3508  3.5338 -0.6015
   82SAPS     N 7614   1.777   3.002  11.030  0.1653  0.4347 -0.4611
   82SAPS   HN1 7615   1.799   2.955  10.940 -2.4373  2.2267 -2.1641
   82SAPS   HN2 7616   1.862   3.025  11.086  0.3880  1.2980 -1.1227
   82SAPS   HN3 7617   1.722   2.930  11.080  2.5442 -1.9626 -1.0108
   82SAPS   C12 7618   1.690   3.107  10.996 -0.0550  0.2967  0.4828
   82SAPS  H12A 7619   1.588   3.073  10.993  0.0656 -0.2425  1.7382
   82SAPS   C13 7620   1.694   3.229  11.090  0.2023  0.7557 -0.4218
   82SAPS  O13A 7621   1.759   3.234  11.198  0.3504  0.5234  0.1919
   82SAPS  O13B 7622   1.609   3.317  11.059  0.1544 -0.2680 -0.3323
   82SAPS   C11 7623   1.721   3.165  10.861  0.4428  0.6460  0.9373
   82SAPS  H11A 7624   1.649   3.244  10.828 -0.0594  0.3309  1.2672
   82SAPS  H11B 7625   1.708   3.083  10.788  0.4102 -0.8817  2.5972
   82SAPS     P 7626   1.884   3.288  10.711 -0.4984  0.0599  0.1715
   82SAPS   O13 7627   1.850   3.437  10.733  0.3447  0.2360  0.2764
   82SAPS   O14 7628   2.019   3.278  10.668 -0.7074 -0.2176  0.3110
   82SAPS   O12 7629   1.855   3.200  10.837  0.7803  0.0189  0.4237
   82SAPS   O11 7630   1.783   3.227  10.608  0.5561  0.2958 -0.4511
   82SAPS    C1 7631   1.816   3.124  10.513 -0.1233  0.5319  0.4720
   82SAPS    HA 7632   1.885   3.044  10.547 -0.7921 -1.4580 -2.4923
   82SAPS    HB 7633   1.725   3.061  10.502  0.7271 -0.7032  0.2719
   82SAPS    C2 7634   1.859   3.171  10.369  0.3417 -0.0962 -0.1148
   82SAPS    HS 7635   1.952   3.229  10.389 -0.8935  1.3798  1.7700
   82SAPS   O21 7636   1.747   3.243  10.312  0.1218 -0.0435 -1.1502
   82SAPS   C21 7637   1.772   3.366  10.280  0.6510 -0.6413  0.4079
   82SAPS   O22 7638   1.877   3.428  10.297  0.9566  0.5194 -0.3490
   82SAPS   C22 7639   1.650   3.426  10.209  0.2110  0.0292  0.5719
   82SAPS   H2R 7640   1.603   3.352  10.140  0.0515  1.2507 -0.6668
   82SAPS   H2S 7641   1.564   3.458  10.272  0.9208  1.6394  0.7646
   82SAPS    C3 7642   1.888   3.040  10.289 -0.6144 -0.0355 -0.0078
   82SAPS    HX 7643   1.788   2.991  10.291  0.5104 -2.7522 -2.3700
   82SAPS    HY 7644   1.954   2.972  10.346 -1.9107 -0.4051  1.0992
   82SAPS   O31 7645   1.942   3.070  10.155  0.7203  0.6863 -0.8221
   82SAPS   C31 7646   1.875   3.047  10.044 -0.7231  0.0080 -0.7745
   82SAPS   O32 7647   1.774   2.987  10.034  0.7546 -0.1649 -0.1408
   82SAPS   C32 7648   1.949   3.108   9.921  0.4888  0.3955  0.0424
   82SAPS   H2X 7649   2.044   3.051   9.918  0.1197 -0.2089 -0.8419
   82SAPS   H2Y 7650   1.972   3.212   9.951 -0.3257 -0.0072  2.2578
   82SAPS   C23 7651   1.698   3.540  10.111 -0.2408  0.2725 -0.4412
   82SAPS   H3R 7652   1.757   3.615  10.168  1.9099 -0.2876 -1.8006
   82SAPS   H3S 7653   1.605   3.593  10.080 -0.9238  0.2101  1.3786
   82SAPS   C24 7654   1.770   3.485   9.987 -0.5390  0.4877  0.6710
   82SAPS   H4R 7655   1.837   3.400  10.008 -2.2644 -1.3860 -0.9985
   82SAPS   H4S 7656   1.833   3.571   9.956 -0.9506 -0.3373 -2.8594
   82SAPS   C25 7657   1.687   3.437   9.875  0.4754 -0.5852  0.5617
   82SAPS   H5R 7658   1.587   3.403   9.904  0.5794 -0.0563  1.5748
   82SAPS   C26 7659   1.724   3.444   9.745 -0.4438  0.3040  0.0074
   82SAPS   H6R 7660   1.663   3.407   9.661 -0.2805  0.2498 -0.0886
   82SAPS   C27 7661   1.854   3.498   9.688  0.0637 -0.3893 -0.6255
   82SAPS   H7R 7662   1.942   3.431   9.682  0.8594  0.6904 -1.4836
   82SAPS   H7S 7663   1.892   3.574   9.760  0.8531  0.3071 -1.7507
   82SAPS   C28 7664   1.841   3.574   9.558  0.4051  0.0196 -0.1435
   82SAPS   H8R 7665   1.825   3.682   9.569 -0.6652 -0.3149  2.2060
   82SAPS   C29 7666   1.835   3.515   9.435 -0.0335  1.3178  0.6646
   82SAPS   H9R 7667   1.804   3.581   9.352 -0.1768 -0.6752 -0.9529
   82SAPS  C210 7668   1.853   3.364   9.395  0.3581 -0.4379 -0.4543
   82SAPS  H10R 7669   1.839   3.300   9.484  0.1131 -1.0521 -0.9313
   82SAPS  H10S 7670   1.948   3.352   9.338  0.5570  1.3635 -0.5794
   82SAPS  C211 7671   1.728   3.339   9.311  0.4867 -0.5732 -0.1909
   82SAPS  H11R 7672   1.634   3.377   9.352  1.3113  0.3717  0.8845
   82SAPS  C212 7673   1.715   3.266   9.198 -0.3499  0.0992  0.1103
   82SAPS  H12R 7674   1.616   3.259   9.151 -1.2472  1.4167  1.7072
   82SAPS  C213 7675   1.823   3.183   9.129  0.0778 -0.3770  0.5704
   82SAPS  H13R 7676   1.896   3.152   9.207 -1.6200 -0.5869  2.1493
   82SAPS  H13S 7677   1.877   3.244   9.055 -1.2831 -2.0541 -1.9710
   82SAPS  C214 7678   1.775   3.062   9.060  0.4690  0.2078 -0.0622
   82SAPS  H14R 7679   1.716   3.001   9.130 -1.7453  0.2787 -1.7374
   82SAPS  C215 7680   1.791   3.023   8.928  0.4693  0.0594  0.6690
   82SAPS  H15R 7681   1.758   2.921   8.904 -1.1921  1.0966 -1.8370
   82SAPS  C216 7682   1.858   3.096   8.825 -0.2405  0.0874  0.0166
   82SAPS  H16R 7683   1.868   3.202   8.855 -3.0386  0.8386 -1.4511
   82SAPS  H16S 7684   1.804   3.099   8.728 -0.7995 -2.3376  0.1793
   82SAPS  C217 7685   2.000   3.043   8.793 -0.3761 -0.2827  0.0994
   82SAPS  H17R 7686   2.064   3.059   8.883 -0.0246  1.6377 -0.4431
   82SAPS  H17S 7687   2.025   3.108   8.706 -0.5068  0.8135  0.8636
   82SAPS  C218 7688   2.012   2.903   8.734 -0.4708  0.1236 -0.2321
   82SAPS  H18R 7689   1.919   2.891   8.675 -0.1643 -0.7865 -0.5546
   82SAPS  H18S 7690   2.016   2.829   8.818 -0.4384  1.0812  0.6269
   82SAPS  C219 7691   2.129   2.884   8.638 -0.0589 -0.4495  0.6833
   82SAPS  H19R 7692   2.226   2.921   8.678  1.7840 -0.4028 -3.2779
   82SAPS  H19S 7693   2.099   2.964   8.566 -0.2429  0.6537  1.9517
   82SAPS  C220 7694   2.143   2.745   8.577 -0.1447  0.4232 -0.1596
   82SAPS  H20R 7695   2.222   2.737   8.499  1.1961 -0.4446  1.2350
   82SAPS  H20S 7696   2.047   2.700   8.543 -1.1338 -1.1566  4.0822
   82SAPS  H20T 7697   2.170   2.681   8.664 -0.3320  1.6816  0.8538
   82SAPS   C33 7698   1.876   3.098   9.779 -0.1541  0.2286  0.0948
   82SAPS   H3X 7699   1.941   3.163   9.716 -0.7960  2.6485  1.7749
   82SAPS   H3Y 7700   1.774   3.140   9.780  0.0088  0.7312 -1.7113
   82SAPS   C34 7701   1.865   2.942   9.741  0.5921 -0.3461 -0.7839
   82SAPS   H4X 7702   1.826   2.889   9.830 -0.6342  1.4889 -0.1833
   82SAPS   H4Y 7703   1.961   2.895   9.711 -0.0300 -2.7845  0.7005
   82SAPS   C35 7704   1.781   2.925   9.618  0.6433  0.1485  0.4914
   82SAPS   H5X 7705   1.823   2.983   9.533 -1.6919  2.0765  0.5584
   82SAPS   H5Y 7706   1.689   2.982   9.641 -0.8237 -1.0165 -2.0034
   82SAPS   C36 7707   1.748   2.778   9.591  0.5820 -0.1003 -0.5266
   82SAPS   H6X 7708   1.681   2.738   9.670  0.6122 -2.1687 -1.4902
   82SAPS   H6Y 7709   1.845   2.722   9.591 -0.0871 -1.5191  3.2531
   82SAPS   C37 7710   1.672   2.746   9.457  0.3767 -0.8163 -0.3387
   82SAPS   H7X 7711   1.585   2.814   9.441  2.4643  2.0541 -0.1875
   82SAPS   H7Y 7712   1.637   2.641   9.469 -1.5414 -0.1539  0.2334
   82SAPS   C38 7713   1.761   2.753   9.331 -0.0711 -0.1942 -0.3154
   82SAPS   H8X 7714   1.845   2.686   9.363 -0.0803 -0.0678 -0.0266
   82SAPS   H8Y 7715   1.797   2.858   9.326 -0.9753  0.0773 -1.2163
   82SAPS   C39 7716   1.687   2.701   9.207  0.2311 -0.2183 -0.6316
   82SAPS   H9X 7717   1.623   2.789   9.187  0.9946  1.0792  2.1276
   82SAPS   H9Y 7718   1.626   2.614   9.241 -0.7537  0.3205 -0.9634
   82SAPS  C310 7719   1.774   2.683   9.091 -0.1779 -0.3326 -0.5470
   82SAPS  H10X 7720   1.854   2.615   9.127  0.5833  0.5386 -0.5517
   82SAPS  H10Y 7721   1.837   2.769   9.058  0.6573 -1.2556 -1.4236
   82SAPS  C311 7722   1.714   2.608   8.966  0.2550  0.6837  0.1819
   82SAPS  H11X 7723   1.613   2.644   8.938 -0.5942 -0.8506  1.0896
   82SAPS  H11Y 7724   1.702   2.501   8.994  2.3832  0.1341 -0.8097
   82SAPS  C312 7725   1.813   2.618   8.852  0.9113 -0.5941 -0.3295
   82SAPS  H12X 7726   1.911   2.573   8.879  1.0530 -0.2081 -0.2024
   82SAPS  H12Y 7727   1.829   2.727   8.836  0.8788 -0.5389  0.0054
   82SAPS  C313 7728   1.754   2.562   8.722 -0.7286 -0.6822  0.2299
   82SAPS  H13X 7729   1.723   2.456   8.735  1.2856 -1.1988  1.2503
   82SAPS  H13Y 7730   1.842   2.569   8.655 -0.1838 -0.4590  0.9615
   82SAPS  C314 7731   1.642   2.650   8.661 -0.9642 -0.4222  0.2601
   82SAPS  H14X 7732   1.551   2.660   8.723 -0.4185  0.5345  0.9316
   82SAPS  H14Y 7733   1.607   2.591   8.573  1.0155 -0.9400 -0.2330
   82SAPS  C315 7734   1.690   2.784   8.596 -0.4863  0.9203  0.0941
   82SAPS  H15X 7735   1.752   2.765   8.506 -0.5761  0.7803  0.0614
   82SAPS  H15Y 7736   1.744   2.843   8.673  2.1131  1.1526 -1.7676
   82SAPS  C316 7737   1.578   2.872   8.540  0.6360 -0.3054  0.8762
   82SAPS  H16X 7738   1.486   2.874   8.603  0.1720  0.1465  0.2099
   82SAPS  H16Y 7739   1.560   2.834   8.437  3.2773  1.1651 -0.2319
   82SAPS  C317 7740   1.606   3.021   8.521  0.4138  0.1014 -0.1054
   82SAPS  H17X 7741   1.705   3.030   8.472 -0.3711  1.9185 -1.4772
   82SAPS  H17Y 7742   1.612   3.072   8.619 -4.9920  0.8104  0.1738
   82SAPS  C318 7743   1.512   3.096   8.423  0.2435 -0.7354  0.9959
   82SAPS  H18X 7744   1.404   3.087   8.449 -0.1618 -1.3490 -0.7421
   82SAPS  H18Y 7745   1.529   3.063   8.319 -0.2407  0.8161  0.3936
   82SAPS  H18Z 7746   1.540   3.204   8.428 -1.7305 -0.1206  0.0516
   83SAPS     N 7747   4.560   3.765  11.074 -0.5448  0.1445  0.1207
   83SAPS   HN1 7748   4.608   3.813  11.152 -0.3087  0.0760  0.0164
   83SAPS   HN2 7749   4.464   3.732  11.097 -1.0970  0.7465 -1.1757
   83SAPS   HN3 7750   4.620   3.685  11.045 -1.4160 -0.2854 -0.5441
   83SAPS   C12 7751   4.557   3.871  10.968  0.7593 -0.0546 -0.5512
   83SAPS  H12A 7752   4.513   3.834  10.876 -0.3271  0.4055 -0.2407
   83SAPS   C13 7753   4.460   3.991  11.010  0.1381 -0.1888  0.2769
   83SAPS  O13A 7754   4.400   3.996  11.115  0.1888  0.0270 -0.9599
   83SAPS  O13B 7755   4.417   4.055  10.902  0.6185  0.3240 -0.3426
   83SAPS   C11 7756   4.704   3.924  10.947 -0.5903  0.1002 -0.3304
   83SAPS  H11A 7757   4.704   3.990  10.858 -0.0481 -0.3651 -0.6879
   83SAPS  H11B 7758   4.777   3.843  10.921 -0.0249  0.9219 -1.3916
   83SAPS     P 7759   4.846   4.113  11.071  0.7995 -0.0306  0.0703
   83SAPS   O13 7760   4.794   4.209  11.178 -0.0735  0.5246  0.4197
   83SAPS   O14 7761   4.983   4.073  11.088  0.2179  0.5929 -0.6111
   83SAPS   O12 7762   4.749   3.989  11.064  0.2178 -0.4992 -0.0916
   83SAPS   O11 7763   4.843   4.188  10.931  0.4471 -0.3016  0.0887
   83SAPS    C1 7764   4.923   4.299  10.902 -0.4574  0.2419 -0.2792
   83SAPS    HA 7765   4.889   4.392  10.953 -1.8046 -0.3286 -0.1223
   83SAPS    HB 7766   5.026   4.290  10.942 -0.2393  0.9409 -0.6593
   83SAPS    C2 7767   4.950   4.337  10.744  0.4092 -0.4649  0.3040
   83SAPS    HS 7768   4.865   4.389  10.695  1.5453  0.6876 -0.4989
   83SAPS   O21 7769   4.974   4.219  10.668  0.5394  0.7575  0.1993
   83SAPS   C21 7770   4.863   4.158  10.630  0.1825 -0.1853  0.3156
   83SAPS   O22 7771   4.751   4.209  10.640  0.4753  0.2789 -0.2525
   83SAPS   C22 7772   4.910   4.035  10.556 -0.5225 -0.1360 -0.2934
   83SAPS   H2R 7773   5.019   4.039  10.534 -0.6875  2.7222 -1.0072
   83SAPS   H2S 7774   4.872   3.951  10.617 -1.4510  0.0426 -0.6109
   83SAPS    C3 7775   5.071   4.438  10.717  0.1256 -0.5393 -0.1775
   83SAPS    HX 7776   5.163   4.411  10.773 -0.2197 -1.2867  0.0461
   83SAPS    HY 7777   5.046   4.541  10.750 -0.0639 -0.3329 -0.9550
   83SAPS   O31 7778   5.096   4.436  10.573  0.1743 -0.4726  0.4900
   83SAPS   C31 7779   5.208   4.376  10.526  0.3187 -0.4029  0.0747
   83SAPS   O32 7780   5.299   4.338  10.600  0.2147 -0.5725 -0.2956
   83SAPS   C32 7781   5.197   4.351  10.380 -0.4494 -0.3183  0.3801
   83SAPS   H2X 7782   5.255   4.434  10.335  1.8613 -2.5279 -1.0469
   83SAPS   H2Y 7783   5.094   4.356  10.339  0.6808 -0.9664 -2.9013
   83SAPS   C23 7784   4.834   4.032  10.413 -0.0430  0.1513 -0.0509
   83SAPS   H3R 7785   4.871   4.111  10.345  2.2172 -0.7735  0.0048
   83SAPS   H3S 7786   4.725   4.051  10.427  0.5185  1.9539  2.7764
   83SAPS   C24 7787   4.848   3.899  10.332 -0.0534 -0.0084 -0.1304
   83SAPS   H4R 7788   4.803   3.817  10.391 -1.5165  0.6078 -0.3432
   83SAPS   H4S 7789   4.953   3.868  10.313  0.1572  0.5893  0.0401
   83SAPS   C25 7790   4.780   3.899  10.196  0.5175 -0.0101 -0.2831
   83SAPS   H5R 7791   4.687   3.958  10.195 -0.2716 -1.0935  2.1853
   83SAPS   C26 7792   4.807   3.833  10.081  0.8921 -0.4587  0.3796
   83SAPS   H6R 7793   4.750   3.856   9.991  1.5269 -0.1635  0.0427
   83SAPS   C27 7794   4.921   3.747  10.042  0.2594  0.7959 -0.4011
   83SAPS   H7R 7795   4.885   3.663   9.978  0.3027 -0.7000  1.4588
   83SAPS   H7S 7796   4.979   3.699  10.123  1.2216 -1.7588 -2.4456
   83SAPS   C28 7797   5.017   3.841   9.966 -0.1249 -0.1902 -0.2036
   83SAPS   H8R 7798   5.085   3.906  10.023  0.2168 -0.3494 -0.4191
   83SAPS   C29 7799   5.042   3.842   9.834  0.3781 -0.0145 -0.2797
   83SAPS   H9R 7800   5.121   3.910   9.799  0.7443 -0.9817 -1.3891
   83SAPS  C210 7801   4.976   3.745   9.733  0.5054 -0.4583 -0.3409
   83SAPS  H10R 7802   4.910   3.812   9.673 -0.4375  0.2383  1.4056
   83SAPS  H10S 7803   4.903   3.679   9.785  1.9421 -1.0056  1.0522
   83SAPS  C211 7804   5.057   3.662   9.640 -0.6799 -0.1310  0.2343
   83SAPS  H11R 7805   5.149   3.613   9.675 -0.9015  0.5512  1.8628
   83SAPS  C212 7806   5.053   3.662   9.508 -0.6149 -0.4223 -0.2152
   83SAPS  H12R 7807   5.118   3.596   9.447 -0.8418 -1.0580  0.2169
   83SAPS  C213 7808   4.959   3.744   9.416 -0.0186  0.1818  0.2328
   83SAPS  H13R 7809   4.989   3.738   9.309  0.2552  0.2230  0.3073
   83SAPS  H13S 7810   4.974   3.845   9.458 -0.6713  1.6609 -2.7561
   83SAPS  C214 7811   4.811   3.706   9.427  0.2324  0.2578 -0.1186
   83SAPS  H14R 7812   4.777   3.673   9.526 -0.1167 -2.6389 -1.1113
   83SAPS  C215 7813   4.722   3.704   9.322  0.1590  0.5418 -0.1811
   83SAPS  H15R 7814   4.616   3.695   9.350  0.5628 -0.5824  1.1195
   83SAPS  C216 7815   4.744   3.734   9.174 -0.0395  0.5096 -0.0286
   83SAPS  H16R 7816   4.741   3.638   9.118  1.5097  1.7264 -2.3397
   83SAPS  H16S 7817   4.839   3.789   9.159 -0.6089  1.5872  0.1931
   83SAPS  C217 7818   4.644   3.822   9.100  0.0256  0.1775  0.2517
   83SAPS  H17R 7819   4.625   3.907   9.170  1.5243  0.6308  0.1475
   83SAPS  H17S 7820   4.550   3.766   9.081  0.5181  0.1204 -2.3106
   83SAPS  C218 7821   4.694   3.873   8.963 -0.0053 -0.6316  0.6217
   83SAPS  H18R 7822   4.677   3.795   8.886  3.7714 -1.3741  0.3460
   83SAPS  H18S 7823   4.800   3.905   8.952  0.1794 -1.7651 -1.4860
   83SAPS  C219 7824   4.600   3.993   8.912 -0.2839  0.3584 -0.6776
   83SAPS  H19R 7825   4.493   3.968   8.925  0.3001 -1.1633  1.6993
   83SAPS  H19S 7826   4.622   4.004   8.803  1.8593 -0.3160 -0.3643
   83SAPS  C220 7827   4.626   4.123   8.980 -0.1258 -0.0035 -0.1566
   83SAPS  H20R 7828   4.535   4.185   8.966  0.0709  0.1174 -0.9252
   83SAPS  H20S 7829   4.716   4.177   8.942  0.4033 -0.3344  0.6000
   83SAPS  H20T 7830   4.640   4.107   9.089 -1.2627  1.0387  0.1716
   83SAPS   C33 7831   5.277   4.230  10.346 -0.1199  0.1583 -0.3816
   83SAPS   H3X 7832   5.251   4.142  10.408  0.5280 -1.5619 -2.4231
   83SAPS   H3Y 7833   5.383   4.254  10.370  0.6854 -1.0820 -2.4524
   83SAPS   C34 7834   5.275   4.180  10.199  1.5179 -0.9281 -0.1988
   83SAPS   H4X 7835   5.171   4.156  10.169  0.8281  0.5740  0.8555
   83SAPS   H4Y 7836   5.346   4.097  10.181 -0.6099 -2.5400 -1.7547
   83SAPS   C35 7837   5.319   4.290  10.102  0.6996 -0.6613 -0.2719
   83SAPS   H5X 7838   5.425   4.314  10.125  0.8518 -1.3445 -0.2394
   83SAPS   H5Y 7839   5.270   4.388  10.123  0.6578 -0.5859 -0.7243
   83SAPS   C36 7840   5.300   4.263   9.954  0.4907  0.2551 -0.8822
   83SAPS   H6X 7841   5.329   4.349   9.890 -0.4426  0.4389 -1.0784
   83SAPS   H6Y 7842   5.190   4.249   9.948  0.8547 -2.9678 -1.7958
   83SAPS   C37 7843   5.350   4.122   9.906 -0.5367 -0.0712 -0.3062
   83SAPS   H7X 7844   5.274   4.047   9.940 -2.1552  1.5767 -0.1061
   83SAPS   H7Y 7845   5.452   4.105   9.945  1.3474  1.7624 -3.9959
   83SAPS   C38 7846   5.366   4.117   9.757 -0.4184  0.7132 -0.3019
   83SAPS   H8X 7847   5.402   4.013   9.738 -0.5647  0.4805  0.6518
   83SAPS   H8Y 7848   5.457   4.173   9.728  0.1689 -0.3609 -0.5926
   83SAPS   C39 7849   5.239   4.161   9.683  0.4855 -0.5376  0.0827
   83SAPS   H9X 7850   5.238   4.272   9.689  0.0825 -0.5338  0.0295
   83SAPS   H9Y 7851   5.140   4.122   9.718  0.9771 -2.1208 -0.1896
   83SAPS  C310 7852   5.240   4.124   9.532  0.5591 -0.3225 -0.3346
   83SAPS  H10X 7853   5.195   4.026   9.508  2.0659 -0.7923 -1.3905
   83SAPS  H10Y 7854   5.349   4.122   9.508  0.5975 -1.8691 -0.1173
   83SAPS  C311 7855   5.160   4.228   9.444 -0.2643 -0.2516 -0.2239
   83SAPS  H11X 7856   5.214   4.322   9.469  1.6940 -0.7300 -2.3363
   83SAPS  H11Y 7857   5.056   4.239   9.481  0.1029  1.0822  0.4917
   83SAPS  C312 7858   5.162   4.212   9.289  0.1405  0.6345 -0.7300
   83SAPS  H12X 7859   5.267   4.216   9.254  0.6987 -1.1656  0.5792
   83SAPS  H12Y 7860   5.090   4.291   9.258  1.0450  2.1057  0.7964
   83SAPS  C313 7861   5.117   4.068   9.250 -0.1841 -0.1742  0.5196
   83SAPS  H13X 7862   5.061   4.034   9.339 -1.5394  3.4030  1.2291
   83SAPS  H13Y 7863   5.209   4.006   9.244 -0.5172 -0.5894 -4.9569
   83SAPS  C314 7864   5.034   4.049   9.117 -0.2701 -0.5091 -0.1387
   83SAPS  H14X 7865   4.943   4.111   9.131  0.4077 -0.0847  3.1567
   83SAPS  H14Y 7866   5.009   3.942   9.108  1.0758 -0.8314 -0.2624
   83SAPS  C315 7867   5.109   4.092   8.992 -0.5170 -0.0753  0.2430
   83SAPS  H15X 7868   5.205   4.036   8.993 -0.4089  0.1132  0.3034
   83SAPS  H15Y 7869   5.120   4.202   8.999 -1.9712  0.0940  0.2767
   83SAPS  C316 7870   5.032   4.047   8.868 -0.7544  0.1400  0.0691
   83SAPS  H16X 7871   4.936   4.103   8.868 -0.2271  1.0919  1.0459
   83SAPS  H16Y 7872   5.006   3.939   8.874  0.4740 -0.2454 -1.0392
   83SAPS  C317 7873   5.099   4.076   8.733  0.5854  0.2683 -0.6672
   83SAPS  H17X 7874   5.042   4.019   8.657 -0.0704  1.6353 -1.2350
   83SAPS  H17Y 7875   5.203   4.037   8.738 -0.0396 -1.2954  0.6665
   83SAPS  C318 7876   5.085   4.224   8.690 -0.7057  0.2287  0.4449
   83SAPS  H18X 7877   4.982   4.251   8.658  0.4231  0.9056 -3.0673
   83SAPS  H18Y 7878   5.149   4.239   8.600 -1.8026  0.6393 -0.2861
   83SAPS  H18Z 7879   5.115   4.299   8.767 -0.3362  1.8624 -1.1995
   84SAPS     N 7880   5.461   3.682  10.972  0.3865 -0.6323  0.6115
   84SAPS   HN1 7881   5.397   3.730  10.905  0.5789  0.5963  1.2897
   84SAPS   HN2 7882   5.556   3.698  10.934 -0.6426  1.8586 -1.2500
   84SAPS   HN3 7883   5.441   3.580  10.977 -0.4189 -0.5627 -0.6778
   84SAPS   C12 7884   5.459   3.733  11.112  0.5130 -0.0796  0.6413
   84SAPS  H12A 7885   5.421   3.835  11.111  0.5894 -0.0414 -0.6246
   84SAPS   C13 7886   5.374   3.650  11.212 -0.3332  0.8747 -0.6408
   84SAPS  O13A 7887   5.365   3.526  11.186 -0.2966  0.3333 -0.1743
   84SAPS  O13B 7888   5.347   3.692  11.323 -0.2448 -0.1183 -0.3223
   84SAPS   C11 7889   5.602   3.731  11.168  0.6757  0.1451  0.3860
   84SAPS  H11A 7890   5.632   3.626  11.143 -1.2857 -0.3917  0.1584
   84SAPS  H11B 7891   5.606   3.745  11.278 -0.8937  0.0125  0.4818
   84SAPS     P 7892   5.804   3.786  11.003  0.1263  0.0315 -0.4510
   84SAPS   O13 7893   5.845   3.905  10.928 -0.1138 -0.1108 -0.4400
   84SAPS   O14 7894   5.908   3.725  11.090  0.3059  0.3728  0.1906
   84SAPS   O12 7895   5.682   3.824  11.101  0.0555  0.2744  0.0495
   84SAPS   O11 7896   5.729   3.685  10.910  0.1199 -1.3129  0.1793
   84SAPS    C1 7897   5.785   3.571  10.843  0.5688 -0.2816 -0.7360
   84SAPS    HA 7898   5.891   3.567  10.876 -0.1079  0.8231  1.8239
   84SAPS    HB 7899   5.733   3.483  10.887  0.7744 -0.1738 -0.2745
   84SAPS    C2 7900   5.765   3.572  10.693 -0.2267 -0.0273  0.1885
   84SAPS    HS 7901   5.818   3.660  10.651 -0.3421 -0.5978 -1.2149
   84SAPS   O21 7902   5.627   3.575  10.668 -0.2012  0.3675 -0.0851
   84SAPS   C21 7903   5.584   3.647  10.575 -0.2067  0.2504  0.0538
   84SAPS   O22 7904   5.649   3.704  10.492 -0.2164  0.4982 -0.8530
   84SAPS   C22 7905   5.426   3.647  10.584 -0.6797  0.7849  0.7552
   84SAPS   H2R 7906   5.401   3.570  10.509  2.4272  1.3716 -1.0732
   84SAPS   H2S 7907   5.404   3.620  10.689 -0.9692  0.2134  0.5514
   84SAPS    C3 7908   5.820   3.454  10.609 -0.4188  0.5196 -0.0332
   84SAPS    HX 7909   5.771   3.365  10.653 -0.5907  0.2518 -0.7589
   84SAPS    HY 7910   5.927   3.442  10.636 -0.7296 -0.5871  0.7736
   84SAPS   O31 7911   5.807   3.470  10.468 -0.0343  0.4930 -0.0098
   84SAPS   C31 7912   5.895   3.555  10.419  0.0515 -0.5698  0.0594
   84SAPS   O32 7913   5.980   3.616  10.480 -0.0451 -0.2431  0.1754
   84SAPS   C32 7914   5.875   3.569  10.269 -0.1069  1.2022 -0.2325
   84SAPS   H2X 7915   5.769   3.601  10.254  0.4110  2.3765 -1.5883
   84SAPS   H2Y 7916   5.890   3.467  10.228  0.9729  1.4709 -0.5186
   84SAPS   C23 7917   5.370   3.785  10.538 -0.0376 -0.2196  0.6358
   84SAPS   H3R 7918   5.427   3.866  10.590  2.4516  0.0656 -2.2743
   84SAPS   H3S 7919   5.263   3.796  10.565 -0.2042  2.4031 -0.7716
   84SAPS   C24 7920   5.376   3.814  10.391 -0.4241 -0.1837  0.2729
   84SAPS   H4R 7921   5.482   3.809  10.359 -0.5102  0.7606 -0.1998
   84SAPS   H4S 7922   5.341   3.919  10.375  0.0112 -0.3803 -2.3968
   84SAPS   C25 7923   5.294   3.726  10.308  0.7924 -0.0985 -1.0239
   84SAPS   H5R 7924   5.187   3.741  10.326  0.9395  2.7395 -2.0271
   84SAPS   C26 7925   5.329   3.651  10.204 -0.3895  0.5245  0.4451
   84SAPS   H6R 7926   5.247   3.604  10.149 -0.9823  0.2091  1.5595
   84SAPS   C27 7927   5.467   3.647  10.146  0.2187  0.4566  0.5496
   84SAPS   H7R 7928   5.550   3.669  10.217  2.0210  0.7417 -1.5277
   84SAPS   H7S 7929   5.486   3.715  10.060  2.7678 -1.9834 -0.9857
   84SAPS   C28 7930   5.489   3.510  10.093  0.0218 -0.1619  0.4070
   84SAPS   H8R 7931   5.518   3.428  10.160  0.8822 -0.2675 -0.0793
   84SAPS   C29 7932   5.480   3.474   9.967 -0.1631 -0.4312 -0.9465
   84SAPS   H9R 7933   5.499   3.368   9.944  1.6438 -1.1286  2.9727
   84SAPS  C210 7934   5.461   3.567   9.849 -0.4859  0.5445  0.1932
   84SAPS  H10R 7935   5.422   3.669   9.869  1.3006  1.1684  0.6656
   84SAPS  H10S 7936   5.380   3.524   9.787  0.7558 -0.0184 -1.0821
   84SAPS  C211 7937   5.589   3.590   9.774 -0.2560  0.8572 -0.1181
   84SAPS  H11R 7938   5.677   3.616   9.834  1.1577  1.5317 -2.3244
   84SAPS  C212 7939   5.603   3.588   9.640  0.6869 -0.3127  0.7627
   84SAPS  H12R 7940   5.708   3.600   9.608  1.4049 -3.8383  1.2963
   84SAPS  C213 7941   5.488   3.570   9.545  0.2415 -0.7069  0.4547
   84SAPS  H13R 7942   5.406   3.504   9.582  0.1935  0.6079  2.8904
   84SAPS  H13S 7943   5.526   3.512   9.458 -0.4875 -0.4149 -0.0777
   84SAPS  C214 7944   5.407   3.697   9.508  0.2842  1.0941 -0.1893
   84SAPS  H14R 7945   5.366   3.752   9.594 -1.5863  2.4606 -1.8696
   84SAPS  C215 7946   5.373   3.735   9.383  0.1493  0.4848 -0.5442
   84SAPS  H15R 7947   5.308   3.825   9.386  1.9749  1.8753 -0.8788
   84SAPS  C216 7948   5.405   3.675   9.247  0.0552 -0.1880 -0.3839
   84SAPS  H16R 7949   5.461   3.579   9.255  2.1098  0.9397 -0.6733
   84SAPS  H16S 7950   5.463   3.757   9.200 -2.9458  2.2205 -0.2482
   84SAPS  C217 7951   5.274   3.651   9.176  0.0206 -0.0181  0.3848
   84SAPS  H17R 7952   5.231   3.752   9.156  0.9736  0.3440  0.1512
   84SAPS  H17S 7953   5.203   3.592   9.238 -1.6978  2.1230  0.5794
   84SAPS  C218 7954   5.293   3.571   9.042 -0.1383  0.2421  0.3626
   84SAPS  H18R 7955   5.350   3.480   9.071 -0.6510 -0.3523 -0.4612
   84SAPS  H18S 7956   5.342   3.626   8.959  1.3723 -1.9468 -0.2974
   84SAPS  C219 7957   5.149   3.544   8.984 -0.7501 -0.0282  0.0914
   84SAPS  H19R 7958   5.155   3.495   8.884 -0.2323 -0.7450  0.4712
   84SAPS  H19S 7959   5.092   3.640   8.983 -0.9340 -0.1253 -1.0387
   84SAPS  C220 7960   5.078   3.430   9.058 -0.2073  0.0393 -0.3593
   84SAPS  H20R 7961   4.969   3.412   9.050 -0.2403  0.6522 -1.4657
   84SAPS  H20S 7962   5.083   3.451   9.167  3.4681 -1.1383 -0.1614
   84SAPS  H20T 7963   5.129   3.332   9.049 -0.6017 -0.0737 -1.4176
   84SAPS   C33 7964   5.963   3.666  10.200 -0.8684 -0.3334 -0.1115
   84SAPS   H3X 7965   6.067   3.644  10.235 -0.5735  1.2187  0.0443
   84SAPS   H3Y 7966   5.952   3.773  10.225 -1.7226 -0.8688  1.9453
   84SAPS   C34 7967   5.952   3.639  10.045 -0.9961  0.1280 -0.0836
   84SAPS   H4X 7968   5.844   3.627  10.022 -1.0233  0.8035 -0.3159
   84SAPS   H4Y 7969   6.010   3.549  10.016  0.0552  1.0385 -0.8582
   84SAPS   C35 7970   6.026   3.748   9.961 -0.0955 -0.0323  0.1051
   84SAPS   H5X 7971   6.137   3.737   9.968 -0.2327 -0.3940  2.3305
   84SAPS   H5Y 7972   5.989   3.848   9.991  0.2944  0.0515  0.3174
   84SAPS   C36 7973   5.981   3.737   9.810  0.5346  0.2136  0.8926
   84SAPS   H6X 7974   6.005   3.827   9.750 -1.1608 -1.2340 -2.1635
   84SAPS   H6Y 7975   5.873   3.716   9.794  0.7901  0.8013 -2.1454
   84SAPS   C37 7976   6.049   3.619   9.748 -0.2519  0.2032 -0.3851
   84SAPS   H7X 7977   6.055   3.531   9.814  0.5605 -0.4370 -1.2921
   84SAPS   H7Y 7978   6.156   3.643   9.730  0.5826 -0.2701  3.3261
   84SAPS   C38 7979   5.988   3.570   9.619 -0.2510  0.1990  0.3434
   84SAPS   H8X 7980   5.897   3.508   9.631  0.3568 -1.0256 -1.0857
   84SAPS   H8Y 7981   6.065   3.503   9.576  0.8314 -0.0084  2.4832
   84SAPS   C39 7982   5.945   3.673   9.512 -0.1134 -0.2937  0.2467
   84SAPS   H9X 7983   6.031   3.742   9.500  1.7811 -2.4649  0.5836
   84SAPS   H9Y 7984   5.863   3.739   9.547  0.9978  1.6243 -0.5798
   84SAPS  C310 7985   5.933   3.608   9.372  0.5753  0.2944 -0.1297
   84SAPS  H10X 7986   5.887   3.509   9.391  0.4167  0.8416  2.7973
   84SAPS  H10Y 7987   6.036   3.609   9.329  0.2535  1.4775 -0.9142
   84SAPS  C311 7988   5.844   3.694   9.284 -0.2375  0.0548  0.5021
   84SAPS  H11X 7989   5.867   3.803   9.292 -1.3760  0.4231 -0.8133
   84SAPS  H11Y 7990   5.741   3.692   9.327 -0.8382  0.9314 -0.8147
   84SAPS  C312 7991   5.841   3.644   9.138  0.3667  0.3030 -0.5926
   84SAPS  H12X 7992   5.947   3.623   9.114  0.3499  0.4470 -0.7968
   84SAPS  H12Y 7993   5.806   3.720   9.065  0.9089 -0.6624 -1.8982
   84SAPS  C313 7994   5.744   3.524   9.122 -0.2543 -0.3892  0.5505
   84SAPS  H13X 7995   5.639   3.543   9.153  0.0601 -0.5590  1.7797
   84SAPS  H13Y 7996   5.777   3.434   9.178  2.4621 -1.4008 -2.3717
   84SAPS  C314 7997   5.751   3.474   8.978  0.2669 -0.4307  0.9099
   84SAPS  H14X 7998   5.845   3.424   8.948 -0.0506  0.2171 -1.3416
   84SAPS  H14Y 7999   5.737   3.559   8.908  2.5526 -1.1031 -0.4751
   84SAPS  C315 8000   5.642   3.367   8.949 -0.1554  0.4722 -0.4985
   84SAPS  H15X 8001   5.673   3.328   8.850  2.2100  2.4745 -0.6285
   84SAPS  H15Y 8002   5.543   3.418   8.949  0.2819  1.8164  4.2083
   84SAPS  C316 8003   5.635   3.242   9.051 -0.0849 -0.3309  0.1847
   84SAPS  H16X 8004   5.553   3.177   9.015  0.6041 -0.8617 -0.4383
   84SAPS  H16Y 8005   5.602   3.270   9.154 -1.9761 -0.9125 -0.2235
   84SAPS  C317 8006   5.766   3.173   9.072 -0.8774  0.2426  0.6354
   84SAPS  H17X 8007   5.849   3.245   9.086 -1.2366  0.7068  0.4076
   84SAPS  H17Y 8008   5.785   3.118   8.978 -2.3492  2.0230 -0.7926
   84SAPS  C318 8009   5.763   3.088   9.194 -0.3262  0.8434 -0.2597
   84SAPS  H18X 8010   5.861   3.060   9.238  0.3203  0.7300 -1.6827
   84SAPS  H18Y 8011   5.718   2.993   9.158  0.6421  0.9886 -2.0183
   84SAPS  H18Z 8012   5.706   3.125   9.281  0.0857  1.0615 -0.0789
   85SAPS     N 8013   3.252   4.752  10.864  0.0755 -0.8941 -0.5729
   85SAPS   HN1 8014   3.298   4.667  10.825  1.6719  0.4608 -1.7716
   85SAPS   HN2 8015   3.154   4.757  10.830 -1.0981  0.4096  2.5998
   85SAPS   HN3 8016   3.302   4.840  10.841 -1.2313  0.9612  2.8566
   85SAPS   C12 8017   3.267   4.740  11.012  0.0223  0.1143  0.0638
   85SAPS  H12A 8018   3.204   4.655  11.035  1.5162 -1.1289 -0.2778
   85SAPS   C13 8019   3.412   4.702  11.062  0.0841  0.3991  0.7866
   85SAPS  O13A 8020   3.516   4.720  10.992 -0.2935 -0.1037 -0.3124
   85SAPS  O13B 8021   3.423   4.662  11.181 -0.1058  0.2173  0.0852
   85SAPS   C11 8022   3.206   4.863  11.080  0.1089 -0.4525  0.3932
   85SAPS  H11A 8023   3.277   4.946  11.102  1.1045 -1.7932  2.5987
   85SAPS  H11B 8024   3.182   4.829  11.183  0.2847 -0.4748  0.4271
   85SAPS     P 8025   3.011   5.026  11.102  0.1747  0.2317  0.0333
   85SAPS   O13 8026   2.873   4.979  11.114 -0.2360  0.0722  0.1921
   85SAPS   O14 8027   3.089   5.057  11.223 -0.6285 -0.5719 -0.1176
   85SAPS   O12 8028   3.085   4.910  11.019 -0.3902 -0.3738 -0.1609
   85SAPS   O11 8029   3.009   5.153  11.017  0.2531 -0.1030  0.2724
   85SAPS    C1 8030   3.116   5.196  10.929  0.1108  0.2462  0.2975
   85SAPS    HA 8031   3.122   5.306  10.941  0.1817  0.1533  1.2165
   85SAPS    HB 8032   3.217   5.170  10.966 -0.4296 -2.1749  0.2224
   85SAPS    C2 8033   3.096   5.143  10.790 -0.2333 -0.2093  0.3989
   85SAPS    HS 8034   3.089   5.032  10.789  1.4576 -0.3465  1.0714
   85SAPS   O21 8035   3.203   5.186  10.706 -0.3084 -0.0572 -0.5013
   85SAPS   C21 8036   3.312   5.108  10.709 -0.6306 -0.1710 -0.6656
   85SAPS   O22 8037   3.318   5.008  10.775 -0.0145  0.1807  0.2708
   85SAPS   C22 8038   3.422   5.148  10.612  0.1589  0.4856  0.1333
   85SAPS   H2R 8039   3.409   5.258  10.599  0.8722  0.4500 -1.0605
   85SAPS   H2S 8040   3.519   5.127  10.660 -0.8552 -1.6253  1.4050
   85SAPS    C3 8041   2.968   5.201  10.721  0.0830  0.8715 -0.2641
   85SAPS    HX 8042   2.960   5.311  10.736 -2.0093  0.6590  0.5457
   85SAPS    HY 8043   2.877   5.158  10.767 -0.4287 -1.2915 -2.9815
   85SAPS   O31 8044   2.961   5.186  10.581  1.0103  0.4098 -0.0646
   85SAPS   C31 8045   2.914   5.066  10.537 -0.5757  0.0787 -0.4092
   85SAPS   O32 8046   2.897   4.971  10.613  0.2883  0.2190 -0.0656
   85SAPS   C32 8047   2.872   5.078  10.391 -0.5381  0.0998 -0.0530
   85SAPS   H2X 8048   2.946   5.148  10.346  0.8318  0.5738  2.7395
   85SAPS   H2Y 8049   2.773   5.129  10.386 -0.3921  0.6144  1.8026
   85SAPS   C23 8050   3.406   5.065  10.486  0.0410 -0.0183 -0.8821
   85SAPS   H3R 8051   3.401   4.956  10.503  0.4324  0.2478  1.3153
   85SAPS   H3S 8052   3.499   5.078  10.427  0.0698 -3.4707 -1.7547
   85SAPS   C24 8053   3.298   5.121  10.387 -0.8512 -0.1481 -0.3858
   85SAPS   H4R 8054   3.212   5.156  10.448 -0.0237 -0.4021  0.9472
   85SAPS   H4S 8055   3.249   5.034  10.337 -2.9219 -0.6765  2.3538
   85SAPS   C25 8056   3.345   5.228  10.288  0.0813  0.1262 -1.0550
   85SAPS   H5R 8057   3.416   5.298  10.334  2.1413 -2.9108  0.6751
   85SAPS   C26 8058   3.335   5.228  10.154  0.1437  0.3773 -0.1476
   85SAPS   H6R 8059   3.377   5.316  10.102 -1.9210  0.7198 -1.3839
   85SAPS   C27 8060   3.271   5.133  10.062  0.3799  0.3452  0.8553
   85SAPS   H7R 8061   3.215   5.053  10.116 -2.1590  1.2992 -0.1900
   85SAPS   H7S 8062   3.359   5.085  10.013  0.2248 -1.1721  1.9830
   85SAPS   C28 8063   3.172   5.211   9.981  0.6620  0.1987  0.8462
   85SAPS   H8R 8064   3.078   5.241  10.029 -0.5013 -0.5029 -0.8796
   85SAPS   C29 8065   3.187   5.252   9.855  0.7051  0.3828  0.5649
   85SAPS   H9R 8066   3.106   5.303   9.800 -0.1013 -1.8737 -0.4877
   85SAPS  C210 8067   3.309   5.228   9.762  0.9321 -0.6818  0.1074
   85SAPS  H10R 8068   3.399   5.212   9.825  0.4645 -0.5543  0.8100
   85SAPS  H10S 8069   3.348   5.318   9.710 -0.4114  0.1505  0.5058
   85SAPS  C211 8070   3.297   5.113   9.673  0.1571 -0.9155 -0.2610
   85SAPS  H11R 8071   3.277   5.016   9.720 -2.8755 -0.5892 -0.6459
   85SAPS  C212 8072   3.303   5.113   9.541  1.1348 -0.0703 -0.4401
   85SAPS  H12R 8073   3.289   5.018   9.489 -0.0852 -0.1427 -0.0174
   85SAPS  C213 8074   3.323   5.234   9.456  0.6486  0.0462  0.0225
   85SAPS  H13R 8075   3.407   5.214   9.386  0.0464 -2.4815 -0.0735
   85SAPS  H13S 8076   3.362   5.322   9.512  0.2641  0.6055 -0.5794
   85SAPS  C214 8077   3.192   5.277   9.390  0.2503 -0.0089 -0.0494
   85SAPS  H14R 8078   3.138   5.349   9.453  2.2932  1.4922  0.0797
   85SAPS  C215 8079   3.149   5.249   9.265  0.1621  0.6801 -0.0382
   85SAPS  H15R 8080   3.056   5.297   9.233 -1.6051 -2.1431  0.4871
   85SAPS  C216 8081   3.220   5.168   9.156  0.3415 -0.0982  0.3677
   85SAPS  H16R 8082   3.155   5.086   9.118  3.6849 -2.3006 -1.1071
   85SAPS  H16S 8083   3.314   5.122   9.196  1.7647  1.3043 -1.2210
   85SAPS  C217 8084   3.260   5.257   9.032 -0.2418  0.5435  0.6877
   85SAPS  H17R 8085   3.339   5.204   8.974  2.1848  4.1197  0.4434
   85SAPS  H17S 8086   3.315   5.349   9.061  2.2507 -0.2799 -1.0271
   85SAPS  C218 8087   3.139   5.270   8.936 -0.0310 -0.5954 -0.6982
   85SAPS  H18R 8088   3.055   5.324   8.986 -0.6274 -1.2893 -0.9259
   85SAPS  H18S 8089   3.097   5.168   8.923 -0.9900 -0.3047 -0.0251
   85SAPS  C219 8090   3.170   5.333   8.791 -0.2583  0.0609  0.3414
   85SAPS  H19R 8091   3.277   5.316   8.767  0.4039  2.3512  1.3597
   85SAPS  H19S 8092   3.165   5.442   8.811 -1.0833  0.0980 -0.0228
   85SAPS  C220 8093   3.071   5.297   8.681 -0.1579 -0.6735 -0.2358
   85SAPS  H20R 8094   2.969   5.304   8.724  0.4131 -1.3764  1.3337
   85SAPS  H20S 8095   3.076   5.189   8.654  0.9899 -0.4785 -0.8910
   85SAPS  H20T 8096   3.088   5.350   8.585  3.0972  0.6106  0.9029
   85SAPS   C33 8097   2.872   4.937  10.313 -0.0618 -0.2735 -0.0281
   85SAPS   H3X 8098   2.768   4.899  10.328 -0.9853  1.3497 -1.8840
   85SAPS   H3Y 8099   2.942   4.858  10.347  0.3308 -0.7329 -1.7852
   85SAPS   C34 8100   2.896   4.963  10.160 -0.4979  0.2650 -0.6386
   85SAPS   H4X 8101   2.911   4.865  10.110  2.1715 -0.6548  1.7168
   85SAPS   H4Y 8102   2.992   5.019  10.158 -1.2380  1.5690 -1.3991
   85SAPS   C35 8103   2.792   5.045  10.087 -0.2763 -0.4094 -0.1821
   85SAPS   H5X 8104   2.795   5.152  10.120  1.4581 -0.5564  0.2202
   85SAPS   H5Y 8105   2.693   4.996  10.097 -0.4580 -0.7985 -3.0999
   85SAPS   C36 8106   2.828   5.063   9.938  0.3277  0.0075 -0.3220
   85SAPS   H6X 8107   2.827   4.961   9.893 -1.0213 -0.1741  0.0658
   85SAPS   H6Y 8108   2.928   5.111   9.937 -0.0345  0.8031  0.7756
   85SAPS   C37 8109   2.734   5.166   9.866  0.0192  0.2892 -0.2860
   85SAPS   H7X 8110   2.728   5.249   9.940  0.3857 -0.9721  1.2103
   85SAPS   H7Y 8111   2.633   5.120   9.862  0.9156 -1.7188 -1.8791
   85SAPS   C38 8112   2.779   5.224   9.735  0.3814  0.2299  0.1040
   85SAPS   H8X 8113   2.874   5.278   9.750  0.4035  0.3998 -0.6187
   85SAPS   H8Y 8114   2.698   5.294   9.706  0.2830  0.4518  0.8882
   85SAPS   C39 8115   2.785   5.113   9.630 -0.9247 -0.2505  0.8642
   85SAPS   H9X 8116   2.689   5.057   9.623  0.1171 -1.8611 -1.7082
   85SAPS   H9Y 8117   2.865   5.042   9.660  1.3663  1.8861  0.0795
   85SAPS  C310 8118   2.818   5.179   9.495 -0.1725 -0.1441 -0.6801
   85SAPS  H10X 8119   2.835   5.103   9.417  1.1973 -1.1622  0.5623
   85SAPS  H10Y 8120   2.907   5.244   9.504  0.8602 -1.6258  0.2270
   85SAPS  C311 8121   2.708   5.266   9.422 -0.1354  0.6737  0.3636
   85SAPS  H11X 8122   2.702   5.372   9.457  2.7843  1.0157  0.1198
   85SAPS  H11Y 8123   2.612   5.215   9.442 -0.0589 -0.4426 -1.8994
   85SAPS  C312 8124   2.738   5.272   9.266 -0.3684 -0.0689  0.1899
   85SAPS  H12X 8125   2.734   5.174   9.212  0.8686  0.1896 -0.4115
   85SAPS  H12Y 8126   2.839   5.316   9.258 -0.3891 -0.0988 -0.2860
   85SAPS  C313 8127   2.634   5.355   9.183 -0.3808  0.2854 -0.5483
   85SAPS  H13X 8128   2.608   5.449   9.234  0.6424 -0.6627  1.8447
   85SAPS  H13Y 8129   2.543   5.294   9.200  0.4474 -0.3296  2.0252
   85SAPS  C314 8130   2.655   5.368   9.028 -0.2526  0.2224  0.8091
   85SAPS  H14X 8131   2.753   5.413   9.003  1.0682 -3.1901 -0.8980
   85SAPS  H14Y 8132   2.578   5.436   8.986 -0.0363  0.1848  0.3374
   85SAPS  C315 8133   2.651   5.229   8.958  0.2567 -0.5034 -0.0433
   85SAPS  H15X 8134   2.561   5.171   8.985  0.5226 -1.5309 -1.3197
   85SAPS  H15Y 8135   2.745   5.176   8.983  1.6592  0.6910 -2.3884
   85SAPS  C316 8136   2.652   5.237   8.804 -0.3822 -0.3894  0.6745
   85SAPS  H16X 8137   2.719   5.323   8.778 -2.0873  0.7433 -0.1573
   85SAPS  H16Y 8138   2.551   5.248   8.759 -0.0199 -0.7639 -0.2392
   85SAPS  C317 8139   2.732   5.121   8.742  0.0799  0.1517 -0.5641
   85SAPS  H17X 8140   2.706   5.022   8.785  2.0119  0.7304  2.1846
   85SAPS  H17Y 8141   2.829   5.144   8.790 -0.8936 -1.8483  2.7241
   85SAPS  C318 8142   2.736   5.127   8.592 -0.1738  0.6849 -0.5973
   85SAPS  H18X 8143   2.775   5.225   8.558  0.9153 -0.2532 -2.1947
   85SAPS  H18Y 8144   2.639   5.110   8.540  0.0830 -1.1989 -0.5434
   85SAPS  H18Z 8145   2.798   5.045   8.550 -2.7637 -1.1542 -1.1012
   86SAPS     N 8146   5.375   6.404  10.988  0.0279 -0.5582 -0.2667
   86SAPS   HN1 8147   5.445   6.327  10.992 -0.7163 -1.2434 -0.1203
   86SAPS   HN2 8148   5.346   6.416  10.889 -0.0402  0.1164 -0.1674
   86SAPS   HN3 8149   5.433   6.484  11.019  2.0969 -1.5861 -1.3156
   86SAPS   C12 8150   5.267   6.368  11.081  0.0522  0.3996 -1.0164
   86SAPS  H12A 8151   5.306   6.334  11.175 -0.7170 -0.7761 -1.1023
   86SAPS   C13 8152   5.173   6.481  11.125  0.4307  0.9965 -0.3336
   86SAPS  O13A 8153   5.190   6.597  11.084 -0.1710 -0.3141 -0.4791
   86SAPS  O13B 8154   5.091   6.443  11.213  0.5748  0.7118 -0.4237
   86SAPS   C11 8155   5.182   6.264  11.009  0.1660 -0.1999  0.1720
   86SAPS  H11A 8156   5.090   6.243  11.067  0.2613  0.6434  0.6464
   86SAPS  H11B 8157   5.252   6.178  11.004 -0.9809 -1.2307  1.1517
   86SAPS     P 8158   5.073   6.213  10.766 -0.2321 -0.0494  0.5661
   86SAPS   O13 8159   5.173   6.176  10.662  0.5091 -0.5819  0.1317
   86SAPS   O14 8160   5.006   6.095  10.826 -0.6832 -0.1474  0.1727
   86SAPS   O12 8161   5.147   6.299  10.873 -0.4394 -0.1827  0.2282
   86SAPS   O11 8162   4.972   6.323  10.716  0.3687  0.6125 -0.3294
   86SAPS    C1 8163   4.864   6.289  10.628  0.3395 -0.1010 -0.4157
   86SAPS    HA 8164   4.842   6.180  10.624  1.0269 -0.2003 -2.3728
   86SAPS    HB 8165   4.775   6.337  10.674  0.3360  0.7411 -1.2699
   86SAPS    C2 8166   4.880   6.353  10.487  0.1025  0.2117  0.2258
   86SAPS    HS 8167   4.796   6.324  10.419 -1.5960  4.9068 -0.0975
   86SAPS   O21 8168   5.005   6.321  10.425 -0.1102 -0.3571  0.1431
   86SAPS   C21 8169   5.023   6.194  10.394 -0.1967 -0.7712  0.7346
   86SAPS   O22 8170   4.947   6.106  10.417 -0.3167  0.8674 -0.1136
   86SAPS   C22 8171   5.141   6.175  10.298  0.0874  0.2712 -0.6615
   86SAPS   H2R 8172   5.192   6.273  10.282  1.3734  0.1946  2.3407
   86SAPS   H2S 8173   5.217   6.120  10.356 -0.5800  1.6785  1.6887
   86SAPS    C3 8174   4.872   6.512  10.502 -0.1216  0.0498 -0.1455
   86SAPS    HX 8175   4.959   6.540  10.564  0.3642  0.8297 -1.1518
   86SAPS    HY 8176   4.784   6.537  10.565  0.7895 -2.2640  2.2004
   86SAPS   O31 8177   4.887   6.578  10.377 -0.7394  0.6298 -0.2734
   86SAPS   C31 8178   4.772   6.574  10.308 -0.0619 -0.3440  0.6978
   86SAPS   O32 8179   4.671   6.514  10.340 -0.1701  0.1707 -0.3964
   86SAPS   C32 8180   4.783   6.663  10.186 -0.3373  0.1002 -0.7021
   86SAPS   H2X 8181   4.852   6.745  10.215  0.6906 -0.9585 -0.1138
   86SAPS   H2Y 8182   4.679   6.702  10.172 -1.3899 -2.1884  0.2830
   86SAPS   C23 8183   5.114   6.106  10.165 -0.2457 -0.1714 -0.3850
   86SAPS   H3R 8184   5.072   6.179  10.093 -2.4004 -0.5905  0.3608
   86SAPS   H3S 8185   5.050   6.015  10.163 -1.1206  0.4181  0.1057
   86SAPS   C24 8186   5.251   6.057  10.113 -0.7519 -0.2355 -0.0795
   86SAPS   H4R 8187   5.235   6.012  10.012  0.3715 -0.0931 -0.3312
   86SAPS   H4S 8188   5.286   5.976  10.180 -2.2657 -0.9914 -0.1332
   86SAPS   C25 8189   5.365   6.159  10.094  0.2492  0.1757  0.2213
   86SAPS   H5R 8190   5.392   6.203  10.191  1.3961 -4.9422  2.5847
   86SAPS   C26 8191   5.405   6.214   9.979  0.0175 -0.3053  1.4181
   86SAPS   H6R 8192   5.497   6.275   9.984 -0.2752  0.2664  0.1893
   86SAPS   C27 8193   5.364   6.179   9.831  0.4317  0.1697 -0.6128
   86SAPS   H7R 8194   5.350   6.274   9.775 -3.9372  1.9138  2.7958
   86SAPS   H7S 8195   5.257   6.154   9.849  0.3290  1.8489  1.5437
   86SAPS   C28 8196   5.437   6.066   9.760  0.1281  0.1208  0.0283
   86SAPS   H8R 8197   5.498   6.005   9.828 -2.6703 -2.3846  0.5135
   86SAPS   C29 8198   5.429   6.038   9.624 -0.4238  0.0746  0.2034
   86SAPS   H9R 8199   5.494   5.960   9.584 -2.0164 -0.3602 -1.6728
   86SAPS  C210 8200   5.356   6.120   9.516  0.8418  0.6956  0.0282
   86SAPS  H10R 8201   5.284   6.197   9.553 -0.0582  0.7120 -1.6540
   86SAPS  H10S 8202   5.296   6.055   9.450 -0.9137  2.3250 -0.0950
   86SAPS  C211 8203   5.451   6.193   9.429  0.2287 -0.4572  0.5970
   86SAPS  H11R 8204   5.553   6.201   9.471  0.6659 -1.6682 -0.1875
   86SAPS  C212 8205   5.419   6.255   9.309  0.4890 -0.0853  0.0905
   86SAPS  H12R 8206   5.502   6.280   9.242 -1.0343  1.7242 -1.1866
   86SAPS  C213 8207   5.285   6.245   9.236  0.1184  0.3887  0.6361
   86SAPS  H13R 8208   5.293   6.287   9.134 -2.3903 -1.5343 -0.4763
   86SAPS  H13S 8209   5.219   6.306   9.301  0.8444  3.1307 -1.0577
   86SAPS  C214 8210   5.209   6.112   9.208  0.0748  0.1823 -1.3602
   86SAPS  H14R 8211   5.285   6.036   9.232  0.8777  1.5436  0.6042
   86SAPS  C215 8212   5.082   6.082   9.181 -0.1576 -0.0952 -0.5321
   86SAPS  H15R 8213   5.053   5.976   9.187 -0.8676  0.1791  1.8227
   86SAPS  C216 8214   4.975   6.188   9.159  0.0402  0.1070 -0.8740
   86SAPS  H16R 8215   4.999   6.282   9.212  2.7253 -1.2450  0.5460
   86SAPS  H16S 8216   4.883   6.148   9.206  0.3092  1.1363  0.5777
   86SAPS  C217 8217   4.951   6.213   9.012  0.5244  0.7357  0.2873
   86SAPS  H17R 8218   5.037   6.277   8.979  1.7208  0.8344  3.2598
   86SAPS  H17S 8219   4.860   6.277   9.016 -0.5974 -0.6589 -1.3565
   86SAPS  C218 8220   4.926   6.089   8.924 -0.9858  0.2766 -0.5354
   86SAPS  H18R 8221   4.833   6.043   8.963 -1.2657  0.5189 -0.9127
   86SAPS  H18S 8222   5.019   6.028   8.929 -0.3145  1.3694  0.7751
   86SAPS  C219 8223   4.899   6.127   8.778 -0.3444  0.3886 -0.5319
   86SAPS  H19R 8224   4.894   6.033   8.720  0.5662 -1.5454  2.3131
   86SAPS  H19S 8225   4.985   6.194   8.752 -0.2307  0.5591  0.2609
   86SAPS  C220 8226   4.768   6.201   8.752 -0.1752 -0.0768  0.1080
   86SAPS  H20R 8227   4.754   6.209   8.642 -0.0901  2.6567  0.2197
   86SAPS  H20S 8228   4.764   6.308   8.783 -0.1120  0.5871 -2.0535
   86SAPS  H20T 8229   4.685   6.149   8.805 -1.2904  1.6297  0.1387
   86SAPS   C33 8230   4.831   6.596  10.056  0.5824 -0.6289  0.2896
   86SAPS   H3X 8231   4.797   6.657   9.969  1.5969 -1.8893 -1.0317
   86SAPS   H3Y 8232   4.794   6.493  10.036 -0.2336 -0.9039  2.8294
   86SAPS   C34 8233   4.980   6.593  10.057 -0.1249  0.2627 -0.1192
   86SAPS   H4X 8234   5.017   6.523  10.136 -1.0607  1.5878  1.5636
   86SAPS   H4Y 8235   5.015   6.695  10.081 -0.1840  0.3283 -0.3103
   86SAPS   C35 8236   5.033   6.548   9.923  0.2272 -0.1991  0.1141
   86SAPS   H5X 8237   4.999   6.631   9.857  1.5329 -0.7830 -1.3510
   86SAPS   H5Y 8238   4.991   6.452   9.885 -0.1618  0.3433 -0.8712
   86SAPS   C36 8239   5.187   6.559   9.903 -0.1119  0.0901 -0.5102
   86SAPS   H6X 8240   5.224   6.458   9.930 -2.5913 -0.6439  0.3907
   86SAPS   H6Y 8241   5.214   6.640   9.974 -3.0061  1.4267 -0.7930
   86SAPS   C37 8242   5.222   6.601   9.759  0.5133  0.0916 -0.2316
   86SAPS   H7X 8243   5.169   6.692   9.723  2.5845  0.7158 -1.8864
   86SAPS   H7Y 8244   5.188   6.516   9.695 -0.9838  0.5277 -0.0739
   86SAPS   C38 8245   5.372   6.622   9.715  0.3241 -0.3222 -0.0086
   86SAPS   H8X 8246   5.413   6.519   9.716  1.0912 -0.0776  3.2269
   86SAPS   H8Y 8247   5.422   6.685   9.791  1.0792  1.7881 -2.1304
   86SAPS   C39 8248   5.389   6.706   9.584 -0.0565 -0.3996  0.2895
   86SAPS   H9X 8249   5.497   6.705   9.557 -0.6243 -0.7938 -2.2943
   86SAPS   H9Y 8250   5.350   6.808   9.605  0.8813 -0.0265  0.2843
   86SAPS  C310 8251   5.310   6.644   9.466 -0.2450 -0.0560 -0.4084
   86SAPS  H10X 8252   5.209   6.609   9.494  0.1958 -1.3514 -0.3545
   86SAPS  H10Y 8253   5.363   6.555   9.427 -1.9867 -1.6465  0.7157
   86SAPS  C311 8254   5.297   6.749   9.353  0.2320 -0.6313  0.4039
   86SAPS  H11X 8255   5.394   6.803   9.360  0.6077 -1.2711  0.1490
   86SAPS  H11Y 8256   5.223   6.826   9.385  2.5998  1.3757  1.3608
   86SAPS  C312 8257   5.276   6.709   9.200 -0.2368 -0.7250 -0.6467
   86SAPS  H12X 8258   5.354   6.637   9.168 -0.1169  0.4014 -3.1333
   86SAPS  H12Y 8259   5.285   6.799   9.135 -1.2136 -0.6715 -0.7303
   86SAPS  C313 8260   5.132   6.650   9.174 -0.6458 -0.3281 -0.7407
   86SAPS  H13X 8261   5.060   6.731   9.197  1.2268  0.8124  1.4065
   86SAPS  H13Y 8262   5.116   6.571   9.251 -0.9612  1.8691  1.5598
   86SAPS  C314 8263   5.124   6.604   9.029  0.3477 -0.4640 -0.1530
   86SAPS  H14X 8264   5.017   6.582   9.012  0.5302 -2.3304  0.8387
   86SAPS  H14Y 8265   5.182   6.513   9.002  1.1432 -0.1550  0.4495
   86SAPS  C315 8266   5.165   6.711   8.922 -0.0697  0.1518 -0.4190
   86SAPS  H15X 8267   5.272   6.705   8.895  0.3066 -1.2659  1.2106
   86SAPS  H15Y 8268   5.129   6.808   8.962  0.8059  0.3404 -0.0528
   86SAPS  C316 8269   5.086   6.699   8.796  0.7683  0.1289 -0.5293
   86SAPS  H16X 8270   5.104   6.774   8.716 -3.3249  1.5757 -0.3067
   86SAPS  H16Y 8271   4.989   6.734   8.837 -0.2463 -0.3354 -2.4486
   86SAPS  C317 8272   5.076   6.554   8.744  0.3160  0.0566  0.7415
   86SAPS  H17X 8273   5.030   6.484   8.816 -1.4690 -1.9698 -2.1390
   86SAPS  H17Y 8274   5.175   6.507   8.723  0.4234  1.0755 -1.3308
   86SAPS  C318 8275   4.990   6.534   8.612  0.2208 -0.5899  0.3312
   86SAPS  H18X 8276   5.050   6.542   8.519  0.0967  0.6770  0.3402
   86SAPS  H18Y 8277   4.904   6.604   8.604  0.2443 -0.7668 -2.5496
   86SAPS  H18Z 8278   4.948   6.431   8.611  1.6710 -1.2167 -0.6814
   87SAPS     N 8279   4.399   0.849  11.351 -0.3167 -0.2162 -0.0286
   87SAPS   HN1 8280   4.454   0.794  11.420  0.7233  1.7425  0.7689
   87SAPS   HN2 8281   4.333   0.911  11.404 -0.4557 -1.1920  0.9970
   87SAPS   HN3 8282   4.345   0.780  11.296  0.2291 -1.7523  1.2908
   87SAPS   C12 8283   4.481   0.925  11.253 -0.6268  0.5118  0.3613
   87SAPS  H12A 8284   4.557   0.974  11.311 -2.6054  3.0292  0.9992
   87SAPS   C13 8285   4.554   0.839  11.147 -0.3111 -1.1555 -0.4247
   87SAPS  O13A 8286   4.558   0.715  11.152  0.1253  0.0736 -0.7495
   87SAPS  O13B 8287   4.636   0.888  11.073  0.6870 -0.3537  0.0606
   87SAPS   C11 8288   4.393   1.024  11.174  0.1703  0.3104  0.4221
   87SAPS  H11A 8289   4.458   1.083  11.105  2.1216 -1.3792  0.7293
   87SAPS  H11B 8290   4.358   1.089  11.257 -0.3666 -1.5012  1.6630
   87SAPS     P 8291   4.236   0.985  10.967 -0.2118 -0.0190 -0.1109
   87SAPS   O13 8292   4.118   0.904  10.931 -0.0743 -0.0315 -0.1719
   87SAPS   O14 8293   4.219   1.132  10.959 -0.3463 -0.4656 -0.2911
   87SAPS   O12 8294   4.280   0.956  11.114 -0.2820 -0.2497 -0.5094
   87SAPS   O11 8295   4.362   0.935  10.884 -0.6865 -0.4387 -0.4009
   87SAPS    C1 8296   4.439   1.029  10.806 -0.2147 -1.2754  0.4998
   87SAPS    HA 8297   4.398   1.130  10.825 -4.2176 -2.1230 -2.3299
   87SAPS    HB 8298   4.545   1.028  10.839 -0.6468 -1.3679  1.9437
   87SAPS    C2 8299   4.432   1.015  10.651 -1.2034  0.8181  1.0385
   87SAPS    HS 8300   4.452   1.109  10.595 -0.7160  1.4223  2.2038
   87SAPS   O21 8301   4.311   0.946  10.601 -0.6652 -0.4894 -0.3027
   87SAPS   C21 8302   4.193   1.011  10.616  0.1022 -0.6637 -0.3789
   87SAPS   O22 8303   4.180   1.121  10.666 -0.1625  0.3741 -0.1688
   87SAPS   C22 8304   4.069   0.916  10.602  0.3547 -0.5559  0.1608
   87SAPS   H2R 8305   4.081   0.842  10.683 -0.8765 -0.1086  0.7767
   87SAPS   H2S 8306   3.984   0.987  10.615  1.6552  1.5401 -1.8261
   87SAPS    C3 8307   4.560   0.926  10.603 -0.1709 -0.8460 -0.6717
   87SAPS    HX 8308   4.552   0.830  10.658  1.5403 -0.1589  0.8988
   87SAPS    HY 8309   4.649   0.979  10.644 -1.8336  2.2757 -0.7788
   87SAPS   O31 8310   4.571   0.906  10.457  0.1584  0.4739 -0.0279
   87SAPS   C31 8311   4.662   0.814  10.425 -0.1665 -0.5043 -0.0858
   87SAPS   O32 8312   4.731   0.749  10.501 -0.0384 -0.5075 -0.0701
   87SAPS   C32 8313   4.656   0.789  10.274  0.4286  0.5470 -0.0524
   87SAPS   H2X 8314   4.595   0.870  10.229  1.3723  0.7392 -1.0149
   87SAPS   H2Y 8315   4.602   0.692  10.266 -0.8701  1.1360  1.0742
   87SAPS   C23 8316   4.052   0.841  10.467 -0.1031  0.1356 -0.3606
   87SAPS   H3R 8317   3.973   0.766  10.486 -0.1126  0.0184 -0.8530
   87SAPS   H3S 8318   4.138   0.775  10.440 -0.5749 -1.5434  1.8556
   87SAPS   C24 8319   4.004   0.933  10.347 -0.1961 -0.0816 -0.3042
   87SAPS   H4R 8320   3.911   0.982  10.383 -1.0323 -0.9210 -1.2434
   87SAPS   H4S 8321   3.978   0.861  10.266  1.0554  1.4606 -2.1506
   87SAPS   C25 8322   4.111   1.028  10.303 -0.0341  0.3691 -0.9179
   87SAPS   H5R 8323   4.211   0.982  10.296 -0.7945 -1.9869  1.7301
   87SAPS   C26 8324   4.092   1.158  10.275 -0.3360 -0.0830  0.8425
   87SAPS   H6R 8325   4.179   1.217  10.244  0.2432 -0.6473  1.3490
   87SAPS   C27 8326   3.961   1.238  10.280  0.4710  0.4983 -0.2972
   87SAPS   H7R 8327   3.895   1.186  10.353 -0.0753  0.6980 -0.6430
   87SAPS   H7S 8328   3.912   1.225  10.181  0.2802  1.7812 -0.3809
   87SAPS   C28 8329   3.974   1.388  10.311 -0.2290  0.6154  0.3905
   87SAPS   H8R 8330   4.042   1.404  10.396  0.4253  2.1597 -0.3758
   87SAPS   C29 8331   3.919   1.493  10.253  0.1377  0.4890  0.4804
   87SAPS   H9R 8332   3.937   1.592  10.296 -1.5402 -0.4069  3.5726
   87SAPS  C210 8333   3.819   1.498  10.135 -0.8587 -0.6234 -0.4991
   87SAPS  H10R 8334   3.744   1.415  10.138 -1.8592  0.1528 -2.1550
   87SAPS  H10S 8335   3.879   1.474  10.044  3.1079  1.9644  1.2028
   87SAPS  C211 8336   3.743   1.629  10.123 -0.0659 -0.2801  0.4151
   87SAPS  H11R 8337   3.727   1.679  10.220  0.5330  0.2355  0.2578
   87SAPS  C212 8338   3.691   1.688  10.013 -0.2570 -0.0604  0.2134
   87SAPS  H12R 8339   3.647   1.788  10.027  2.0270  1.2508 -1.3146
   87SAPS  C213 8340   3.694   1.634   9.873 -0.4441 -0.3379  0.0292
   87SAPS  H13R 8341   3.592   1.633   9.829 -0.2183  0.1952 -0.5251
   87SAPS  H13S 8342   3.739   1.533   9.866  1.5874  0.5408 -0.2188
   87SAPS  C214 8343   3.786   1.724   9.790 -0.1347 -0.4809 -0.9231
   87SAPS  H14R 8344   3.892   1.730   9.819  0.0392 -0.2864 -1.5867
   87SAPS  C215 8345   3.749   1.798   9.683  0.2713  0.6505 -1.1179
   87SAPS  H15R 8346   3.825   1.860   9.633 -0.0427  1.1715 -0.9580
   87SAPS  C216 8347   3.616   1.806   9.616 -0.0989 -0.2795  0.0291
   87SAPS  H16R 8348   3.589   1.912   9.597 -0.6340 -0.2904  0.7038
   87SAPS  H16S 8349   3.550   1.754   9.687  1.4310 -1.0461  0.9498
   87SAPS  C217 8350   3.594   1.721   9.491  0.3083  0.2109  0.4172
   87SAPS  H17R 8351   3.487   1.719   9.461  0.4124  2.1893 -0.1801
   87SAPS  H17S 8352   3.631   1.619   9.515 -2.4545 -0.8867  0.3824
   87SAPS  C218 8353   3.667   1.781   9.369 -0.0172 -0.5353 -0.5433
   87SAPS  H18R 8354   3.761   1.826   9.406 -1.8223  1.7006  1.6800
   87SAPS  H18S 8355   3.609   1.870   9.336 -1.4829 -1.2206  0.0724
   87SAPS  C219 8356   3.684   1.685   9.249 -0.0456 -0.1853 -1.1325
   87SAPS  H19R 8357   3.582   1.654   9.218  0.2033  0.1430 -2.3310
   87SAPS  H19S 8358   3.740   1.599   9.291  1.2926  0.6180 -1.1961
   87SAPS  C220 8359   3.760   1.736   9.126 -0.2194  0.3017 -0.4801
   87SAPS  H20R 8360   3.696   1.807   9.069  1.6423  1.3770 -1.3083
   87SAPS  H20S 8361   3.785   1.648   9.064 -0.9039  0.2737 -0.7246
   87SAPS  H20T 8362   3.857   1.782   9.155 -0.1396 -1.1517  1.8387
   87SAPS   C33 8363   4.800   0.782  10.208 -0.2434  0.3666 -0.6544
   87SAPS   H3X 8364   4.869   0.709  10.256  1.3933  1.8442 -0.6947
   87SAPS   H3Y 8365   4.852   0.873  10.244 -0.9307 -0.6361  3.3533
   87SAPS   C34 8366   4.812   0.785  10.054 -0.1431 -0.1610 -1.0464
   87SAPS   H4X 8367   4.921   0.791  10.034  0.6372 -0.1585  2.5158
   87SAPS   H4Y 8368   4.770   0.880  10.015 -2.2045 -0.4600  0.3055
   87SAPS   C35 8369   4.754   0.663   9.982 -0.2011  0.0422 -0.4413
   87SAPS   H5X 8370   4.659   0.631  10.030  0.1508 -0.1156  0.1659
   87SAPS   H5Y 8371   4.810   0.570  10.008  0.2125  0.7920  1.5525
   87SAPS   C36 8372   4.724   0.679   9.837  0.3755  0.1605 -0.6275
   87SAPS   H6X 8373   4.656   0.763   9.812  1.6881  1.4602 -0.0231
   87SAPS   H6Y 8374   4.660   0.592   9.810 -0.8898  0.2220  1.8826
   87SAPS   C37 8375   4.847   0.682   9.749 -0.3045 -0.8430 -0.9334
   87SAPS   H7X 8376   4.898   0.585   9.764  0.3584 -0.2468  0.9408
   87SAPS   H7Y 8377   4.919   0.767   9.758  0.7016 -1.8896  1.7398
   87SAPS   C38 8378   4.801   0.674   9.600 -0.3695  0.0084  0.8127
   87SAPS   H8X 8379   4.746   0.769   9.581  0.7594  0.6138  0.4557
   87SAPS   H8Y 8380   4.734   0.586   9.590 -0.9381  0.2689  2.0911
   87SAPS   C39 8381   4.918   0.671   9.502  0.3849  0.3990  0.0833
   87SAPS   H9X 8382   4.958   0.568   9.497 -1.7333 -0.4090 -2.0041
   87SAPS   H9Y 8383   4.999   0.736   9.541  0.0659  0.3707  0.8133
   87SAPS  C310 8384   4.882   0.715   9.361 -0.1583  0.1136  0.5856
   87SAPS  H10X 8385   4.862   0.824   9.355  0.3490  0.2461  1.1876
   87SAPS  H10Y 8386   4.796   0.666   9.310  1.4774 -2.4175  0.0627
   87SAPS  C311 8387   5.012   0.689   9.263 -0.1643 -0.1617 -0.6068
   87SAPS  H11X 8388   5.031   0.582   9.286  0.7442  0.1093 -0.0193
   87SAPS  H11Y 8389   5.093   0.746   9.314  0.1135 -1.3223  0.2933
   87SAPS  C312 8390   4.994   0.712   9.118 -0.3586  0.0681  0.4225
   87SAPS  H12X 8391   4.925   0.798   9.105  0.3024  0.7006  1.0250
   87SAPS  H12Y 8392   4.946   0.629   9.062 -1.2664  0.4553  0.6125
   87SAPS  C313 8393   5.129   0.751   9.053  0.2637 -0.2477 -0.4146
   87SAPS  H13X 8394   5.207   0.672   9.055  0.5041 -0.1194 -2.5659
   87SAPS  H13Y 8395   5.180   0.839   9.097  0.4061  0.5949 -2.1750
   87SAPS  C314 8396   5.100   0.780   8.900  0.4412  0.2644  0.6883
   87SAPS  H14X 8397   5.034   0.865   8.873  1.5496  0.3622 -1.9931
   87SAPS  H14Y 8398   5.046   0.691   8.859 -0.1938  1.0387 -0.1931
   87SAPS  C315 8399   5.229   0.792   8.827 -1.2681  0.1470  0.4237
   87SAPS  H15X 8400   5.285   0.697   8.837 -1.1354  0.0280 -1.1140
   87SAPS  H15Y 8401   5.290   0.872   8.874  0.5254 -0.9897  0.1362
   87SAPS  C316 8402   5.225   0.814   8.678  0.3248 -0.6632  0.6152
   87SAPS  H16X 8403   5.134   0.877   8.664  1.7978  1.5700  0.4429
   87SAPS  H16Y 8404   5.202   0.719   8.626  2.5747 -1.6056  1.2383
   87SAPS  C317 8405   5.347   0.869   8.609  0.3606 -0.1387  0.0144
   87SAPS  H17X 8406   5.377   0.969   8.645 -3.3428  1.4877 -1.0231
   87SAPS  H17Y 8407   5.329   0.888   8.501  2.1080  2.1783  0.0620
   87SAPS  C318 8408   5.458   0.764   8.628  0.3057  0.2115  0.0511
   87SAPS  H18X 8409   5.499   0.772   8.732  1.1246  0.0309 -0.2456
   87SAPS  H18Y 8410   5.545   0.786   8.562  0.9649  0.3236  0.9311
   87SAPS  H18Z 8411   5.430   0.659   8.608 -0.8246  0.6291 -0.6279
   88SAPS     N 8412   6.678   3.782  11.109  0.8202 -0.2946 -0.7220
   88SAPS   HN1 8413   6.656   3.682  11.090  0.6725 -0.0913 -1.6692
   88SAPS   HN2 8414   6.734   3.790  11.197 -1.5502 -0.9067  0.9388
   88SAPS   HN3 8415   6.591   3.838  11.121  1.3018  0.0121  2.0135
   88SAPS   C12 8416   6.760   3.838  10.996  0.4641  0.0515  0.0028
   88SAPS  H12A 8417   6.706   3.825  10.903  2.6628 -0.8741 -1.2312
   88SAPS   C13 8418   6.801   3.990  11.006 -0.5388  0.1876 -0.3496
   88SAPS  O13A 8419   6.757   4.057  11.101  0.0448  0.7523  0.0639
   88SAPS  O13B 8420   6.866   4.040  10.907 -0.0968  0.0173 -0.1503
   88SAPS   C11 8421   6.885   3.747  10.988 -0.4111  0.8606  0.2639
   88SAPS  H11A 8422   6.931   3.745  11.089 -4.1203  3.0395  2.2304
   88SAPS  H11B 8423   6.959   3.788  10.915 -3.4229  1.4787 -2.6794
   88SAPS     P 8424   6.947   3.499  10.954  0.2021 -0.1743  0.1955
   88SAPS   O13 8425   7.076   3.553  11.007 -0.2125  0.2780  0.8090
   88SAPS   O14 8426   6.875   3.405  11.044  0.3547  0.2149  0.6379
   88SAPS   O12 8427   6.846   3.618  10.937  0.6488 -0.2424  0.3228
   88SAPS   O11 8428   6.967   3.436  10.813  0.0101  0.4967  0.1454
   88SAPS    C1 8429   6.937   3.502  10.696  0.0602  0.0973 -0.2231
   88SAPS    HA 8430   6.970   3.608  10.698  0.7463 -0.1237  0.4688
   88SAPS    HB 8431   7.004   3.457  10.620  1.1342  1.4496 -0.1240
   88SAPS    C2 8432   6.785   3.481  10.664  0.1572  0.2369  0.0471
   88SAPS    HS 8433   6.725   3.467  10.756 -1.6732  1.7744 -0.8336
   88SAPS   O21 8434   6.774   3.363  10.583 -0.1091 -0.2042 -0.1045
   88SAPS   C21 8435   6.649   3.331  10.547 -0.5841  0.0824  0.3578
   88SAPS   O22 8436   6.545   3.387  10.577 -0.6328 -0.7115  0.4740
   88SAPS   C22 8437   6.667   3.201  10.472 -0.1110  0.5913 -0.2676
   88SAPS   H2R 8438   6.737   3.211  10.386 -0.1027  2.1012 -0.1102
   88SAPS   H2S 8439   6.702   3.124  10.544  0.4189 -0.3630 -1.5100
   88SAPS    C3 8440   6.739   3.617  10.584 -0.2319 -0.0661 -0.1295
   88SAPS    HX 8441   6.753   3.711  10.641  0.0026 -0.4232  0.4041
   88SAPS    HY 8442   6.629   3.615  10.568 -0.3516  2.3220 -0.0000
   88SAPS   O31 8443   6.805   3.627  10.458 -0.1660 -0.1776 -0.5930
   88SAPS   C31 8444   6.748   3.708  10.372  0.1517 -0.2929  0.7029
   88SAPS   O32 8445   6.648   3.771  10.394  0.6536 -0.0416  0.0551
   88SAPS   C32 8446   6.822   3.700  10.236 -0.2298 -1.0748  0.0731
   88SAPS   H2X 8447   6.891   3.613  10.226  2.5515  0.9660  0.2031
   88SAPS   H2Y 8448   6.884   3.793  10.228 -0.8718 -0.5498  1.0144
   88SAPS   C23 8449   6.532   3.154  10.419 -0.2318  0.2193  0.2517
   88SAPS   H3R 8450   6.500   3.220  10.335 -0.8106 -1.8677 -1.2666
   88SAPS   H3S 8451   6.451   3.153  10.496  0.6203 -0.8893  1.1647
   88SAPS   C24 8452   6.532   3.006  10.362 -0.2566 -0.1895  0.0891
   88SAPS   H4R 8453   6.432   3.003  10.314  0.1287 -0.0743 -0.7385
   88SAPS   H4S 8454   6.517   2.934  10.445 -1.2385 -1.7954 -1.4256
   88SAPS   C25 8455   6.646   2.956  10.283  0.6959 -0.1789 -0.0262
   88SAPS   H5R 8456   6.733   2.922  10.342 -0.7510  0.3314  2.5312
   88SAPS   C26 8457   6.655   2.958  10.148  0.4898  0.4800  0.5533
   88SAPS   H6R 8458   6.748   2.923  10.102  0.9654  1.1216  0.9966
   88SAPS   C27 8459   6.552   3.008  10.045 -0.2245  0.2688 -0.2779
   88SAPS   H7R 8460   6.598   3.103  10.009  0.4428 -1.2346 -3.7980
   88SAPS   H7S 8461   6.457   3.035  10.096 -0.9140 -2.0197 -0.2485
   88SAPS   C28 8462   6.514   2.915   9.927  0.4287 -0.0347  0.0190
   88SAPS   H8R 8463   6.415   2.869   9.942  1.4170 -1.7925  1.5615
   88SAPS   C29 8464   6.571   2.921   9.807  0.4565 -0.8518 -0.5639
   88SAPS   H9R 8465   6.547   2.848   9.728  1.1875  0.0144 -1.6168
   88SAPS  C210 8466   6.699   2.995   9.760 -0.2298  0.3820 -0.2972
   88SAPS  H10R 8467   6.766   2.912   9.730 -0.9820  0.7757 -3.4010
   88SAPS  H10S 8468   6.755   3.043   9.843  0.1290 -0.9274  0.2379
   88SAPS  C211 8469   6.683   3.100   9.655  0.5183 -0.0814  0.5749
   88SAPS  H11R 8470   6.657   3.198   9.696  0.6029  0.8586 -1.5244
   88SAPS  C212 8471   6.701   3.094   9.522 -0.0434 -0.0951  0.6104
   88SAPS  H12R 8472   6.677   3.186   9.467 -0.5585  0.1867  1.2833
   88SAPS  C213 8473   6.734   2.972   9.435  0.3752  0.4614  0.0362
   88SAPS  H13R 8474   6.755   2.881   9.495 -1.3447 -0.9913 -1.4557
   88SAPS  H13S 8475   6.827   2.984   9.375 -2.0845 -1.0488 -4.5758
   88SAPS  C214 8476   6.620   2.945   9.344 -0.7503  0.6242  0.7417
   88SAPS  H14R 8477   6.540   2.879   9.381 -0.1732  1.0211  2.7786
   88SAPS  C215 8478   6.603   3.007   9.222 -0.1374  0.5450 -0.0246
   88SAPS  H15R 8479   6.507   3.004   9.169  0.0293  2.4536 -0.4860
   88SAPS  C216 8480   6.705   3.098   9.155 -0.2141 -0.0653  0.2340
   88SAPS  H16R 8481   6.805   3.111   9.201  0.3562 -1.9368 -0.3888
   88SAPS  H16S 8482   6.663   3.201   9.150  0.3569  0.1903  0.6647
   88SAPS  C217 8483   6.722   3.035   9.021 -0.0386  0.2878 -0.4033
   88SAPS  H17R 8484   6.772   2.936   9.027 -2.0337 -0.7500 -0.3082
   88SAPS  H17S 8485   6.795   3.098   8.966 -1.1539  2.0095  0.0123
   88SAPS  C218 8486   6.609   3.012   8.930 -0.1597 -0.4613  0.2597
   88SAPS  H18R 8487   6.565   3.113   8.913 -0.9592 -0.7563  0.5602
   88SAPS  H18S 8488   6.541   2.934   8.969  1.5370 -0.9115  2.5757
   88SAPS  C219 8489   6.661   2.965   8.789  0.0388 -0.0129 -0.9607
   88SAPS  H19R 8490   6.710   2.865   8.795 -3.3639 -1.7709 -0.3558
   88SAPS  H19S 8491   6.732   3.042   8.751 -0.8181  0.0858 -2.4240
   88SAPS  C220 8492   6.541   2.949   8.697 -0.6627 -0.1017  0.1085
   88SAPS  H20R 8493   6.479   3.042   8.693 -1.0502 -0.4004 -1.1718
   88SAPS  H20S 8494   6.480   2.862   8.732  1.7971 -1.2181  1.9214
   88SAPS  H20T 8495   6.588   2.932   8.598  0.1922 -0.1880  0.5274
   88SAPS   C33 8496   6.727   3.693  10.115  0.7860  0.5069  0.1564
   88SAPS   H3X 8497   6.638   3.755  10.138  0.9032  1.8389 -2.6279
   88SAPS   H3Y 8498   6.693   3.587  10.110  1.9491 -0.1076  3.0995
   88SAPS   C34 8499   6.795   3.741   9.989  0.3947  0.1387 -0.6166
   88SAPS   H4X 8500   6.882   3.673   9.976  0.8457 -0.0582  2.5523
   88SAPS   H4Y 8501   6.834   3.844  10.007 -1.8913  0.9033  0.4965
   88SAPS   C35 8502   6.702   3.735   9.864  0.1490 -0.8282 -0.2013
   88SAPS   H5X 8503   6.606   3.791   9.875 -0.6499 -2.2508  0.2844
   88SAPS   H5Y 8504   6.675   3.630   9.843 -0.9538 -0.5144 -0.4166
   88SAPS   C36 8505   6.778   3.796   9.745 -0.5150  0.3703  0.3620
   88SAPS   H6X 8506   6.884   3.765   9.749 -0.8507 -0.7390  1.5341
   88SAPS   H6Y 8507   6.774   3.906   9.757 -1.8077  0.5236 -1.2005
   88SAPS   C37 8508   6.717   3.747   9.610 -0.4022  0.3361 -0.6662
   88SAPS   H7X 8509   6.607   3.767   9.607 -0.2885  0.8388 -1.8831
   88SAPS   H7Y 8510   6.740   3.638   9.606  1.1759  0.6838 -1.6257
   88SAPS   C38 8511   6.777   3.827   9.495 -0.0970 -0.3558  0.8587
   88SAPS   H8X 8512   6.887   3.809   9.488  0.1717  1.7866 -2.1804
   88SAPS   H8Y 8513   6.759   3.932   9.529 -1.0024  0.8066 -2.7978
   88SAPS   C39 8514   6.721   3.787   9.355  0.5108 -0.1580  0.3277
   88SAPS   H9X 8515   6.610   3.784   9.348  0.5350 -1.2896  0.1838
   88SAPS   H9Y 8516   6.756   3.682   9.339  0.6844 -0.2413  1.2234
   88SAPS  C310 8517   6.761   3.880   9.244  0.6459 -0.6667  0.1006
   88SAPS  H10X 8518   6.872   3.875   9.242  0.6176 -2.2732  0.9211
   88SAPS  H10Y 8519   6.714   3.979   9.261 -1.3924 -1.6511  0.5291
   88SAPS  C311 8520   6.716   3.807   9.112 -0.1084 -0.1855 -1.0960
   88SAPS  H11X 8521   6.610   3.776   9.125 -0.7811  2.8319  2.5390
   88SAPS  H11Y 8522   6.768   3.710   9.099 -1.0512 -0.8673 -0.0239
   88SAPS  C312 8523   6.741   3.898   8.993  0.1245  0.0074  0.7117
   88SAPS  H12X 8524   6.684   3.841   8.916  0.2031 -2.5567  2.4485
   88SAPS  H12Y 8525   6.847   3.900   8.959  0.6857  1.2158  2.4572
   88SAPS  C313 8526   6.683   4.037   9.012 -0.5685  0.0098 -0.2650
   88SAPS  H13X 8527   6.746   4.106   9.072 -0.6801  1.0982 -1.3480
   88SAPS  H13Y 8528   6.591   4.020   9.072 -1.2015  1.9051 -0.6155
   88SAPS  C314 8529   6.674   4.112   8.876 -0.2487 -0.3702  0.8706
   88SAPS  H14X 8530   6.619   4.035   8.818 -1.7486  1.2263  0.0748
   88SAPS  H14Y 8531   6.777   4.123   8.836 -0.1648 -0.2253  1.1263
   88SAPS  C315 8532   6.590   4.243   8.880 -0.8956 -0.4151  0.0391
   88SAPS  H15X 8533   6.653   4.315   8.937 -0.2168 -1.3002  0.4196
   88SAPS  H15Y 8534   6.492   4.226   8.930 -0.9110  0.5773  0.3812
   88SAPS  C316 8535   6.547   4.307   8.747  0.4732 -0.6271 -0.4106
   88SAPS  H16X 8536   6.489   4.243   8.677 -0.5388  0.0007 -0.1538
   88SAPS  H16Y 8537   6.639   4.340   8.695  0.3197 -0.5569 -0.6385
   88SAPS  C317 8538   6.464   4.444   8.755 -0.5707 -0.1330  0.1558
   88SAPS  H17X 8539   6.458   4.473   8.647  3.6622  0.4864 -0.1104
   88SAPS  H17Y 8540   6.521   4.523   8.808 -1.0576 -1.0984  2.2191
   88SAPS  C318 8541   6.326   4.423   8.825  0.1133 -0.4397 -0.2457
   88SAPS  H18X 8542   6.295   4.322   8.789 -1.3952 -0.0561 -0.0527
   88SAPS  H18Y 8543   6.261   4.503   8.784  1.3410 -0.5939 -2.6811
   88SAPS  H18Z 8544   6.351   4.434   8.933  2.2353 -1.6705 -0.5511
   89SAPS     N 8545   5.183   0.061  11.028  0.3716  0.4740 -0.0229
   89SAPS   HN1 8546   5.111   0.035  10.958  0.1076  2.5281 -0.5775
   89SAPS   HN2 8547   5.222  -0.030  11.061  0.9930  0.4654 -0.7599
   89SAPS   HN3 8548   5.129   0.107  11.104 -2.6634  0.3887 -1.9833
   89SAPS   C12 8549   5.297   0.135  10.964 -0.5426  0.2201  0.3738
   89SAPS  H12A 8550   5.274   0.241  10.966  0.9529  0.5646  1.1120
   89SAPS   C13 8551   5.441   0.123  11.027 -0.1827  0.7547 -1.1130
   89SAPS  O13A 8552   5.446   0.061  11.135  0.5146 -0.2792  0.6429
   89SAPS  O13B 8553   5.532   0.207  10.996  0.6274  0.0018 -0.2512
   89SAPS   C11 8554   5.317   0.077  10.821 -0.6032  0.8357  0.1490
   89SAPS  H11A 8555   5.386   0.146  10.769  0.8261  1.7324  3.0094
   89SAPS  H11B 8556   5.216   0.074  10.775 -0.4260 -1.2252 -0.1700
   89SAPS     P 8557   5.446  -0.134  10.724  0.0503  0.4878 -0.2449
   89SAPS   O13 8558   5.582  -0.077  10.719 -1.0090  1.2913  0.4931
   89SAPS   O14 8559   5.444  -0.278  10.760 -0.4428 -0.5772 -0.3019
   89SAPS   O12 8560   5.366  -0.057  10.830 -0.3568 -0.7595 -0.0562
   89SAPS   O11 8561   5.371  -0.097  10.590  0.3416 -0.3733 -0.0550
   89SAPS    C1 8562   5.286  -0.192  10.525  0.3710 -0.0259 -0.2724
   89SAPS    HA 8563   5.342  -0.286  10.506  2.0534  1.1416 -1.4517
   89SAPS    HB 8564   5.197  -0.223  10.584 -1.6119  1.2890 -2.3926
   89SAPS    C2 8565   5.224  -0.133  10.398 -1.0884 -0.0900 -0.0852
   89SAPS    HS 8566   5.150  -0.204  10.357 -1.3836  0.2354 -0.1214
   89SAPS   O21 8567   5.331  -0.107  10.295 -0.0977 -0.2385  0.7434
   89SAPS   C21 8568   5.385  -0.207  10.234 -0.0377 -0.2893 -0.0205
   89SAPS   O22 8569   5.343  -0.325  10.238 -0.0327  0.2744  0.0138
   89SAPS   C22 8570   5.503  -0.151  10.159  0.0281 -0.2456 -0.4314
   89SAPS   H2R 8571   5.462  -0.065  10.103 -0.3186 -0.6670 -0.8345
   89SAPS   H2S 8572   5.580  -0.124  10.235 -0.8407  0.5007  0.2028
   89SAPS    C3 8573   5.146  -0.003  10.425 -0.2738 -0.1920 -0.3555
   89SAPS    HX 8574   5.214   0.067  10.479 -0.1317 -0.7028  0.1459
   89SAPS    HY 8575   5.061  -0.028  10.492 -0.2115 -0.1948 -0.2753
   89SAPS   O31 8576   5.098   0.063  10.307  0.0847  0.6349 -0.5705
   89SAPS   C31 8577   5.176   0.152  10.256  0.5173  0.3745  0.3841
   89SAPS   O32 8578   5.286   0.187  10.293 -0.2496  0.5498 -0.0283
   89SAPS   C32 8579   5.113   0.200  10.124  0.2864  0.4420 -0.3701
   89SAPS   H2X 8580   5.004   0.182  10.135  0.6669 -1.8483  0.1423
   89SAPS   H2Y 8581   5.145   0.122  10.051 -0.6773  0.3366 -0.6899
   89SAPS   C23 8582   5.567  -0.251  10.059 -0.5614 -0.2119 -0.5953
   89SAPS   H3R 8583   5.495  -0.309   9.997 -0.2466 -2.1948  0.8165
   89SAPS   H3S 8584   5.626  -0.320  10.122  1.3199  0.2333 -1.7799
   89SAPS   C24 8585   5.688  -0.192   9.976  0.6723 -0.3393 -0.5756
   89SAPS   H4R 8586   5.751  -0.129  10.043 -0.9595 -0.3873  1.1043
   89SAPS   H4S 8587   5.640  -0.112   9.915  1.1632  2.0042  1.8860
   89SAPS   C25 8588   5.771  -0.296   9.907 -0.3826 -0.4971  0.3163
   89SAPS   H5R 8589   5.824  -0.374   9.964  0.5790 -0.0820  0.0199
   89SAPS   C26 8590   5.782  -0.297   9.771 -0.0815 -0.1326 -1.0399
   89SAPS   H6R 8591   5.828  -0.381   9.718 -2.4115 -3.3586  1.6474
   89SAPS   C27 8592   5.720  -0.201   9.676  0.5987  0.0428  0.2363
   89SAPS   H7R 8593   5.663  -0.122   9.729  1.3246  1.6830 -1.3465
   89SAPS   H7S 8594   5.634  -0.260   9.637  0.7543 -0.7046  0.9800
   89SAPS   C28 8595   5.804  -0.136   9.571  0.0658 -0.0634 -0.5536
   89SAPS   H8R 8596   5.846  -0.039   9.604 -0.8877  0.1141  0.1667
   89SAPS   C29 8597   5.840  -0.184   9.455  0.4686  0.9379 -0.2371
   89SAPS   H9R 8598   5.920  -0.131   9.401  0.6508  2.2257  1.2054
   89SAPS  C210 8599   5.800  -0.322   9.415  0.4463 -0.1489  0.6251
   89SAPS  H10R 8600   5.690  -0.331   9.428  0.4684 -2.5158 -0.4158
   89SAPS  H10S 8601   5.840  -0.400   9.483  1.8604 -1.7056 -1.8341
   89SAPS  C211 8602   5.853  -0.350   9.272  0.2968  0.0803  0.5900
   89SAPS  H11R 8603   5.943  -0.413   9.263 -0.7296 -2.0022  3.3324
   89SAPS  C212 8604   5.792  -0.306   9.162  0.0160 -0.0999 -0.7925
   89SAPS  H12R 8605   5.835  -0.343   9.068 -1.9079 -1.9886 -1.0129
   89SAPS  C213 8606   5.662  -0.227   9.161  0.2549 -0.0329 -0.9155
   89SAPS  H13R 8607   5.655  -0.159   9.249 -0.0879 -0.4478 -0.6145
   89SAPS  H13S 8608   5.580  -0.300   9.177  0.1068  0.1869 -0.6713
   89SAPS  C214 8609   5.628  -0.149   9.030 -0.1522  0.4450 -0.2779
   89SAPS  H14R 8610   5.633  -0.040   9.036 -0.5329  0.4652 -0.2655
   89SAPS  C215 8611   5.583  -0.207   8.915 -0.6964 -0.1318 -0.3732
   89SAPS  H15R 8612   5.577  -0.142   8.827 -0.3383  1.0991  0.4952
   89SAPS  C216 8613   5.563  -0.356   8.880 -0.3407  0.0014 -0.0782
   89SAPS  H16R 8614   5.521  -0.413   8.966  1.2478 -0.0936  0.6599
   89SAPS  H16S 8615   5.656  -0.409   8.850  0.0871  0.8888 -0.3669
   89SAPS  C217 8616   5.458  -0.392   8.771 -0.0026 -0.0146 -0.4576
   89SAPS  H17R 8617   5.510  -0.400   8.673 -0.1470  2.8780 -0.8533
   89SAPS  H17S 8618   5.371  -0.323   8.768 -0.7857 -0.9927 -0.9684
   89SAPS  C218 8619   5.409  -0.537   8.799 -0.1422 -0.3577  0.0430
   89SAPS  H18R 8620   5.350  -0.558   8.891 -0.1660  1.8691  0.5898
   89SAPS  H18S 8621   5.499  -0.601   8.812 -0.9617 -1.2491  1.6074
   89SAPS  C219 8622   5.337  -0.591   8.682  0.7395 -0.2354 -0.3778
   89SAPS  H19R 8623   5.404  -0.590   8.593  2.4261  2.9699  0.7524
   89SAPS  H19S 8624   5.257  -0.523   8.646  0.2380 -1.0578 -0.8348
   89SAPS  C220 8625   5.280  -0.732   8.709 -0.6565 -0.1280  0.0146
   89SAPS  H20R 8626   5.370  -0.786   8.746 -0.6212  0.2282  0.4544
   89SAPS  H20S 8627   5.230  -0.777   8.620  0.3688  1.8989 -1.6827
   89SAPS  H20T 8628   5.217  -0.731   8.800  0.4941  2.0542  0.8610
   89SAPS   C33 8629   5.163   0.335  10.075 -0.3117  0.5910 -0.1289
   89SAPS   H3X 8630   5.274   0.339  10.075 -0.1851 -1.8114 -0.7515
   89SAPS   H3Y 8631   5.133   0.402  10.159  0.6250 -0.2092  0.8691
   89SAPS   C34 8632   5.115   0.367   9.936 -0.3504 -0.5800 -0.1834
   89SAPS   H4X 8633   5.137   0.471   9.906  0.8426 -1.2549 -1.8430
   89SAPS   H4Y 8634   5.004   0.370   9.946 -0.3262  2.4143  0.0532
   89SAPS   C35 8635   5.151   0.266   9.822  0.5125  0.1342 -0.5524
   89SAPS   H5X 8636   5.129   0.160   9.846  1.6406  0.5528  2.7799
   89SAPS   H5Y 8637   5.260   0.264   9.802  0.8727  0.7814  1.1702
   89SAPS   C36 8638   5.081   0.305   9.693  0.1337 -0.1723  0.1071
   89SAPS   H6X 8639   5.099   0.413   9.676 -1.6042  0.7319  3.2899
   89SAPS   H6Y 8640   4.971   0.292   9.706  0.1624 -2.2320 -1.2105
   89SAPS   C37 8641   5.127   0.207   9.588 -0.4475 -0.1028  0.6372
   89SAPS   H7X 8642   5.138   0.108   9.637 -0.2199  0.2524  1.3188
   89SAPS   H7Y 8643   5.224   0.238   9.544 -0.0738  1.0274  2.1411
   89SAPS   C38 8644   5.033   0.195   9.468 -0.0654  0.6390  0.6020
   89SAPS   H8X 8645   4.928   0.221   9.494  0.4927  1.3170  2.3201
   89SAPS   H8Y 8646   5.024   0.093   9.427 -0.3731  1.7571 -2.3216
   89SAPS   C39 8647   5.075   0.281   9.354  0.1127 -0.1083  0.0909
   89SAPS   H9X 8648   5.177   0.251   9.324 -0.1701 -0.0748 -0.9707
   89SAPS   H9Y 8649   5.068   0.388   9.382 -0.4789 -0.5464  1.7199
   89SAPS  C310 8650   4.987   0.263   9.232 -0.1221  0.1568 -0.5037
   89SAPS  H10X 8651   4.908   0.338   9.254 -1.0157 -1.0862  0.7224
   89SAPS  H10Y 8652   4.925   0.170   9.229 -2.1724  1.4759 -2.2975
   89SAPS  C311 8653   5.056   0.306   9.101 -0.2483  0.2140  0.4634
   89SAPS  H11X 8654   5.146   0.242   9.088 -0.7407 -0.7150  1.4656
   89SAPS  H11Y 8655   5.086   0.413   9.110  1.0305 -0.1346  0.5352
   89SAPS  C312 8656   4.966   0.296   8.983  0.5167  0.2906 -0.1909
   89SAPS  H12X 8657   4.885   0.371   8.996 -0.3096 -0.3944 -1.2103
   89SAPS  H12Y 8658   4.920   0.195   8.991  0.4979  0.3746  0.8821
   89SAPS  C313 8659   5.036   0.307   8.852  0.3753  0.7383  0.6056
   89SAPS  H13X 8660   5.112   0.227   8.843  0.7154  1.1960 -0.8342
   89SAPS  H13Y 8661   5.071   0.412   8.842 -0.1923  1.0918  2.0151
   89SAPS  C314 8662   4.929   0.285   8.742 -0.2470  0.1270 -0.1066
   89SAPS  H14X 8663   4.836   0.344   8.758 -2.1913 -2.7513  0.1070
   89SAPS  H14Y 8664   4.894   0.179   8.734  2.1050 -0.6463 -0.9200
   89SAPS  C315 8665   4.985   0.314   8.599 -0.3890  0.3675  0.3503
   89SAPS  H15X 8666   5.042   0.225   8.565  1.1111  0.9887  1.1645
   89SAPS  H15Y 8667   5.052   0.403   8.598 -0.7941  0.6928 -1.3368
   89SAPS  C316 8668   4.878   0.342   8.496  0.2382  0.3999 -0.1904
   89SAPS  H16X 8669   4.930   0.367   8.401 -0.3570  0.7203 -0.4369
   89SAPS  H16Y 8670   4.815   0.426   8.533 -0.5794 -0.1688 -0.2588
   89SAPS  C317 8671   4.774   0.230   8.488 -0.3139  0.0958  0.3739
   89SAPS  H17X 8672   4.727   0.227   8.589 -0.3448  1.3483  0.4206
   89SAPS  H17Y 8673   4.835   0.138   8.488  0.2580  0.4670  0.6281
   89SAPS  C318 8674   4.677   0.232   8.369  0.2229 -1.0821 -0.5891
   89SAPS  H18X 8675   4.620   0.138   8.358 -1.0671 -0.2786 -0.9387
   89SAPS  H18Y 8676   4.723   0.245   8.269 -0.4523 -1.2708 -0.9227
   89SAPS  H18Z 8677   4.600   0.312   8.380  1.1984  0.0474 -1.6384
   90SAPS     N 8678   1.652   6.188  11.202 -0.4245  0.0285  0.5979
   90SAPS   HN1 8679   1.654   6.087  11.225  1.5465 -0.0213  0.4037
   90SAPS   HN2 8680   1.751   6.217  11.184  0.0150 -0.9661  1.3001
   90SAPS   HN3 8681   1.626   6.242  11.287  2.9224  0.9160  1.1992
   90SAPS   C12 8682   1.567   6.226  11.092 -0.6495  0.2243  0.5494
   90SAPS  H12A 8683   1.476   6.171  11.109  1.0228 -3.5079 -1.1458
   90SAPS   C13 8684   1.528   6.379  11.091  0.5417 -0.8278  0.3570
   90SAPS  O13A 8685   1.589   6.458  11.170  0.0236 -0.2455  0.1822
   90SAPS  O13B 8686   1.424   6.412  11.033 -0.8138 -0.1450 -0.1564
   90SAPS   C11 8687   1.632   6.194  10.953 -0.4843 -0.4760  0.0540
   90SAPS  H11A 8688   1.710   6.269  10.928 -0.7120  0.0673  0.9075
   90SAPS  H11B 8689   1.562   6.221  10.872  3.0610  0.6370 -2.8878
   90SAPS     P 8690   1.628   5.930  10.906  0.0991  0.4411  0.3934
   90SAPS   O13 8691   1.718   5.816  10.875  0.0669  0.7364  0.0128
   90SAPS   O14 8692   1.520   5.889  10.996  0.0144  0.4359 -0.3007
   90SAPS   O12 8693   1.695   6.064  10.956 -0.2211 -0.3632  0.2823
   90SAPS   O11 8694   1.567   5.977  10.767 -0.5735  0.4164  0.5404
   90SAPS    C1 8695   1.647   6.027  10.656 -0.7358  0.4373 -0.7169
   90SAPS    HA 8696   1.742   6.076  10.686 -1.2307  0.7434  0.4014
   90SAPS    HB 8697   1.670   5.936  10.596 -1.0106  1.0798 -1.8260
   90SAPS    C2 8698   1.554   6.125  10.576 -0.8252 -0.6871 -0.6557
   90SAPS    HS 8699   1.495   6.190  10.644 -0.6372  0.9362 -1.9814
   90SAPS   O21 8700   1.473   6.057  10.484  0.0486  1.0054  0.5288
   90SAPS   C21 8701   1.362   6.110  10.438 -0.9496  0.7289  0.2343
   90SAPS   O22 8702   1.323   6.221  10.465  0.1413 -0.0082  0.4874
   90SAPS   C22 8703   1.293   6.011  10.344 -0.4524  0.3763 -0.1692
   90SAPS   H2R 8704   1.368   5.934  10.315 -1.0262 -0.7779  1.2814
   90SAPS   H2S 8705   1.208   5.961  10.395 -0.0951 -1.6781 -1.4755
   90SAPS    C3 8706   1.654   6.222  10.498 -0.4325 -0.2917 -0.7610
   90SAPS    HX 8707   1.712   6.275  10.577  1.7147 -2.2802 -0.9179
   90SAPS    HY 8708   1.590   6.298  10.448 -1.3872 -0.0337  0.7724
   90SAPS   O31 8709   1.741   6.151  10.412 -0.3558  0.2328 -0.2509
   90SAPS   C31 8710   1.807   6.229  10.325 -0.3300  0.5045  0.9979
   90SAPS   O32 8711   1.802   6.348  10.332 -0.1362  0.2159 -0.3351
   90SAPS   C32 8712   1.892   6.153  10.225 -0.2312 -0.6087  0.0137
   90SAPS   H2X 8713   1.870   6.044  10.232 -0.6553 -0.5319 -0.0850
   90SAPS   H2Y 8714   1.996   6.160  10.262 -0.3558 -0.9441  0.4428
   90SAPS   C23 8715   1.240   6.075  10.213  0.0100 -0.2818 -0.4531
   90SAPS   H3R 8716   1.174   6.152  10.261  1.5257  2.6741 -2.7705
   90SAPS   H3S 8717   1.192   5.996  10.153  0.4005 -0.7945 -0.0946
   90SAPS   C24 8718   1.352   6.136  10.139 -0.0450  0.0494 -0.1882
   90SAPS   H4R 8719   1.404   6.211  10.202  0.3467 -0.8045  0.5268
   90SAPS   H4S 8720   1.296   6.202  10.070 -2.4307  0.4675  1.9924
   90SAPS   C25 8721   1.453   6.041  10.078  0.0013  0.3035  0.0786
   90SAPS   H5R 8722   1.521   5.999  10.153 -0.7470  0.3218  0.7865
   90SAPS   C26 8723   1.464   6.017   9.945 -0.2901 -0.4648  0.3773
   90SAPS   H6R 8724   1.532   5.937   9.911  1.2553  0.5928  0.8638
   90SAPS   C27 8725   1.393   6.080   9.827 -0.1214 -0.1116  0.0675
   90SAPS   H7R 8726   1.319   6.161   9.844 -1.3074 -1.3843  1.2776
   90SAPS   H7S 8727   1.344   5.995   9.774  2.7093 -3.1967  1.9257
   90SAPS   C28 8728   1.503   6.119   9.734 -0.6109 -0.6998  0.0459
   90SAPS   H8R 8729   1.576   6.182   9.787 -0.9163  0.9851 -1.4733
   90SAPS   C29 8730   1.518   6.104   9.600  0.6963  0.0181  0.6796
   90SAPS   H9R 8731   1.614   6.133   9.555  0.3402  1.1297  0.6177
   90SAPS  C210 8732   1.423   6.035   9.508 -0.4466 -0.2240 -0.3391
   90SAPS  H10R 8733   1.397   6.098   9.420 -2.5864  0.4491  0.7226
   90SAPS  H10S 8734   1.323   6.012   9.549 -0.6137  0.6808 -0.2197
   90SAPS  C211 8735   1.490   5.901   9.466 -0.6566 -0.0366 -0.4217
   90SAPS  H11R 8736   1.497   5.834   9.553 -0.3444  0.3484 -0.1457
   90SAPS  C212 8737   1.539   5.879   9.338  0.0348  0.1312 -0.7436
   90SAPS  H12R 8738   1.586   5.783   9.314  0.7464  0.4415 -0.6046
   90SAPS  C213 8739   1.545   5.985   9.229 -0.4988  0.0712 -0.4263
   90SAPS  H13R 8740   1.570   6.085   9.269 -2.4782 -0.3717  2.1864
   90SAPS  H13S 8741   1.445   5.992   9.181 -0.8442  1.2365  0.4300
   90SAPS  C214 8742   1.651   5.937   9.137 -0.8204 -0.2613 -0.5080
   90SAPS  H14R 8743   1.748   5.914   9.182 -1.8858 -1.5583  1.2638
   90SAPS  C215 8744   1.639   5.925   9.002 -0.5857 -0.2082  0.4644
   90SAPS  H15R 8745   1.723   5.894   8.938 -0.1589 -0.0453  0.9428
   90SAPS  C216 8746   1.518   5.953   8.916  0.1653 -0.4948 -0.1265
   90SAPS  H16R 8747   1.462   6.035   8.965  0.3799  0.4702 -1.4492
   90SAPS  H16S 8748   1.468   5.855   8.898 -1.1551 -0.1538  1.3943
   90SAPS  C217 8749   1.542   6.006   8.773 -0.0689 -0.1200  0.1346
   90SAPS  H17R 8750   1.609   6.095   8.775 -3.1361  2.3568  2.3026
   90SAPS  H17S 8751   1.443   6.043   8.739  0.5012 -0.6277 -2.2887
   90SAPS  C218 8752   1.604   5.899   8.676  0.0695  0.1939 -0.1988
   90SAPS  H18R 8753   1.531   5.817   8.660  0.5955 -0.1133 -1.1446
   90SAPS  H18S 8754   1.699   5.870   8.726 -0.7742  0.4200  1.5880
   90SAPS  C219 8755   1.644   5.951   8.540 -0.3315  0.3148 -0.3524
   90SAPS  H19R 8756   1.671   6.059   8.541 -0.4927  0.4067 -2.5512
   90SAPS  H19S 8757   1.554   5.946   8.476 -0.4435 -1.4566 -0.1283
   90SAPS  C220 8758   1.760   5.871   8.479  0.8915  0.6561  0.0354
   90SAPS  H20R 8759   1.817   5.932   8.406 -0.5018 -0.0202 -1.6925
   90SAPS  H20S 8760   1.715   5.785   8.424  0.8316 -0.1412  1.3010
   90SAPS  H20T 8761   1.836   5.828   8.548 -1.6225 -1.8443  1.4638
   90SAPS   C33 8762   1.906   6.223  10.088 -0.2606  0.0445  0.7272
   90SAPS   H3X 8763   2.008   6.196  10.052 -1.5846 -4.1169 -0.3970
   90SAPS   H3Y 8764   1.893   6.334  10.089 -0.7411  0.2565 -4.3839
   90SAPS   C34 8765   1.816   6.167   9.977 -0.0554 -0.1997 -0.4578
   90SAPS   H4X 8766   1.716   6.209  10.004  0.2645 -0.2882  0.9667
   90SAPS   H4Y 8767   1.824   6.058   9.996  0.8075  0.1281  1.2834
   90SAPS   C35 8768   1.848   6.202   9.830 -0.0678  0.1690  0.1179
   90SAPS   H5X 8769   1.779   6.146   9.763  0.9905 -1.1447  0.0782
   90SAPS   H5Y 8770   1.949   6.161   9.805 -1.3093 -3.3756  0.3683
   90SAPS   C36 8771   1.844   6.351   9.809 -1.3475 -0.1423  0.1058
   90SAPS   H6X 8772   1.911   6.394   9.887  1.2379  0.6914 -2.4260
   90SAPS   H6Y 8773   1.738   6.382   9.822 -1.1445  0.1743  1.0731
   90SAPS   C37 8774   1.900   6.388   9.666 -0.3675 -0.3439  0.0841
   90SAPS   H7X 8775   2.006   6.358   9.649 -0.2354 -1.6821  2.7786
   90SAPS   H7Y 8776   1.896   6.497   9.649  0.2307 -0.1188  1.3213
   90SAPS   C38 8777   1.805   6.325   9.561  0.4693  0.7219 -1.0276
   90SAPS   H8X 8778   1.701   6.318   9.599  1.9565 -1.3989  3.5368
   90SAPS   H8Y 8779   1.830   6.217   9.552  0.3369  0.7399 -1.6425
   90SAPS   C39 8780   1.822   6.388   9.421  0.1785  0.2801  0.1996
   90SAPS   H9X 8781   1.918   6.364   9.370 -0.2009  1.9682 -1.3942
   90SAPS   H9Y 8782   1.819   6.498   9.433  2.5808  0.6261 -1.6523
   90SAPS  C310 8783   1.717   6.343   9.317 -0.6251  0.4721 -0.5111
   90SAPS  H10X 8784   1.621   6.375   9.364 -0.5715 -1.3896  0.9773
   90SAPS  H10Y 8785   1.714   6.232   9.309 -1.0218  0.1921  2.4920
   90SAPS  C311 8786   1.743   6.402   9.178  0.3943  0.2039 -0.3884
   90SAPS  H11X 8787   1.728   6.512   9.176 -1.4002  0.0073  0.4869
   90SAPS  H11Y 8788   1.656   6.366   9.119 -0.1995  0.0473  0.5758
   90SAPS  C312 8789   1.873   6.356   9.106 -1.0526 -0.8378 -0.3347
   90SAPS  H12X 8790   1.962   6.372   9.171 -1.1463  1.5729 -0.7122
   90SAPS  H12Y 8791   1.894   6.423   9.020 -2.4518  1.8051  1.2340
   90SAPS  C313 8792   1.871   6.218   9.056 -0.2660  0.2907 -0.4703
   90SAPS  H13X 8793   1.789   6.200   8.983  0.9833 -0.5398 -1.7304
   90SAPS  H13Y 8794   1.847   6.150   9.140 -0.3484 -0.2707 -0.9344
   90SAPS  C314 8795   2.005   6.186   8.982  0.8992  0.2973  0.3740
   90SAPS  H14X 8796   2.099   6.192   9.040  0.1486  0.5144  1.5944
   90SAPS  H14Y 8797   2.000   6.251   8.891 -1.5548 -0.2739  0.0202
   90SAPS  C315 8798   1.984   6.041   8.930  0.1187 -0.1087 -0.6167
   90SAPS  H15X 8799   1.885   6.037   8.880  0.7643 -2.9693 -1.8570
   90SAPS  H15Y 8800   1.987   5.961   9.007 -0.9554 -0.1702 -0.6268
   90SAPS  C316 8801   2.091   6.008   8.823 -0.7215  0.0856  0.2477
   90SAPS  H16X 8802   2.183   6.019   8.885 -1.2528  2.9025  0.6762
   90SAPS  H16Y 8803   2.098   6.089   8.747 -1.1315 -0.2017 -0.1032
   90SAPS  C317 8804   2.078   5.863   8.776  0.0515  0.9416  0.7608
   90SAPS  H17X 8805   1.972   5.845   8.747 -0.3296  0.4792  2.3735
   90SAPS  H17Y 8806   2.110   5.786   8.849 -0.8807  0.7805  1.0127
   90SAPS  C318 8807   2.171   5.838   8.654  0.0665 -0.1654  0.2561
   90SAPS  H18X 8808   2.264   5.888   8.688  0.7542 -1.2122 -0.0345
   90SAPS  H18Y 8809   2.130   5.876   8.558 -0.3961  0.2597  0.6145
   90SAPS  H18Z 8810   2.188   5.729   8.646 -1.0577 -0.2120 -2.3111
   91SAPS     N 8811   0.352   4.268   5.969  1.1586 -0.1811 -0.1962
   91SAPS   HN1 8812   0.364   4.234   6.066 -0.8519  1.0853  0.5768
   91SAPS   HN2 8813   0.431   4.331   5.945  0.2752  0.9515 -0.2605
   91SAPS   HN3 8814   0.267   4.328   5.962  1.3738  0.0553 -0.9425
   91SAPS   C12 8815   0.345   4.159   5.872 -0.3249  0.4680  0.0469
   91SAPS  H12A 8816   0.313   4.197   5.776  2.0154 -1.0327 -1.4108
   91SAPS   C13 8817   0.477   4.088   5.837  0.2140 -0.0495  0.2773
   91SAPS  O13A 8818   0.583   4.140   5.876 -0.1831 -0.2305 -0.0561
   91SAPS  O13B 8819   0.470   3.998   5.747  0.3002 -0.0134 -0.0420
   91SAPS   C11 8820   0.234   4.056   5.916 -0.7216 -0.6982 -0.0676
   91SAPS  H11A 8821   0.260   4.015   6.016  0.4001 -0.8045 -0.3866
   91SAPS  H11B 8822   0.233   3.961   5.858 -0.3096 -1.3300  0.9309
   91SAPS     P 8823  -0.017   4.024   5.952 -0.5485 -0.1825  0.2161
   91SAPS   O13 8824  -0.149   4.074   5.898  0.2575  0.3499  0.4652
   91SAPS   O14 8825   0.019   3.891   5.902 -0.3464 -0.5338  0.3466
   91SAPS   O12 8826   0.106   4.121   5.899 -0.4655  0.6764  0.2488
   91SAPS   O11 8827  -0.006   4.045   6.112 -0.5003 -0.0779  0.2354
   91SAPS    C1 8828   0.025   4.175   6.158 -0.2421  0.1051  0.5407
   91SAPS    HA 8829   0.131   4.206   6.156 -0.4338  0.8088  0.7719
   91SAPS    HB 8830  -0.026   4.253   6.096  1.0203 -0.9034 -1.8983
   91SAPS    C2 8831  -0.023   4.209   6.303  0.2646  0.0483 -0.2404
   91SAPS    HS 8832  -0.024   4.319   6.322 -1.8400 -0.2570  1.9646
   91SAPS   O21 8833   0.057   4.139   6.399 -0.4184  0.4270  0.0495
   91SAPS   C21 8834   0.173   4.199   6.437  0.6546  0.2798 -0.4351
   91SAPS   O22 8835   0.226   4.294   6.385  0.0006 -0.0673 -0.9136
   91SAPS   C22 8836   0.242   4.106   6.535 -0.4640 -0.1818  0.1486
   91SAPS   H2R 8837   0.168   4.036   6.581  1.2213 -1.9073  0.3618
   91SAPS   H2S 8838   0.320   4.042   6.490  2.2300 -0.4691  4.6113
   91SAPS    C3 8839  -0.168   4.166   6.326  0.5347 -0.2553  0.2831
   91SAPS    HX 8840  -0.172   4.063   6.283 -2.0663 -0.5032  0.9570
   91SAPS    HY 8841  -0.231   4.228   6.259 -1.3208 -0.2090  1.9929
   91SAPS   O31 8842  -0.209   4.161   6.461 -0.6254 -0.2562 -0.3698
   91SAPS   C31 8843  -0.265   4.266   6.509  0.4038 -0.0061 -0.5849
   91SAPS   O32 8844  -0.292   4.365   6.443 -0.3215 -0.0929 -0.2185
   91SAPS   C32 8845  -0.310   4.243   6.653  0.4541 -0.1894 -0.1664
   91SAPS   H2X 8846  -0.238   4.186   6.714  1.2403 -1.3488 -2.0770
   91SAPS   H2Y 8847  -0.405   4.186   6.660  1.4610 -1.7610  1.2886
   91SAPS   C23 8848   0.316   4.187   6.643 -0.3398 -0.2440 -0.0092
   91SAPS   H3R 8849   0.384   4.269   6.611 -0.3508 -0.4651 -0.6119
   91SAPS   H3S 8850   0.380   4.118   6.702  0.3979  0.1037 -0.3890
   91SAPS   C24 8851   0.220   4.248   6.749 -0.4098 -0.0824 -0.3406
   91SAPS   H4R 8852   0.164   4.337   6.715  0.6416  0.4009 -0.8563
   91SAPS   H4S 8853   0.289   4.277   6.831  0.2940 -0.8358 -0.6506
   91SAPS   C25 8854   0.114   4.154   6.808  0.1472  0.0807 -0.1566
   91SAPS   H5R 8855   0.037   4.142   6.730 -0.0489  1.7173 -0.2512
   91SAPS   C26 8856   0.124   4.078   6.918 -0.6024 -0.1379 -0.5946
   91SAPS   H6R 8857   0.042   4.007   6.938  1.5177 -3.0975 -1.6402
   91SAPS   C27 8858   0.244   4.084   7.018 -0.1736  0.1041  0.3975
   91SAPS   H7R 8859   0.329   4.145   6.981 -0.7414 -0.3900 -1.8799
   91SAPS   H7S 8860   0.289   3.983   7.032  0.8910  0.3211 -1.2954
   91SAPS   C28 8861   0.194   4.141   7.147  1.1014  0.4775 -0.2326
   91SAPS   H8R 8862   0.146   4.237   7.124  3.2468  0.9936 -3.1685
   91SAPS   C29 8863   0.193   4.089   7.271 -0.1323 -0.7346 -0.3215
   91SAPS   H9R 8864   0.138   4.143   7.350 -0.8327 -2.5987  0.5052
   91SAPS  C210 8865   0.261   3.958   7.312  0.2594 -0.3376  0.6721
   91SAPS  H10R 8866   0.285   3.901   7.220  1.7994  0.2216  0.6967
   91SAPS  H10S 8867   0.190   3.906   7.380  1.0227 -3.1046 -0.5221
   91SAPS  C211 8868   0.385   3.991   7.389  0.3012 -0.3497 -0.0073
   91SAPS  H11R 8869   0.454   4.048   7.325  0.4996 -1.7058 -1.0481
   91SAPS  C212 8870   0.415   3.954   7.512 -0.2462 -0.1017 -0.2485
   91SAPS  H12R 8871   0.504   3.987   7.567 -0.5868  0.0530  0.2201
   91SAPS  C213 8872   0.327   3.874   7.608  0.5861  0.0736  0.1087
   91SAPS  H13R 8873   0.358   3.767   7.618  0.8558  0.1074 -0.3223
   91SAPS  H13S 8874   0.219   3.873   7.583  0.6334  1.5819 -0.2342
   91SAPS  C214 8875   0.337   3.950   7.736  0.2910  0.0778 -0.4771
   91SAPS  H14R 8876   0.298   4.053   7.730 -1.5809 -0.5854 -0.4389
   91SAPS  C215 8877   0.377   3.902   7.861  0.0865  0.3246 -0.1528
   91SAPS  H15R 8878   0.368   3.980   7.938  0.1034 -1.6307  1.9341
   91SAPS  C216 8879   0.412   3.765   7.909  0.3162 -0.1362 -0.8364
   91SAPS  H16R 8880   0.519   3.740   7.893 -0.2019 -1.9295 -1.8124
   91SAPS  H16S 8881   0.362   3.694   7.840 -0.9659  0.6017 -0.6841
   91SAPS  C217 8882   0.376   3.747   8.064  0.5853 -0.1899 -0.0125
   91SAPS  H17R 8883   0.377   3.641   8.098  2.4682 -0.0385  0.5327
   91SAPS  H17S 8884   0.276   3.793   8.081  0.0788 -1.0184 -0.6950
   91SAPS  C218 8885   0.484   3.828   8.150  0.4490 -0.6275 -0.1048
   91SAPS  H18R 8886   0.482   3.931   8.109 -1.6506 -0.3280  0.6290
   91SAPS  H18S 8887   0.584   3.782   8.140  0.3697 -0.5487 -1.4277
   91SAPS  C219 8888   0.447   3.830   8.294  0.0802  0.2441 -0.5675
   91SAPS  H19R 8889   0.425   3.729   8.334  0.8521  1.1851  2.4785
   91SAPS  H19S 8890   0.349   3.877   8.320  0.5923  1.0790 -0.1113
   91SAPS  C220 8891   0.549   3.900   8.376 -0.6117 -0.3148 -0.3785
   91SAPS  H20R 8892   0.526   3.892   8.484 -1.4744 -1.1688 -0.6028
   91SAPS  H20S 8893   0.569   4.006   8.349 -0.4503  0.3672  2.2025
   91SAPS  H20T 8894   0.643   3.842   8.365 -1.2134 -1.4258  0.1684
   91SAPS   C33 8895  -0.336   4.380   6.720 -0.1793 -0.2767 -0.6077
   91SAPS   H3X 8896  -0.397   4.374   6.812 -1.8942  3.5823 -1.2981
   91SAPS   H3Y 8897  -0.403   4.443   6.657 -0.2238  1.2648  0.9097
   91SAPS   C34 8898  -0.202   4.456   6.741 -0.2474 -0.0195  0.4443
   91SAPS   H4X 8899  -0.150   4.467   6.644 -1.0890 -1.8379 -0.2545
   91SAPS   H4Y 8900  -0.137   4.390   6.802  0.4427 -0.8342 -1.1154
   91SAPS   C35 8901  -0.239   4.580   6.816  0.2292  0.7556  0.1426
   91SAPS   H5X 8902  -0.312   4.545   6.892 -0.4606 -0.0093 -0.8462
   91SAPS   H5Y 8903  -0.292   4.659   6.758 -1.5436 -0.7322 -0.3296
   91SAPS   C36 8904  -0.110   4.648   6.871 -0.0695  0.6722 -0.9146
   91SAPS   H6X 8905  -0.149   4.740   6.921 -0.2184  0.0663  0.1282
   91SAPS   H6Y 8906  -0.040   4.682   6.792  0.3251 -0.2601 -0.9793
   91SAPS   C37 8907  -0.034   4.571   6.978  0.1781 -0.2795  0.4296
   91SAPS   H7X 8908   0.073   4.595   6.963 -0.3249  1.1722 -1.1594
   91SAPS   H7Y 8909  -0.043   4.462   6.958  2.9252 -0.3052 -1.0946
   91SAPS   C38 8910  -0.069   4.611   7.119  0.5649  0.1107 -0.0317
   91SAPS   H8X 8911  -0.176   4.583   7.131  0.5424 -0.1602 -0.7891
   91SAPS   H8Y 8912  -0.075   4.720   7.137  0.8415  0.3453 -1.2775
   91SAPS   C39 8913   0.020   4.542   7.220 -0.3785 -0.2192 -0.4662
   91SAPS   H9X 8914   0.126   4.575   7.213  0.0236 -1.1809  0.7398
   91SAPS   H9Y 8915   0.016   4.437   7.186 -0.8717 -0.6042  0.7432
   91SAPS  C310 8916  -0.036   4.555   7.361  0.0483  0.0122 -0.2279
   91SAPS  H10X 8917  -0.140   4.519   7.367 -1.2987  3.6417  1.0451
   91SAPS  H10Y 8918  -0.053   4.662   7.387 -1.5075 -0.2218 -0.1935
   91SAPS  C311 8919   0.056   4.485   7.461 -0.0773  0.0135  0.4625
   91SAPS  H11X 8920   0.162   4.516   7.455  0.4942 -1.5556  1.7293
   91SAPS  H11Y 8921   0.043   4.377   7.440 -4.2141  0.8106 -2.4131
   91SAPS  C312 8922   0.008   4.505   7.607 -0.2683 -0.4798 -0.7600
   91SAPS  H12X 8923  -0.094   4.465   7.624  0.1828 -1.1641  0.5486
   91SAPS  H12Y 8924   0.008   4.614   7.629 -0.0927 -1.1170  3.1770
   91SAPS  C313 8925   0.096   4.446   7.717  0.7990  0.1991 -0.3202
   91SAPS  H13X 8926   0.194   4.498   7.724  0.4658  1.0476 -1.6625
   91SAPS  H13Y 8927   0.120   4.339   7.699  0.2408 -0.4403  2.3021
   91SAPS  C314 8928   0.036   4.439   7.860 -0.2957  0.5124  0.3115
   91SAPS  H14X 8929   0.123   4.413   7.924 -1.3056 -1.5287  0.9323
   91SAPS  H14Y 8930  -0.040   4.359   7.866  3.8859 -3.9416 -0.1973
   91SAPS  C315 8931  -0.015   4.572   7.910  0.0737  0.4296 -1.1606
   91SAPS  H15X 8932  -0.087   4.614   7.836 -0.1406  2.3809  0.0645
   91SAPS  H15Y 8933   0.065   4.648   7.921  0.8044 -0.3015 -1.3635
   91SAPS  C316 8934  -0.101   4.560   8.038  0.6494  0.1509 -0.2219
   91SAPS  H16X 8935  -0.053   4.486   8.106 -0.5579 -0.1903  0.2783
   91SAPS  H16Y 8936  -0.201   4.514   8.028 -0.0445  1.0521  1.8396
   91SAPS  C317 8937  -0.125   4.679   8.131  0.0279 -0.8411 -0.3211
   91SAPS  H17X 8938  -0.201   4.665   8.210 -0.9738  0.6902 -0.9585
   91SAPS  H17Y 8939  -0.174   4.764   8.079 -2.0682 -1.0248  1.2547
   91SAPS  C318 8940   0.006   4.746   8.191 -0.0319 -0.0589 -0.2885
   91SAPS  H18X 8941   0.068   4.670   8.244 -1.5013  0.7881  2.8862
   91SAPS  H18Y 8942  -0.021   4.819   8.270  0.5459 -1.5212  1.3255
   91SAPS  H18Z 8943   0.058   4.806   8.114 -1.3421  1.0070 -0.3855
   92SAPS     N 8944   5.707   1.906   6.727 -0.2804  0.3976  0.8969
   92SAPS   HN1 8945   5.809   1.897   6.745  0.7069  3.1411 -2.1908
   92SAPS   HN2 8946   5.666   1.961   6.805  1.1740  1.7160  0.8004
   92SAPS   HN3 8947   5.656   1.816   6.731 -1.7805  1.1843  0.3281
   92SAPS   C12 8948   5.684   1.980   6.609 -0.6355 -1.1924 -0.5404
   92SAPS  H12A 8949   5.730   1.919   6.532 -1.4245  0.5133 -2.4776
   92SAPS   C13 8950   5.534   2.008   6.576  0.0508 -0.2401 -0.0586
   92SAPS  O13A 8951   5.448   1.968   6.656 -0.3319  0.1718 -0.0857
   92SAPS  O13B 8952   5.512   2.088   6.478 -0.0571 -0.5184 -0.1006
   92SAPS   C11 8953   5.744   2.122   6.621  0.4760  0.4340 -0.6603
   92SAPS  H11A 8954   5.673   2.180   6.685 -0.4385 -0.2941 -0.9864
   92SAPS  H11B 8955   5.729   2.166   6.520 -0.5186 -1.2509 -1.2853
   92SAPS     P 8956   5.969   2.238   6.635 -0.0707 -0.1076 -0.1536
   92SAPS   O13 8957   6.114   2.205   6.647  0.1782  0.1855 -0.1512
   92SAPS   O14 8958   5.919   2.305   6.511 -0.1919  0.1176 -0.0498
   92SAPS   O12 8959   5.877   2.116   6.670  0.0408  0.7030  0.1743
   92SAPS   O11 8960   5.920   2.352   6.739  0.4481  0.2831  0.8607
   92SAPS    C1 8961   5.928   2.317   6.881 -0.2613 -0.1146 -0.0665
   92SAPS    HA 8962   5.906   2.209   6.899  1.3311 -1.0030 -2.8983
   92SAPS    HB 8963   6.029   2.339   6.921 -0.8922  0.8273  1.0667
   92SAPS    C2 8964   5.827   2.407   6.954  0.5457  0.0939  0.7403
   92SAPS    HS 8965   5.841   2.513   6.921  0.0357  0.7510  2.5143
   92SAPS   O21 8966   5.839   2.398   7.094  0.6477 -0.5525 -0.2775
   92SAPS   C21 8967   5.793   2.293   7.155 -0.3209 -0.3669  0.1754
   92SAPS   O22 8968   5.764   2.186   7.103  0.9090  0.3789  0.3860
   92SAPS   C22 8969   5.800   2.327   7.304 -0.3671  0.5151  0.6524
   92SAPS   H2R 8970   5.886   2.396   7.319  1.8787 -2.5710  4.0379
   92SAPS   H2S 8971   5.708   2.385   7.327 -0.1811  0.4917  1.4939
   92SAPS    C3 8972   5.690   2.373   6.905  0.2040  0.4774 -0.8349
   92SAPS    HX 8973   5.682   2.263   6.893 -1.4017  0.7772 -2.9904
   92SAPS    HY 8974   5.679   2.401   6.799  0.4498  2.3404 -0.4013
   92SAPS   O31 8975   5.574   2.417   6.982 -0.0451 -0.2193  0.6888
   92SAPS   C31 8976   5.536   2.547   6.961 -0.0098 -0.1642  0.7928
   92SAPS   O32 8977   5.603   2.627   6.896  0.4100 -0.7129  0.5906
   92SAPS   C32 8978   5.395   2.578   7.025  0.0783 -0.1653  0.0362
   92SAPS   H2X 8979   5.323   2.559   6.942  1.7262 -1.2506 -1.2049
   92SAPS   H2Y 8980   5.386   2.688   7.032  1.0641  0.0084 -1.1277
   92SAPS   C23 8981   5.816   2.198   7.392 -1.0590 -0.2148 -0.6557
   92SAPS   H3R 8982   5.917   2.160   7.365 -0.6325 -0.7048  1.4672
   92SAPS   H3S 8983   5.739   2.120   7.373 -2.1677  1.0199 -1.4292
   92SAPS   C24 8984   5.816   2.234   7.545 -0.0015  0.3330  0.4563
   92SAPS   H4R 8985   5.818   2.134   7.593  1.1286 -0.5257 -1.3069
   92SAPS   H4S 8986   5.722   2.284   7.578 -0.9059 -2.3761  2.3846
   92SAPS   C25 8987   5.944   2.317   7.573  0.8154 -0.0011  0.0706
   92SAPS   H5R 8988   5.936   2.418   7.529 -1.0140 -0.7699 -1.5254
   92SAPS   C26 8989   6.042   2.281   7.646 -1.2793 -0.1741  0.3360
   92SAPS   H6R 8990   6.111   2.364   7.664 -3.1795  1.4262  0.5923
   92SAPS   C27 8991   6.069   2.146   7.711 -0.6581 -0.3427  0.5491
   92SAPS   H7R 8992   6.080   2.070   7.630 -0.0993 -0.6589  0.9126
   92SAPS   H7S 8993   5.973   2.118   7.758  0.0402 -0.6200  1.8789
   92SAPS   C28 8994   6.180   2.151   7.807 -0.0483  0.3937 -0.0887
   92SAPS   H8R 8995   6.273   2.159   7.748  0.9963  0.6110  1.5133
   92SAPS   C29 8996   6.177   2.144   7.942 -0.4755  1.2282 -0.3291
   92SAPS   H9R 8997   6.270   2.138   8.000 -1.7816 -2.3487  1.7396
   92SAPS  C210 8998   6.058   2.138   8.038 -0.9117 -0.3725 -0.0649
   92SAPS  H10R 8999   6.085   2.067   8.119  0.5059 -2.5145 -2.2793
   92SAPS  H10S 9000   5.970   2.117   7.973 -2.0668  0.7356  1.0786
   92SAPS  C211 9001   6.033   2.280   8.080  0.7554 -0.0003 -0.1851
   92SAPS  H11R 9002   5.970   2.338   8.010  2.3976  1.1890 -0.7401
   92SAPS  C212 9003   6.084   2.337   8.196  0.3892 -0.2387  0.3629
   92SAPS  H12R 9004   6.052   2.438   8.227  0.6714  0.8138 -2.4904
   92SAPS  C213 9005   6.161   2.276   8.307  0.2094 -0.6212 -0.1555
   92SAPS  H13R 9006   6.225   2.356   8.350  0.0622 -0.9351  0.6603
   92SAPS  H13S 9007   6.231   2.206   8.257 -0.2738 -0.8446 -0.5290
   92SAPS  C214 9008   6.079   2.208   8.415  0.0708  0.5958 -0.0066
   92SAPS  H14R 9009   5.991   2.152   8.378  0.7711 -1.1623  0.8751
   92SAPS  C215 9010   6.118   2.188   8.544  0.7797  0.3074  0.2716
   92SAPS  H15R 9011   6.057   2.130   8.615 -0.5923  0.7833 -0.4953
   92SAPS  C216 9012   6.244   2.247   8.610 -0.4798  0.2253 -0.0957
   92SAPS  H16R 9013   6.324   2.279   8.539  0.1459 -0.0777  0.4643
   92SAPS  H16S 9014   6.296   2.180   8.681 -0.0056  0.4586 -0.2171
   92SAPS  C217 9015   6.209   2.376   8.689 -0.2182 -0.2010  0.4133
   92SAPS  H17R 9016   6.302   2.423   8.726  1.3402 -1.1865 -1.9568
   92SAPS  H17S 9017   6.139   2.351   8.771  0.5415 -2.0745  0.5513
   92SAPS  C218 9018   6.141   2.487   8.606  0.3116 -0.3313 -0.9233
   92SAPS  H18R 9019   6.053   2.449   8.549 -0.7510 -0.9903  1.0578
   92SAPS  H18S 9020   6.217   2.533   8.540 -1.0697 -0.2723 -2.5539
   92SAPS  C219 9021   6.077   2.599   8.690  0.2581  0.1496  0.4341
   92SAPS  H19R 9022   6.003   2.554   8.759  0.5691 -0.6813  0.2320
   92SAPS  H19S 9023   6.023   2.670   8.624 -3.1809 -0.0980  2.7339
   92SAPS  C220 9024   6.177   2.680   8.771 -0.2658  1.1363 -0.1395
   92SAPS  H20R 9025   6.211   2.611   8.851  0.3354 -0.5320 -1.7742
   92SAPS  H20S 9026   6.116   2.761   8.818 -0.4553  0.3212  1.0747
   92SAPS  H20T 9027   6.267   2.713   8.715  0.9619 -1.3965  0.2161
   92SAPS   C33 9028   5.363   2.509   7.149 -0.5993 -0.0970 -1.1495
   92SAPS   H3X 9029   5.365   2.398   7.143  2.3670 -0.4337  2.4817
   92SAPS   H3Y 9030   5.264   2.546   7.181 -0.3199 -2.3524  2.8990
   92SAPS   C34 9031   5.456   2.537   7.269 -0.6008  0.1110 -0.1435
   92SAPS   H4X 9032   5.467   2.648   7.271 -0.9338  0.1568 -0.8458
   92SAPS   H4Y 9033   5.554   2.489   7.249 -0.2932  0.9770 -0.7848
   92SAPS   C35 9034   5.398   2.504   7.405  0.3000 -0.2143 -0.0619
   92SAPS   H5X 9035   5.378   2.395   7.404  0.8293 -0.3123 -1.0176
   92SAPS   H5Y 9036   5.304   2.563   7.400  0.0151 -0.7640 -1.9335
   92SAPS   C36 9037   5.485   2.540   7.519 -0.3471  0.2432  0.3860
   92SAPS   H6X 9038   5.532   2.637   7.491 -3.2279  1.4304 -0.6811
   92SAPS   H6Y 9039   5.562   2.460   7.531 -0.0002  0.1932 -1.8045
   92SAPS   C37 9040   5.420   2.544   7.655  0.0404  0.3736  0.1744
   92SAPS   H7X 9041   5.370   2.448   7.678 -0.1254  0.8613  1.9672
   92SAPS   H7Y 9042   5.348   2.628   7.653  0.2634  0.5714  0.4118
   92SAPS   C38 9043   5.517   2.573   7.770 -0.1575  0.7055  0.1214
   92SAPS   H8X 9044   5.531   2.683   7.783  0.7568  0.5934  0.1364
   92SAPS   H8Y 9045   5.619   2.544   7.738 -0.8552 -2.2479  0.2913
   92SAPS   C39 9046   5.494   2.496   7.904  0.2050 -0.1940 -0.1924
   92SAPS   H9X 9047   5.458   2.394   7.877  0.9641 -0.3159 -0.7555
   92SAPS   H9Y 9048   5.409   2.533   7.967 -3.2444 -2.0977 -3.3372
   92SAPS  C310 9049   5.630   2.486   7.982  0.4811  0.4495  0.3703
   92SAPS  H10X 9050   5.675   2.584   8.010 -0.0795  0.5410  0.9474
   92SAPS  H10Y 9051   5.693   2.435   7.905  1.9331  1.9929  0.4607
   92SAPS  C311 9052   5.629   2.402   8.109  0.3198 -0.3386  0.8116
   92SAPS  H11X 9053   5.732   2.401   8.151  0.8824  1.6441 -0.4131
   92SAPS  H11Y 9054   5.590   2.300   8.088  0.7943 -0.4823  0.6156
   92SAPS  C312 9055   5.551   2.484   8.214  0.0159  0.7184  0.3475
   92SAPS  H12X 9056   5.450   2.497   8.171  0.3389 -0.2598 -0.7632
   92SAPS  H12Y 9057   5.603   2.582   8.219  3.9599 -1.1135 -0.4253
   92SAPS  C313 9058   5.525   2.417   8.351 -0.4403 -0.0393  0.0304
   92SAPS  H13X 9059   5.477   2.319   8.333  1.0895 -0.8276  0.0977
   92SAPS  H13Y 9060   5.445   2.482   8.393 -0.8579  0.7287 -1.8192
   92SAPS  C314 9061   5.647   2.408   8.446  0.0958 -0.1649  0.2574
   92SAPS  H14X 9062   5.690   2.508   8.468 -0.1859  0.4854 -1.8932
   92SAPS  H14Y 9063   5.729   2.349   8.399  0.3544 -1.4853  2.2506
   92SAPS  C315 9064   5.614   2.333   8.568 -0.1085  0.1923  0.3013
   92SAPS  H15X 9065   5.602   2.224   8.549  0.5713  0.2266 -0.3553
   92SAPS  H15Y 9066   5.522   2.363   8.622  0.0054 -1.8723  1.7908
   92SAPS  C316 9067   5.724   2.357   8.671  0.2973 -0.4528  0.1431
   92SAPS  H16X 9068   5.725   2.464   8.703 -1.4469  0.2299 -1.8597
   92SAPS  H16Y 9069   5.820   2.338   8.618 -0.7954 -0.6745 -1.8509
   92SAPS  C317 9070   5.697   2.264   8.788 -0.3531 -0.2195 -0.1825
   92SAPS  H17X 9071   5.705   2.166   8.737  0.0727  1.6781 -4.1390
   92SAPS  H17Y 9072   5.596   2.269   8.834  0.6353 -0.5265  2.2025
   92SAPS  C318 9073   5.800   2.277   8.908  0.2843  0.7650  0.0141
   92SAPS  H18X 9074   5.789   2.187   8.971  1.1131  1.0686  0.6047
   92SAPS  H18Y 9075   5.775   2.375   8.955  1.6261  0.7473  0.8214
   92SAPS  H18Z 9076   5.901   2.269   8.864  0.6281  1.6627  0.6224
   93SAPS     N 9077   0.404   2.256   6.311  0.1620 -0.1001  0.2145
   93SAPS   HN1 9078   0.351   2.346   6.312  0.3566  0.0184  1.5172
   93SAPS   HN2 9079   0.470   2.254   6.391  1.2926  1.2374 -0.6228
   93SAPS   HN3 9080   0.471   2.270   6.233  1.1487 -0.3312  1.0073
   93SAPS   C12 9081   0.320   2.130   6.316 -0.8623  0.4894  0.2735
   93SAPS  H12A 9082   0.256   2.133   6.230 -1.0520 -0.9195  0.3297
   93SAPS   C13 9083   0.395   1.995   6.293  0.0797  0.1858 -0.0533
   93SAPS  O13A 9084   0.513   2.005   6.243  0.3622  0.2209 -0.1402
   93SAPS  O13B 9085   0.324   1.893   6.273 -0.2838 -0.2994  0.1998
   93SAPS   C11 9086   0.237   2.130   6.454  0.0478  0.0790  0.6717
   93SAPS  H11A 9087   0.301   2.151   6.542 -0.6438 -2.5907  1.9335
   93SAPS  H11B 9088   0.192   2.028   6.455  0.1355 -0.0007 -0.7631
   93SAPS     P 9089   0.138   2.364   6.521 -0.4126  0.0334 -0.5468
   93SAPS   O13 9090   0.236   2.456   6.451 -0.4955  0.1440 -0.4332
   93SAPS   O14 9091   0.008   2.426   6.555 -0.7666 -0.1654 -0.1676
   93SAPS   O12 9092   0.128   2.224   6.449  0.3384 -0.2912 -0.2064
   93SAPS   O11 9093   0.203   2.323   6.660  0.3674 -0.5095 -0.0703
   93SAPS    C1 9094   0.122   2.267   6.761  0.2967  0.2229  0.4219
   93SAPS    HA 9095   0.019   2.308   6.766  0.7843  2.7066 -4.0607
   93SAPS    HB 9096   0.114   2.159   6.734 -1.6943  0.4766 -0.1253
   93SAPS    C2 9097   0.178   2.290   6.905  0.0987  0.5242  0.2256
   93SAPS    HS 9098   0.118   2.236   6.980  2.7826  1.7884  3.5328
   93SAPS   O21 9099   0.186   2.424   6.938  0.0343 -0.2615  0.2561
   93SAPS   C21 9100   0.072   2.470   6.969  0.6165 -0.0319  0.0120
   93SAPS   O22 9101  -0.030   2.405   6.996  0.2074 -0.3875  0.2257
   93SAPS   C22 9102   0.076   2.623   6.975 -0.4133 -0.1379  0.7679
   93SAPS   H2R 9103   0.185   2.644   6.979 -0.3228  0.1162 -1.5377
   93SAPS   H2S 9104   0.036   2.669   6.882 -1.4759  0.4379  1.4869
   93SAPS    C3 9105   0.312   2.210   6.911 -0.8174  0.2340 -0.5186
   93SAPS    HX 9106   0.378   2.282   6.859 -1.0025 -0.5857 -1.9305
   93SAPS    HY 9107   0.317   2.121   6.845 -1.7781  0.9829 -1.6497
   93SAPS   O31 9108   0.351   2.182   7.039 -1.0471  0.2932 -0.9092
   93SAPS   C31 9109   0.329   2.053   7.085 -0.2113 -0.1915  0.3442
   93SAPS   O32 9110   0.290   1.962   7.019 -0.4269 -0.3919  0.8231
   93SAPS   C32 9111   0.355   2.053   7.239 -0.6780  0.0329  0.5004
   93SAPS   H2X 9112   0.311   2.149   7.273 -0.7011 -0.2933  1.4173
   93SAPS   H2Y 9113   0.465   2.069   7.240 -0.4821 -1.1287 -0.3480
   93SAPS   C23 9114  -0.015   2.688   7.084  0.0588 -0.6820  0.3002
   93SAPS   H3R 9115  -0.116   2.643   7.083 -0.7505  0.8101  3.1861
   93SAPS   H3S 9116  -0.028   2.792   7.049  0.5769 -1.4192 -2.2913
   93SAPS   C24 9117   0.040   2.686   7.229 -0.4181  0.4410  0.6086
   93SAPS   H4R 9118   0.044   2.585   7.274  0.8848 -0.8705 -2.2025
   93SAPS   H4S 9119  -0.033   2.745   7.289  0.5620  2.6822 -0.2653
   93SAPS   C25 9120   0.168   2.757   7.249 -0.4687 -0.1393  0.6477
   93SAPS   H5R 9121   0.254   2.727   7.188 -0.4913  2.2932 -0.6966
   93SAPS   C26 9122   0.188   2.854   7.343  0.0049  0.3364 -0.2825
   93SAPS   H6R 9123   0.287   2.903   7.345  0.8938 -1.3894  0.7743
   93SAPS   C27 9124   0.079   2.915   7.427 -0.1221  0.9026 -0.1018
   93SAPS   H7R 9125   0.034   2.832   7.486  0.8753  0.4237  0.0128
   93SAPS   H7S 9126   0.004   2.966   7.363  1.6767  0.3462 -2.8096
   93SAPS   C28 9127   0.132   3.016   7.526 -0.2036 -0.0617 -0.1558
   93SAPS   H8R 9128   0.214   3.078   7.487 -1.6080  0.0849 -3.1701
   93SAPS   C29 9129   0.078   3.056   7.640 -0.0134 -0.3706  0.5006
   93SAPS   H9R 9130   0.119   3.140   7.697 -1.0982  1.1155 -0.8397
   93SAPS  C210 9131  -0.052   2.989   7.690 -0.0195  0.0538 -0.1622
   93SAPS  H10R 9132  -0.097   2.923   7.614 -1.4123  0.3536  0.3764
   93SAPS  H10S 9133  -0.124   3.070   7.715 -0.0986 -0.6775  2.3517
   93SAPS  C211 9134  -0.018   2.912   7.816  0.1583  0.1202 -0.6739
   93SAPS  H11R 9135   0.043   2.821   7.803  0.3681  0.5358 -3.1719
   93SAPS  C212 9136  -0.051   2.948   7.940 -0.6359 -0.4998 -0.5242
   93SAPS  H12R 9137  -0.013   2.886   8.023 -1.2803 -0.9192 -0.5349
   93SAPS  C213 9138  -0.138   3.069   7.984  0.0028 -0.2899  0.0210
   93SAPS  H13R 9139  -0.186   3.105   7.891 -0.8308  0.2624  0.6577
   93SAPS  H13S 9140  -0.062   3.140   8.024  1.4437 -2.1728  0.8181
   93SAPS  C214 9141  -0.246   3.030   8.081  0.5632  0.2956  0.1108
   93SAPS  H14R 9142  -0.307   2.940   8.061  1.6993 -0.6311  0.6679
   93SAPS  C215 9143  -0.260   3.079   8.207 -0.2713  0.5588  0.2209
   93SAPS  H15R 9144  -0.346   3.054   8.270  0.2441  1.2025  1.2071
   93SAPS  C216 9145  -0.168   3.178   8.274 -0.0779  0.1025 -0.6440
   93SAPS  H16R 9146  -0.191   3.285   8.254 -1.0586  0.2088  0.9399
   93SAPS  H16S 9147  -0.072   3.149   8.225 -0.9699  0.2748 -2.6024
   93SAPS  C217 9148  -0.153   3.158   8.430 -0.6571 -0.2824 -0.1093
   93SAPS  H17R 9149  -0.103   3.061   8.448 -1.6523 -1.1236 -1.6508
   93SAPS  H17S 9150  -0.253   3.147   8.477  1.1767 -1.6510  3.9275
   93SAPS  C218 9151  -0.091   3.280   8.511 -0.6035 -0.0351 -0.3746
   93SAPS  H18R 9152  -0.101   3.263   8.620  1.5341  1.9608  0.2015
   93SAPS  H18S 9153  -0.145   3.372   8.484  2.2457  1.6951 -0.6360
   93SAPS  C219 9154   0.061   3.297   8.476  0.2351 -0.4308 -0.0240
   93SAPS  H19R 9155   0.097   3.384   8.536 -0.8039  1.0600 -1.4581
   93SAPS  H19S 9156   0.067   3.332   8.371  0.6850 -1.0770 -0.2134
   93SAPS  C220 9157   0.152   3.172   8.505 -0.1586 -0.5011  0.3939
   93SAPS  H20R 9158   0.129   3.096   8.427 -1.1064 -0.5315  0.6863
   93SAPS  H20S 9159   0.117   3.140   8.606 -1.5003  0.0076  0.1185
   93SAPS  H20T 9160   0.260   3.199   8.509 -0.2079 -0.0018 -1.0661
   93SAPS   C33 9161   0.322   1.921   7.325  0.1480  0.1471  0.7242
   93SAPS   H3X 9162   0.350   1.833   7.264 -1.9350  0.7758 -1.3104
   93SAPS   H3Y 9163   0.211   1.920   7.338  0.3723 -0.4745  2.8241
   93SAPS   C34 9164   0.387   1.917   7.461  0.0230  0.4699  0.0115
   93SAPS   H4X 9165   0.354   1.833   7.526  3.3497 -0.6898  0.3839
   93SAPS   H4Y 9166   0.363   2.016   7.506 -1.3081  0.1620  0.0397
   93SAPS   C35 9167   0.540   1.910   7.462  0.1855  0.7638  0.1553
   93SAPS   H5X 9168   0.595   1.997   7.422  0.5492  0.1932 -0.6096
   93SAPS   H5Y 9169   0.570   1.831   7.390 -0.1938 -0.0959  0.9140
   93SAPS   C36 9170   0.607   1.868   7.595  0.3809 -0.0379 -0.2943
   93SAPS   H6X 9171   0.712   1.903   7.589  1.1204 -2.2797 -1.7183
   93SAPS   H6Y 9172   0.615   1.757   7.596 -2.7029 -0.3744 -1.4329
   93SAPS   C37 9173   0.539   1.923   7.723  0.1935  0.0455 -0.2597
   93SAPS   H7X 9174   0.431   1.897   7.725 -1.1477  4.3679 -3.1157
   93SAPS   H7Y 9175   0.543   2.034   7.719  0.9938  0.0830  1.1595
   93SAPS   C38 9176   0.618   1.885   7.845 -0.0015 -0.0623  0.5680
   93SAPS   H8X 9177   0.725   1.915   7.837  0.2323 -1.2750 -1.6291
   93SAPS   H8Y 9178   0.636   1.776   7.855  0.5541  0.0772  1.1321
   93SAPS   C39 9179   0.555   1.935   7.973  0.1416  0.2499  0.0319
   93SAPS   H9X 9180   0.539   2.045   7.978 -1.6405  0.0002  0.7892
   93SAPS   H9Y 9181   0.628   1.917   8.055  1.2065  0.9329 -0.7328
   93SAPS  C310 9182   0.424   1.871   8.007  0.2285 -0.0834 -0.2709
   93SAPS  H10X 9183   0.447   1.765   8.027  1.2436  0.2787  0.5896
   93SAPS  H10Y 9184   0.346   1.884   7.929 -1.7328 -1.2728  1.4004
   93SAPS  C311 9185   0.374   1.936   8.138 -0.1879  0.1692  0.3168
   93SAPS  H11X 9186   0.316   2.024   8.105 -0.2729 -1.0608 -3.3378
   93SAPS  H11Y 9187   0.455   1.971   8.205 -1.5476  2.0793  1.0364
   93SAPS  C312 9188   0.284   1.834   8.215  0.2387  0.5987  0.4466
   93SAPS  H12X 9189   0.337   1.739   8.236 -0.7705  0.2588  1.6190
   93SAPS  H12Y 9190   0.202   1.795   8.151  1.4752 -1.5275  0.0477
   93SAPS  C313 9191   0.238   1.880   8.354  0.2176  0.1822  0.3675
   93SAPS  H13X 9192   0.323   1.879   8.425 -0.5710 -1.4703  1.3457
   93SAPS  H13Y 9193   0.160   1.808   8.386 -0.5865  0.6263 -0.5290
   93SAPS  C314 9194   0.191   2.026   8.345  0.0408  0.5182  0.1745
   93SAPS  H14X 9195   0.126   2.025   8.255  2.5415  0.6049 -1.7662
   93SAPS  H14Y 9196   0.275   2.093   8.316  1.5591 -1.7100 -0.9615
   93SAPS  C315 9197   0.106   2.065   8.474 -0.3302 -0.5073 -0.3772
   93SAPS  H15X 9198   0.179   2.055   8.557 -0.0058 -1.0733 -0.7199
   93SAPS  H15Y 9199   0.017   2.003   8.496  0.1536 -0.5011  1.7570
   93SAPS  C316 9200   0.071   2.214   8.484 -0.4434 -0.2181  0.2399
   93SAPS  H16X 9201  -0.014   2.230   8.414 -1.1428  4.1340  1.7695
   93SAPS  H16Y 9202   0.166   2.268   8.466  1.1932 -2.1294  2.4919
   93SAPS  C317 9203  -0.001   2.257   8.615  0.0660  0.4878 -0.6022
   93SAPS  H17X 9204  -0.018   2.366   8.603  1.4814  0.9042  0.8024
   93SAPS  H17Y 9205   0.068   2.262   8.702  2.5339  3.3724 -2.4814
   93SAPS  C318 9206  -0.127   2.179   8.638  0.2754 -0.2023 -0.2000
   93SAPS  H18X 9207  -0.212   2.230   8.587 -0.7827 -0.9642  0.7641
   93SAPS  H18Y 9208  -0.162   2.180   8.743  0.6692 -0.8159 -0.0598
   93SAPS  H18Z 9209  -0.129   2.071   8.614  0.2478  0.0859 -1.6391
   94SAPS     N 9210   6.206   4.277   6.059 -0.4317 -0.0086  0.2534
   94SAPS   HN1 9211   6.200   4.246   6.158 -0.8761 -2.2671 -0.4243
   94SAPS   HN2 9212   6.304   4.258   6.031  0.1001 -0.8450  2.4747
   94SAPS   HN3 9213   6.187   4.378   6.040  2.2100  0.3586 -0.9771
   94SAPS   C12 9214   6.113   4.204   5.967  0.0653  0.0308  0.0074
   94SAPS  H12A 9215   6.136   4.237   5.867 -0.5652  1.2194  0.2434
   94SAPS   C13 9216   6.119   4.051   5.968  0.4464  0.4716 -0.4089
   94SAPS  O13A 9217   6.220   3.997   6.022  0.0454 -0.1072  0.3926
   94SAPS  O13B 9218   6.036   3.984   5.900 -0.2175  0.0635 -0.2189
   94SAPS   C11 9219   5.965   4.257   6.003  0.1309 -0.2197 -0.3817
   94SAPS  H11A 9220   5.944   4.223   6.107  1.8427  2.2773  0.8731
   94SAPS  H11B 9221   5.894   4.210   5.932  1.2266  1.6338 -2.8283
   94SAPS     P 9222   5.829   4.472   6.045 -0.0794  0.4505  0.0054
   94SAPS   O13 9223   5.841   4.620   6.029 -0.0209  0.2026 -0.2717
   94SAPS   O14 9224   5.708   4.417   5.980 -0.6001 -0.1202  0.0233
   94SAPS   O12 9225   5.957   4.401   5.993 -0.4153 -0.3892 -0.1976
   94SAPS   O11 9226   5.820   4.426   6.193 -0.6343  0.3757 -0.0950
   94SAPS    C1 9227   5.912   4.479   6.293  0.4532 -0.5386 -0.1951
   94SAPS    HA 9228   5.948   4.407   6.370 -0.2476  0.9246  1.5672
   94SAPS    HB 9229   6.005   4.522   6.250  0.1302  2.0286  1.4686
   94SAPS    C2 9230   5.834   4.593   6.362  0.1403 -0.0290  0.0407
   94SAPS    HS 9231   5.819   4.671   6.284  2.0987  1.1312  0.7634
   94SAPS   O21 9232   5.909   4.649   6.465  0.2444  0.1541 -0.4653
   94SAPS   C21 9233   6.014   4.722   6.436  0.3944  0.3247  0.0752
   94SAPS   O22 9234   6.044   4.751   6.322  0.0835  0.4013  0.0661
   94SAPS   C22 9235   6.087   4.763   6.563  0.3423  0.2187 -0.4735
   94SAPS   H2R 9236   6.055   4.699   6.649 -0.9625  2.0991  0.5188
   94SAPS   H2S 9237   6.194   4.750   6.537 -0.1010 -0.7992 -1.8845
   94SAPS    C3 9238   5.695   4.541   6.411  0.6778 -0.5405 -0.0164
   94SAPS    HX 9239   5.645   4.483   6.331  0.9433  0.8895 -1.2691
   94SAPS    HY 9240   5.630   4.626   6.442 -0.3167 -0.9192 -0.9854
   94SAPS   O31 9241   5.704   4.452   6.529 -0.6021  0.2391  0.1501
   94SAPS   C31 9242   5.593   4.383   6.554 -0.1891 -0.5936  0.0417
   94SAPS   O32 9243   5.482   4.403   6.509  0.2918  0.2207  0.6402
   94SAPS   C32 9244   5.625   4.261   6.640 -0.0694 -0.1961 -0.1244
   94SAPS   H2X 9245   5.673   4.297   6.734 -1.6152  1.7259  0.0107
   94SAPS   H2Y 9246   5.698   4.201   6.583  2.3320  3.0260 -0.7274
   94SAPS   C23 9247   6.056   4.905   6.599  0.2696  0.3894 -0.1705
   94SAPS   H3R 9248   5.952   4.943   6.593 -0.1780 -0.7525  0.0863
   94SAPS   H3S 9249   6.116   4.964   6.526  0.2741 -1.2756 -1.5569
   94SAPS   C24 9250   6.114   4.944   6.733 -0.0421 -0.0665 -0.3194
   94SAPS   H4R 9251   6.077   5.043   6.766 -1.2827 -1.2328  2.0353
   94SAPS   H4S 9252   6.225   4.949   6.723  0.1518  0.3455  1.6401
   94SAPS   C25 9253   6.075   4.856   6.850 -0.0544 -0.3138 -0.3899
   94SAPS   H5R 9254   5.967   4.836   6.858  0.0008 -0.2650  0.4722
   94SAPS   C26 9255   6.150   4.806   6.946 -0.2623 -0.1964  0.7440
   94SAPS   H6R 9256   6.100   4.745   7.024  1.1432 -1.8500  0.4158
   94SAPS   C27 9257   6.302   4.825   6.966  0.4253  0.0343 -0.2796
   94SAPS   H7R 9258   6.317   4.935   6.964  1.0676 -0.0232 -3.5691
   94SAPS   H7S 9259   6.355   4.783   6.879  0.6596 -0.8196  0.2656
   94SAPS   C28 9260   6.367   4.766   7.087 -0.1212 -1.3600 -1.0544
   94SAPS   H8R 9261   6.410   4.665   7.077 -1.5820 -2.4767  2.3575
   94SAPS   C29 9262   6.379   4.832   7.208  0.3578  0.6024  0.2748
   94SAPS   H9R 9263   6.405   4.780   7.302  0.1549  0.8931  0.4935
   94SAPS  C210 9264   6.325   4.968   7.239 -0.4394 -0.8256  0.2796
   94SAPS  H10R 9265   6.218   4.981   7.211  0.0558 -0.6170 -1.6929
   94SAPS  H10S 9266   6.367   5.042   7.167 -0.6190 -0.4625  0.5490
   94SAPS  C211 9267   6.346   5.021   7.377  0.1637 -0.0621  0.3017
   94SAPS  H11R 9268   6.435   5.083   7.394 -1.0858  1.0882  3.7096
   94SAPS  C212 9269   6.270   5.008   7.486  0.3531  0.0772 -0.6760
   94SAPS  H12R 9270   6.318   5.057   7.571  1.2988  0.5130 -1.4449
   94SAPS  C213 9271   6.136   4.944   7.512  0.3853  0.0118 -0.2469
   94SAPS  H13R 9272   6.147   4.865   7.589 -0.5083  0.8544  0.7999
   94SAPS  H13S 9273   6.111   4.888   7.421  0.5454  1.0780 -0.9694
   94SAPS  C214 9274   6.034   5.048   7.541  0.2537  0.2651  0.2319
   94SAPS  H14R 9275   5.990   5.098   7.453 -0.7044 -1.2582 -0.1922
   94SAPS  C215 9276   6.017   5.096   7.671 -0.3521 -0.2944 -0.0890
   94SAPS  H15R 9277   5.946   5.178   7.690 -1.6985 -1.9836  2.9861
   94SAPS  C216 9278   6.092   5.049   7.794  0.3832 -0.0102  0.0369
   94SAPS  H16R 9279   6.191   5.097   7.802  0.8410 -0.7907 -0.7120
   94SAPS  H16S 9280   6.128   4.945   7.777 -0.9654 -0.5373  0.2513
   94SAPS  C217 9281   6.009   5.055   7.923  0.5600 -0.8044 -0.4175
   94SAPS  H17R 9282   5.937   4.971   7.912  0.1169 -0.2572 -2.0092
   94SAPS  H17S 9283   5.936   5.136   7.945 -1.4078 -2.9532  1.5566
   94SAPS  C218 9284   6.083   5.021   8.055  0.9907 -0.9016  0.0460
   94SAPS  H18R 9285   6.151   4.933   8.042  1.3793 -0.5765 -0.1338
   94SAPS  H18S 9286   6.005   5.007   8.133  1.1922 -2.4445  0.0169
   94SAPS  C219 9287   6.161   5.138   8.117  0.2287  0.2616  0.6157
   94SAPS  H19R 9288   6.104   5.233   8.127  0.0752  0.4810 -1.6715
   94SAPS  H19S 9289   6.247   5.157   8.050  0.3436 -1.5299  0.2043
   94SAPS  C220 9290   6.230   5.115   8.255 -0.5526 -0.1493 -0.8505
   94SAPS  H20R 9291   6.285   5.208   8.281  1.6257 -1.3331 -1.0228
   94SAPS  H20S 9292   6.318   5.050   8.234 -1.1172 -1.9628  1.9314
   94SAPS  H20T 9293   6.165   5.091   8.341  0.4222  0.5127  0.0909
   94SAPS   C33 9294   5.490   4.181   6.675  0.4056  0.3206 -0.1099
   94SAPS   H3X 9295   5.515   4.086   6.727 -0.0569 -1.0453 -2.2267
   94SAPS   H3Y 9296   5.467   4.138   6.575  1.4078  0.2643 -0.3283
   94SAPS   C34 9297   5.373   4.253   6.737 -0.6045  0.3230 -0.3368
   94SAPS   H4X 9298   5.294   4.177   6.749  1.8889 -2.0573  2.5050
   94SAPS   H4Y 9299   5.346   4.338   6.669  1.5148  2.3319  1.1781
   94SAPS   C35 9300   5.402   4.312   6.877  0.2151 -0.0197  0.2592
   94SAPS   H5X 9301   5.491   4.379   6.865  1.0991 -1.3512 -0.8917
   94SAPS   H5Y 9302   5.431   4.229   6.945 -1.3474 -1.0979 -0.3588
   94SAPS   C36 9303   5.284   4.383   6.941 -0.8465 -0.3896 -0.4045
   94SAPS   H6X 9304   5.206   4.318   6.986 -1.9997  0.1074 -1.6063
   94SAPS   H6Y 9305   5.247   4.452   6.861 -0.3701  1.2934  0.7684
   94SAPS   C37 9306   5.338   4.483   7.042 -0.2647  0.5152 -1.0742
   94SAPS   H7X 9307   5.252   4.541   7.082  0.9675  1.8989 -0.3248
   94SAPS   H7Y 9308   5.417   4.551   7.004 -2.9623  3.8474 -1.1507
   94SAPS   C38 9309   5.406   4.400   7.156 -0.4698  0.0068  0.4835
   94SAPS   H8X 9310   5.507   4.371   7.120  0.3103  1.7152  1.1972
   94SAPS   H8Y 9311   5.345   4.308   7.169 -0.2345 -0.3231 -0.6547
   94SAPS   C39 9312   5.420   4.465   7.287 -0.1378 -0.2840 -0.0096
   94SAPS   H9X 9313   5.323   4.507   7.321  1.1249  3.7779 -0.9082
   94SAPS   H9Y 9314   5.489   4.552   7.280  0.3217 -0.6353  0.1615
   94SAPS  C310 9315   5.480   4.368   7.394  0.2032  0.0052 -0.8422
   94SAPS  H10X 9316   5.590   4.357   7.391  0.1502 -0.4833 -1.0457
   94SAPS  H10Y 9317   5.427   4.273   7.375 -2.8454  0.5498  3.3881
   94SAPS  C311 9318   5.436   4.404   7.541 -0.1525 -0.8862  0.3420
   94SAPS  H11X 9319   5.325   4.396   7.544 -0.0887 -1.7674  0.4793
   94SAPS  H11Y 9320   5.470   4.510   7.550 -0.2378 -0.8660  0.4311
   94SAPS  C312 9321   5.497   4.304   7.634  0.2331 -0.1185 -0.5284
   94SAPS  H12X 9322   5.604   4.298   7.604  0.1390  0.1108 -0.9155
   94SAPS  H12Y 9323   5.460   4.201   7.615  2.8193 -1.5169  1.3220
   94SAPS  C313 9324   5.484   4.328   7.781  0.5824  0.2192 -0.1043
   94SAPS  H13X 9325   5.519   4.433   7.798 -0.6694  0.3118  2.3427
   94SAPS  H13Y 9326   5.551   4.248   7.818 -2.0071 -2.3446 -0.5729
   94SAPS  C314 9327   5.352   4.289   7.857 -0.4535  0.3633  0.4049
   94SAPS  H14X 9328   5.327   4.186   7.824  0.4527  1.6446 -5.2907
   94SAPS  H14Y 9329   5.276   4.350   7.805  0.6603  0.2371 -1.4386
   94SAPS  C315 9330   5.338   4.303   8.013 -0.1564  0.1488  0.6191
   94SAPS  H15X 9331   5.229   4.303   8.032 -0.4358  1.1119 -0.7698
   94SAPS  H15Y 9332   5.377   4.400   8.051 -0.4759  0.4875  0.1013
   94SAPS  C316 9333   5.387   4.177   8.091  0.3516  0.3172 -0.0695
   94SAPS  H16X 9334   5.498   4.171   8.085  0.5653  3.2404 -1.1577
   94SAPS  H16Y 9335   5.352   4.086   8.038  1.5912  0.4446 -1.1811
   94SAPS  C317 9336   5.324   4.181   8.232  0.1745 -0.0524  0.5010
   94SAPS  H17X 9337   5.214   4.184   8.217  0.2909 -1.3691 -0.8846
   94SAPS  H17Y 9338   5.349   4.278   8.280 -1.0696  0.7511 -0.4224
   94SAPS  C318 9339   5.347   4.054   8.313  0.1943  0.1964  0.6185
   94SAPS  H18X 9340   5.453   4.048   8.346  0.1945 -0.6167  0.5083
   94SAPS  H18Y 9341   5.338   3.961   8.253  0.6175  0.1098  0.6846
   94SAPS  H18Z 9342   5.280   4.044   8.401  0.7357  0.3533  1.0510
   95SAPS     N 9343   3.090   0.920   6.106  0.1208 -0.4220 -0.0604
   95SAPS   HN1 9344   3.004   0.978   6.100  1.7876  2.0524 -2.0447
   95SAPS   HN2 9345   3.071   0.831   6.056  1.6970 -1.2362  0.7112
   95SAPS   HN3 9346   3.111   0.904   6.207 -0.2072  2.0952  0.4640
   95SAPS   C12 9347   3.202   0.987   6.036 -0.0164 -0.1481  0.1893
   95SAPS  H12A 9348   3.283   0.916   6.033  0.4522  0.4290 -1.6955
   95SAPS   C13 9349   3.170   1.041   5.889  0.5257  0.2171 -0.0867
   95SAPS  O13A 9350   3.059   1.009   5.837  0.5379 -0.0475 -0.4477
   95SAPS  O13B 9351   3.258   1.084   5.810  0.3195  0.0434 -0.5811
   95SAPS   C11 9352   3.246   1.105   6.125  0.0257 -0.2659 -0.2490
   95SAPS  H11A 9353   3.173   1.188   6.111  1.4152  1.0189 -0.1610
   95SAPS  H11B 9354   3.342   1.126   6.074  1.6965  0.5136  2.9804
   95SAPS     P 9355   3.383   1.020   6.336  0.7984  0.1984 -0.3183
   95SAPS   O13 9356   3.350   0.914   6.429  0.3832  0.4852 -0.3067
   95SAPS   O14 9357   3.481   0.984   6.232  0.0513  0.7731 -0.6677
   95SAPS   O12 9358   3.257   1.062   6.264 -0.0488 -0.7003 -0.2810
   95SAPS   O11 9359   3.420   1.146   6.424  0.2366  0.3748  0.1359
   95SAPS    C1 9360   3.327   1.209   6.515 -0.4644 -0.2241 -0.0290
   95SAPS    HA 9361   3.257   1.270   6.455  0.7380  3.2079  1.7844
   95SAPS    HB 9362   3.270   1.132   6.572  2.9407 -2.6444  0.4545
   95SAPS    C2 9363   3.407   1.302   6.615  0.1436  0.2957 -0.0154
   95SAPS    HS 9364   3.456   1.365   6.537 -0.0186 -2.7526 -2.7918
   95SAPS   O21 9365   3.491   1.219   6.697  0.1170  0.3695  0.5611
   95SAPS   C21 9366   3.611   1.260   6.731  0.4503  0.2212 -0.4857
   95SAPS   O22 9367   3.657   1.369   6.711  0.2739 -0.8362  0.0236
   95SAPS   C22 9368   3.690   1.148   6.806  0.7931 -0.9225  0.1947
   95SAPS   H2R 9369   3.627   1.057   6.813  1.8179 -1.8918 -2.0561
   95SAPS   H2S 9370   3.778   1.113   6.747  1.8197 -0.4134  1.3816
   95SAPS    C3 9371   3.311   1.395   6.702 -0.0619  1.0316  0.0390
   95SAPS    HX 9372   3.261   1.461   6.629  1.8139  0.3824 -1.9656
   95SAPS    HY 9373   3.376   1.462   6.762  0.7344  0.0297  0.3304
   95SAPS   O31 9374   3.223   1.310   6.769  0.1971 -0.5825 -0.4781
   95SAPS   C31 9375   3.244   1.312   6.898 -0.3248 -0.3248 -0.0690
   95SAPS   O32 9376   3.341   1.353   6.954 -0.5322 -0.0217 -0.0240
   95SAPS   C32 9377   3.126   1.233   6.967  0.0863 -0.0381  0.8147
   95SAPS   H2X 9378   3.116   1.130   6.925 -0.6512  0.6455 -0.7880
   95SAPS   H2Y 9379   3.032   1.285   6.937  0.1435  1.4030  2.9812
   95SAPS   C23 9380   3.753   1.192   6.940 -0.5961  0.2415 -0.4179
   95SAPS   H3R 9381   3.840   1.254   6.908 -1.6546  1.8503 -0.3154
   95SAPS   H3S 9382   3.808   1.106   6.984 -0.1749  1.4240  1.4801
   95SAPS   C24 9383   3.658   1.260   7.041  0.4465  0.5526 -0.4748
   95SAPS   H4R 9384   3.595   1.329   6.981 -1.0348  0.3806  0.8266
   95SAPS   H4S 9385   3.718   1.324   7.110 -1.6202  1.4004  0.6134
   95SAPS   C25 9386   3.567   1.182   7.133 -0.3003 -0.6222 -0.2124
   95SAPS   H5R 9387   3.483   1.134   7.080  0.2852 -2.4953  0.4710
   95SAPS   C26 9388   3.571   1.172   7.269 -0.5243 -0.2126 -0.1519
   95SAPS   H6R 9389   3.507   1.099   7.321 -0.3667  1.2220  2.1831
   95SAPS   C27 9390   3.683   1.240   7.350  0.0190  0.6276  0.5419
   95SAPS   H7R 9391   3.641   1.266   7.450 -0.7554  2.0790 -0.1290
   95SAPS   H7S 9392   3.703   1.337   7.301 -0.7395  0.7424  0.4533
   95SAPS   C28 9393   3.806   1.153   7.353 -0.3568 -1.0377 -0.2274
   95SAPS   H8R 9394   3.876   1.156   7.268  0.8943  1.5983  0.7751
   95SAPS   C29 9395   3.845   1.083   7.454 -0.6014  0.1547 -0.7959
   95SAPS   H9R 9396   3.942   1.032   7.448 -0.4365 -0.0333  1.9377
   95SAPS  C210 9397   3.772   1.050   7.582  0.0177 -0.4491  0.0060
   95SAPS  H10R 9398   3.735   0.948   7.559  0.9110 -0.7270 -0.2497
   95SAPS  H10S 9399   3.684   1.117   7.596  0.2340 -0.3569  0.9942
   95SAPS  C211 9400   3.853   1.071   7.705 -0.8681 -0.4724  0.5428
   95SAPS  H11R 9401   3.945   1.130   7.697 -1.0354 -0.1123  1.1825
   95SAPS  C212 9402   3.814   1.030   7.829  0.2599 -0.0296 -0.5274
   95SAPS  H12R 9403   3.883   1.040   7.914 -1.2417 -0.3516  0.7790
   95SAPS  C213 9404   3.675   0.963   7.853 -0.7231  0.5307  0.8775
   95SAPS  H13R 9405   3.684   0.879   7.926  0.1880  1.2791  1.6565
   95SAPS  H13S 9406   3.644   0.901   7.766  1.7366  0.4029  0.0032
   95SAPS  C214 9407   3.556   1.041   7.890 -0.4496  0.1413 -0.8643
   95SAPS  H14R 9408   3.508   1.096   7.808 -2.0730  0.3473  0.1912
   95SAPS  C215 9409   3.498   1.045   8.010  0.2369 -0.2219 -0.5148
   95SAPS  H15R 9410   3.405   1.104   8.020 -0.4639 -1.4835  0.8529
   95SAPS  C216 9411   3.536   0.969   8.135  0.1474  0.1899  0.5156
   95SAPS  H16R 9412   3.644   0.977   8.159  0.1597  0.6475  0.3053
   95SAPS  H16S 9413   3.516   0.861   8.118  0.0956  0.5403 -1.9943
   95SAPS  C217 9414   3.459   0.999   8.265 -0.2310  0.3145 -0.6576
   95SAPS  H17R 9415   3.348   1.004   8.260 -0.3222  0.9827  1.3284
   95SAPS  H17S 9416   3.500   1.095   8.302 -2.1854  1.5450 -1.4939
   95SAPS  C218 9417   3.485   0.887   8.372  0.1659  0.4020 -0.3519
   95SAPS  H18R 9418   3.593   0.863   8.381  0.3249  0.5748 -1.6690
   95SAPS  H18S 9419   3.422   0.805   8.333 -2.7025  1.6883  1.2606
   95SAPS  C219 9420   3.448   0.920   8.517  0.3683 -0.3100 -0.7636
   95SAPS  H19R 9421   3.342   0.947   8.535  0.1933 -0.8466 -0.9821
   95SAPS  H19S 9422   3.515   1.007   8.538  1.3296  0.1622 -4.7825
   95SAPS  C220 9423   3.470   0.803   8.624  0.0038  0.4391 -0.4755
   95SAPS  H20R 9424   3.404   0.715   8.609 -1.5517  1.7547 -1.7934
   95SAPS  H20S 9425   3.453   0.845   8.726  0.9988 -1.1453  0.3867
   95SAPS  H20T 9426   3.577   0.771   8.626 -0.6989 -2.2565 -1.8255
   95SAPS   C33 9427   3.137   1.220   7.119  0.7227  0.1647  0.6736
   95SAPS   H3X 9428   3.150   1.326   7.151 -0.4595  0.8354 -0.9470
   95SAPS   H3Y 9429   3.216   1.151   7.155  1.0604 -0.5796 -1.4197
   95SAPS   C34 9430   3.010   1.170   7.184 -0.4644  0.2972 -0.0862
   95SAPS   H4X 9431   3.008   1.060   7.170 -0.9528 -0.0393  2.2732
   95SAPS   H4Y 9432   2.915   1.210   7.143 -0.1940 -0.4121 -1.4783
   95SAPS   C35 9433   3.021   1.193   7.338  0.1651 -0.1744 -0.0681
   95SAPS   H5X 9434   3.030   1.301   7.362  0.2086 -0.3039  0.5261
   95SAPS   H5Y 9435   3.117   1.154   7.378  0.2428  0.2755  0.1960
   95SAPS   C36 9436   2.908   1.133   7.418 -0.0185  0.6450  0.0896
   95SAPS   H6X 9437   2.929   1.024   7.412  2.0498  0.9113  1.5667
   95SAPS   H6Y 9438   2.813   1.161   7.368  1.4255  0.5246 -3.0048
   95SAPS   C37 9439   2.926   1.169   7.562 -0.1167 -0.4928 -0.2092
   95SAPS   H7X 9440   2.910   1.277   7.583 -0.0037 -0.8298  1.8280
   95SAPS   H7Y 9441   3.031   1.142   7.587 -0.2706 -2.0664 -1.1198
   95SAPS   C38 9442   2.834   1.093   7.655 -0.0203  0.3513  0.7250
   95SAPS   H8X 9443   2.882   0.993   7.664 -0.3096  0.0074 -1.1177
   95SAPS   H8Y 9444   2.735   1.066   7.611  0.7678 -0.4467 -0.6209
   95SAPS   C39 9445   2.830   1.148   7.804 -0.2298 -0.2948  0.2140
   95SAPS   H9X 9446   2.768   1.082   7.869 -0.0818  0.0146  0.6721
   95SAPS   H9Y 9447   2.786   1.250   7.812  1.3851  0.3462  1.2248
   95SAPS  C310 9448   2.968   1.147   7.867  0.8542  0.3599  0.0974
   95SAPS  H10X 9449   3.033   1.225   7.822  1.3312  0.9012  1.6786
   95SAPS  H10Y 9450   3.021   1.050   7.853  2.0956  1.2378 -1.8639
   95SAPS  C311 9451   2.950   1.171   8.020 -0.8341  0.0799  0.5697
   95SAPS  H11X 9452   2.898   1.088   8.071  0.1161  0.0668  1.5420
   95SAPS  H11Y 9453   2.884   1.260   8.022 -0.2094  0.6238 -1.0505
   95SAPS  C312 9454   3.082   1.209   8.094 -0.0841  0.6438  0.1855
   95SAPS  H12X 9455   3.125   1.300   8.046  0.1395  0.6527  0.4002
   95SAPS  H12Y 9456   3.159   1.131   8.078  0.2919  0.9885  0.3168
   95SAPS  C313 9457   3.054   1.228   8.250  0.0138 -0.4426  0.2203
   95SAPS  H13X 9458   3.026   1.128   8.290  1.8395 -0.7306  0.8811
   95SAPS  H13Y 9459   2.976   1.301   8.280 -0.6960 -0.4152 -1.5491
   95SAPS  C314 9460   3.184   1.266   8.317 -0.1775 -0.1296 -0.0160
   95SAPS  H14X 9461   3.203   1.375   8.313 -0.6314  0.0735  2.0207
   95SAPS  H14Y 9462   3.259   1.194   8.278 -1.0586 -2.1062  1.7594
   95SAPS  C315 9463   3.182   1.243   8.475  0.1144  0.0422  0.7121
   95SAPS  H15X 9464   3.141   1.140   8.484  1.1613 -0.6040 -1.2599
   95SAPS  H15Y 9465   3.103   1.311   8.514 -1.5916 -1.2319 -0.3845
   95SAPS  C316 9466   3.311   1.266   8.555 -0.2056 -0.8842 -0.4845
   95SAPS  H16X 9467   3.355   1.365   8.530  1.3233 -0.5997  2.7961
   95SAPS  H16Y 9468   3.392   1.192   8.532  0.0330  0.0550 -3.0533
   95SAPS  C317 9469   3.292   1.267   8.711  0.8436 -0.2347 -0.0441
   95SAPS  H17X 9470   3.239   1.355   8.751  1.6297  0.3526 -0.2676
   95SAPS  H17Y 9471   3.397   1.272   8.749  0.6835  1.4031  0.2486
   95SAPS  C318 9472   3.228   1.138   8.766 -0.1037  0.1702  0.4800
   95SAPS  H18X 9473   3.211   1.138   8.876 -0.2833 -0.8717  0.4549
   95SAPS  H18Y 9474   3.298   1.053   8.753  1.8147  2.0496 -3.4076
   95SAPS  H18Z 9475   3.128   1.122   8.722 -0.0235  1.3261 -0.1874
   96SAPS     N 9476   5.280   2.800   5.888  0.5865 -0.0003  0.9155
   96SAPS   HN1 9477   5.374   2.813   5.931  0.1292  0.8546  1.6780
   96SAPS   HN2 9478   5.291   2.742   5.803 -0.6770  1.1596 -0.0743
   96SAPS   HN3 9479   5.245   2.892   5.856 -1.3572 -1.2948 -0.9039
   96SAPS   C12 9480   5.183   2.735   5.987  0.2353  0.0554 -0.0734
   96SAPS  H12A 9481   5.086   2.756   5.944 -0.0531 -2.1391 -0.6250
   96SAPS   C13 9482   5.198   2.585   6.004  0.2475 -0.6964  0.3980
   96SAPS  O13A 9483   5.263   2.518   5.921 -0.4375 -0.3928  0.2341
   96SAPS  O13B 9484   5.124   2.524   6.083  0.1534 -0.4944 -0.0815
   96SAPS   C11 9485   5.203   2.806   6.127  0.2922 -0.3268  0.1422
   96SAPS  H11A 9486   5.309   2.780   6.148  0.0839 -1.0668  0.3022
   96SAPS  H11B 9487   5.128   2.761   6.195 -0.7767 -1.7066 -1.8254
   96SAPS     P 9488   5.279   3.053   6.200  0.1861  0.4326 -0.1372
   96SAPS   O13 9489   5.423   3.026   6.169  0.5324  0.5806 -0.3474
   96SAPS   O14 9490   5.216   3.187   6.181  0.3239 -0.0799 -0.6781
   96SAPS   O12 9491   5.180   2.951   6.119 -0.7203 -0.4336  0.2487
   96SAPS   O11 9492   5.254   3.018   6.355 -0.0675  0.3990 -0.2445
   96SAPS    C1 9493   5.121   3.004   6.396  0.4021 -0.1339 -0.3544
   96SAPS    HA 9494   5.044   3.067   6.347  0.3359  1.3173  1.4975
   96SAPS    HB 9495   5.089   2.902   6.367 -1.1650  0.9934 -2.8568
   96SAPS    C2 9496   5.102   3.024   6.547 -0.9593  0.4183 -0.1734
   96SAPS    HS 9497   5.097   3.131   6.578  0.8596  0.5844 -0.3266
   96SAPS   O21 9498   5.205   2.954   6.614  0.1904  0.2406 -0.2222
   96SAPS   C21 9499   5.283   3.022   6.689 -0.5802  0.1151  0.4692
   96SAPS   O22 9500   5.294   3.144   6.701 -0.1610 -0.1080 -0.6779
   96SAPS   C22 9501   5.362   2.920   6.783  0.8821 -1.1036 -0.6719
   96SAPS   H2R 9502   5.300   2.829   6.796  2.2969 -1.9039  0.9943
   96SAPS   H2S 9503   5.454   2.896   6.726  0.8880  0.0793 -1.1985
   96SAPS    C3 9504   4.957   2.970   6.585 -0.1755  0.0844 -0.0630
   96SAPS    HX 9505   4.940   2.873   6.535 -0.5212  1.0711 -1.9502
   96SAPS    HY 9506   4.890   3.042   6.532  0.1547  0.8988  0.5940
   96SAPS   O31 9507   4.920   2.954   6.721 -0.1302 -0.1614 -0.0807
   96SAPS   C31 9508   4.851   3.052   6.780 -0.1147  0.2377 -0.6525
   96SAPS   O32 9509   4.845   3.168   6.739  0.0655  0.5824  0.1681
   96SAPS   C32 9510   4.793   2.994   6.907 -1.2477 -0.0811 -0.1965
   96SAPS   H2X 9511   4.826   2.890   6.926 -2.7499 -0.3683  1.0840
   96SAPS   H2Y 9512   4.682   2.999   6.898 -1.1149  3.9223 -1.8651
   96SAPS   C23 9513   5.407   2.984   6.913  0.1385  0.1659  0.3525
   96SAPS   H3R 9514   5.483   3.063   6.891 -0.7518  0.6566 -1.0972
   96SAPS   H3S 9515   5.467   2.906   6.964 -0.2585 -0.9494 -0.8444
   96SAPS   C24 9516   5.293   3.038   7.013  0.4096  0.5653  1.0392
   96SAPS   H4R 9517   5.245   3.115   6.949  1.8894  0.5350 -0.1882
   96SAPS   H4S 9518   5.352   3.080   7.097  0.6720 -0.6897  1.5007
   96SAPS   C25 9519   5.197   2.931   7.059 -0.0165 -0.2639  0.4286
   96SAPS   H5R 9520   5.140   2.887   6.976  0.6501  2.5940 -1.6621
   96SAPS   C26 9521   5.186   2.875   7.181 -0.3602  0.5346 -0.2534
   96SAPS   H6R 9522   5.108   2.798   7.187  1.9129 -1.8145  2.0101
   96SAPS   C27 9523   5.255   2.899   7.312 -0.1291 -0.0948  0.1827
   96SAPS   H7R 9524   5.353   2.946   7.289 -0.4567  0.1774 -0.6877
   96SAPS   H7S 9525   5.300   2.810   7.363 -0.6666  0.6224  1.9887
   96SAPS   C28 9526   5.172   3.000   7.392 -0.0069  0.5018 -0.4283
   96SAPS   H8R 9527   5.118   3.077   7.335 -3.7596 -2.7484 -1.6711
   96SAPS   C29 9528   5.146   2.996   7.524  0.5267  0.3917  0.0572
   96SAPS   H9R 9529   5.092   3.084   7.563 -1.2496 -1.3784  1.7682
   96SAPS  C210 9530   5.199   2.889   7.627  0.0281  0.1957 -0.0269
   96SAPS  H10R 9531   5.233   2.949   7.714  0.2538 -0.2239  0.1726
   96SAPS  H10S 9532   5.283   2.830   7.586 -0.7860 -1.2390  0.2830
   96SAPS  C211 9533   5.092   2.792   7.683  0.0526  0.2340 -0.5970
   96SAPS  H11R 9534   5.017   2.755   7.611 -0.6085  0.7251 -0.1798
   96SAPS  C212 9535   5.080   2.744   7.803 -0.4003  0.0680  0.0496
   96SAPS  H12R 9536   4.997   2.682   7.840 -0.5778  0.6506  0.6644
   96SAPS  C213 9537   5.171   2.772   7.927 -0.3403 -0.4323  0.3567
   96SAPS  H13R 9538   5.254   2.842   7.901 -0.9552 -0.1784 -1.0028
   96SAPS  H13S 9539   5.215   2.677   7.964  3.6548  0.9205 -0.4370
   96SAPS  C214 9540   5.094   2.848   8.023  0.6679 -0.4234  0.1932
   96SAPS  H14R 9541   5.022   2.919   7.980  1.2807 -0.3379 -0.7323
   96SAPS  C215 9542   5.103   2.842   8.158 -0.2507  0.6541 -0.2385
   96SAPS  H15R 9543   5.052   2.919   8.218 -2.8826  0.6394 -2.2872
   96SAPS  C216 9544   5.194   2.745   8.239 -0.0255 -0.2797  0.2301
   96SAPS  H16R 9545   5.243   2.800   8.322 -1.8939  0.9975  0.5396
   96SAPS  H16S 9546   5.270   2.696   8.174 -1.4734  0.1207 -1.9069
   96SAPS  C217 9547   5.113   2.631   8.311 -0.5221 -0.0829 -0.0858
   96SAPS  H17R 9548   5.181   2.548   8.343 -1.0108  0.0189  1.2779
   96SAPS  H17S 9549   5.033   2.593   8.244 -2.4581  3.2640  0.1317
   96SAPS  C218 9550   5.039   2.674   8.445 -0.1809  0.3392 -0.5739
   96SAPS  H18R 9551   4.949   2.615   8.474  0.6264 -0.1701  1.0132
   96SAPS  H18S 9552   5.002   2.777   8.426  3.4263  1.2116 -4.2271
   96SAPS  C219 9553   5.138   2.673   8.560  0.3124 -0.3670  1.0557
   96SAPS  H19R 9554   5.223   2.742   8.541  0.7769 -1.3173 -0.3575
   96SAPS  H19S 9555   5.184   2.573   8.567  0.9158 -0.2582 -0.9060
   96SAPS  C220 9556   5.065   2.709   8.687 -0.5604  0.2165  0.1347
   96SAPS  H20R 9557   5.033   2.814   8.680 -1.2872 -0.0792 -1.3544
   96SAPS  H20S 9558   5.128   2.696   8.778 -2.2014 -1.2636  1.1159
   96SAPS  H20T 9559   4.977   2.646   8.710  0.3257 -0.6862  1.2033
   96SAPS   C33 9560   4.826   3.077   7.027  0.0872  0.5967  0.5560
   96SAPS   H3X 9561   4.760   3.166   7.016  1.5844  1.8246  1.0914
   96SAPS   H3Y 9562   4.932   3.109   7.020  0.4347 -0.6962 -0.3969
   96SAPS   C34 9563   4.789   3.002   7.160 -0.4898  0.4842  0.4645
   96SAPS   H4X 9564   4.848   2.909   7.177 -1.5766 -0.7372 -1.9723
   96SAPS   H4Y 9565   4.684   2.968   7.145 -0.8631  1.4457  0.8041
   96SAPS   C35 9566   4.812   3.094   7.278  0.3836 -1.3102  0.5072
   96SAPS   H5X 9567   4.750   3.185   7.265  1.0061 -0.6173  2.1124
   96SAPS   H5Y 9568   4.920   3.118   7.274  0.0406  0.7113  1.7462
   96SAPS   C36 9569   4.774   3.017   7.409 -0.5529  0.2638  0.3838
   96SAPS   H6X 9570   4.845   2.933   7.424 -0.7450 -0.3638 -1.9393
   96SAPS   H6Y 9571   4.677   2.970   7.385  0.2848 -1.9624  1.1308
   96SAPS   C37 9572   4.765   3.111   7.529 -0.2078  0.2356 -0.4437
   96SAPS   H7X 9573   4.679   3.181   7.522 -1.2894 -0.8867  0.9502
   96SAPS   H7Y 9574   4.859   3.170   7.541  1.1655 -1.7072 -1.1662
   96SAPS   C38 9575   4.757   3.033   7.665  0.2180 -0.5248 -0.1882
   96SAPS   H8X 9576   4.846   2.966   7.671 -0.0645 -0.8840  0.0113
   96SAPS   H8Y 9577   4.666   2.969   7.663 -0.1504 -0.0044 -0.3072
   96SAPS   C39 9578   4.754   3.118   7.791 -0.4241  0.0008  0.6075
   96SAPS   H9X 9579   4.820   3.208   7.790 -2.8148  2.0084 -3.4976
   96SAPS   H9Y 9580   4.793   3.057   7.875 -0.0456 -1.0054 -0.2804
   96SAPS  C310 9581   4.611   3.171   7.826  0.1211 -0.2619 -0.2243
   96SAPS  H10X 9582   4.536   3.091   7.807 -1.3593  0.6311  1.5352
   96SAPS  H10Y 9583   4.597   3.258   7.759  1.2753 -0.2476 -0.4623
   96SAPS  C311 9584   4.593   3.203   7.973 -0.3592  0.0327  0.1937
   96SAPS  H11X 9585   4.668   3.279   8.004  0.6584 -0.0957 -1.8154
   96SAPS  H11Y 9586   4.618   3.107   8.022  0.5096  0.1579  0.0096
   96SAPS  C312 9587   4.450   3.254   8.012  0.3768 -0.4124 -0.3489
   96SAPS  H12X 9588   4.383   3.166   7.999  0.0078 -0.0365 -1.0574
   96SAPS  H12Y 9589   4.424   3.327   7.932 -0.9860 -0.3245  0.1496
   96SAPS  C313 9590   4.449   3.325   8.151  0.5470 -0.4588 -0.7155
   96SAPS  H13X 9591   4.497   3.262   8.229 -2.1129 -0.4856  1.0484
   96SAPS  H13Y 9592   4.345   3.325   8.191  1.7869 -3.8314  3.2012
   96SAPS  C314 9593   4.519   3.464   8.158 -0.2384  0.5427  1.2723
   96SAPS  H14X 9594   4.477   3.537   8.086  0.7140 -0.8934 -0.8289
   96SAPS  H14Y 9595   4.623   3.443   8.127 -1.1739 -2.8299  0.0051
   96SAPS  C315 9596   4.519   3.529   8.295 -0.5618  0.2059  0.4861
   96SAPS  H15X 9597   4.599   3.606   8.289 -1.2025  0.7875 -1.7072
   96SAPS  H15Y 9598   4.556   3.449   8.363 -0.4064 -0.7988 -0.7312
   96SAPS  C316 9599   4.378   3.575   8.339  0.3238  0.2948 -0.1978
   96SAPS  H16X 9600   4.322   3.486   8.375 -2.1469  1.6801 -0.3501
   96SAPS  H16Y 9601   4.317   3.620   8.257 -1.0916 -0.6323  0.3013
   96SAPS  C317 9602   4.393   3.671   8.461 -0.5852  0.0843  0.2000
   96SAPS  H17X 9603   4.462   3.756   8.441 -0.9457  0.9298  2.3361
   96SAPS  H17Y 9604   4.438   3.617   8.548 -3.7482  1.3400  2.7857
   96SAPS  C318 9605   4.265   3.735   8.501  0.3363 -0.3115  0.0598
   96SAPS  H18X 9606   4.220   3.781   8.411  1.0410  1.8274  0.7178
   96SAPS  H18Y 9607   4.285   3.816   8.575 -0.6877 -0.0265  0.0314
   96SAPS  H18Z 9608   4.194   3.659   8.540 -0.8274 -0.0202 -1.4347
   97SAPS     N 9609   5.248   2.021   6.483  0.1139  0.4958 -0.2599
   97SAPS   HN1 9610   5.343   2.008   6.523  0.9093  0.4165 -2.0748
   97SAPS   HN2 9611   5.247   2.005   6.380 -0.8195 -0.3476 -0.1336
   97SAPS   HN3 9612   5.223   2.121   6.499 -1.0509  0.5235 -1.9681
   97SAPS   C12 9613   5.145   1.929   6.536 -0.4789 -0.4561  0.2653
   97SAPS  H12A 9614   5.172   1.910   6.639 -1.8399  0.7686  0.8904
   97SAPS   C13 9615   5.001   1.979   6.530 -0.4663  0.3769 -0.0825
   97SAPS  O13A 9616   4.976   2.077   6.457 -0.6044 -1.1108 -0.1003
   97SAPS  O13B 9617   4.913   1.917   6.599  0.2841 -0.4029 -0.5621
   97SAPS   C11 9618   5.153   1.801   6.451  0.1418  0.1202  0.6980
   97SAPS  H11A 9619   5.167   1.831   6.345  1.6541 -2.7074 -0.0205
   97SAPS  H11B 9620   5.063   1.736   6.451  0.5627 -0.5592 -1.7957
   97SAPS     P 9621   5.259   1.582   6.570 -0.0993  0.1205  0.1218
   97SAPS   O13 9622   5.165   1.494   6.497 -0.0613  0.1201 -0.7367
   97SAPS   O14 9623   5.396   1.527   6.580  0.0679  0.4723 -0.9001
   97SAPS   O12 9624   5.265   1.718   6.489 -0.5843  0.2442  0.0065
   97SAPS   O11 9625   5.197   1.630   6.707 -0.3100  0.1167  0.5060
   97SAPS    C1 9626   5.288   1.696   6.803 -0.0241  0.3930 -0.0326
   97SAPS    HA 9627   5.372   1.746   6.751  0.2439 -2.2022 -2.2981
   97SAPS    HB 9628   5.231   1.772   6.860 -0.4364  0.6087 -0.7201
   97SAPS    C2 9629   5.333   1.597   6.912  0.0698 -0.1004  0.4410
   97SAPS    HS 9630   5.419   1.538   6.873 -1.0400  0.6474 -3.6776
   97SAPS   O21 9631   5.228   1.511   6.966  0.2221  0.6628  0.6168
   97SAPS   C21 9632   5.253   1.383   6.935 -0.8003 -0.0354  0.3936
   97SAPS   O22 9633   5.358   1.342   6.899 -0.5002  0.5395 -0.0124
   97SAPS   C22 9634   5.119   1.295   6.933  0.3617 -0.4103 -0.4486
   97SAPS   H2R 9635   5.061   1.320   7.025  1.2276 -2.6888  0.8031
   97SAPS   H2S 9636   5.057   1.328   6.847  1.0524  0.9145 -0.4726
   97SAPS    C3 9637   5.384   1.675   7.035  0.4707 -0.1620  0.6049
   97SAPS    HX 9638   5.303   1.729   7.088  2.2636  2.7835  0.5633
   97SAPS    HY 9639   5.449   1.758   7.002 -0.1201 -0.1197 -0.5102
   97SAPS   O31 9640   5.442   1.593   7.133  0.6789 -0.4686 -0.4239
   97SAPS   C31 9641   5.575   1.587   7.142  0.1671 -0.3799  0.1643
   97SAPS   O32 9642   5.655   1.638   7.062  0.2978 -0.3260 -0.4859
   97SAPS   C32 9643   5.608   1.493   7.246 -0.1487 -0.5969 -0.2174
   97SAPS   H2X 9644   5.617   1.394   7.195 -1.1118  0.4083 -2.4651
   97SAPS   H2Y 9645   5.522   1.484   7.316  0.6111  1.3455  1.0353
   97SAPS   C23 9646   5.147   1.147   6.929 -0.1719  0.2122 -0.5213
   97SAPS   H3R 9647   5.208   1.135   6.837  2.3464  0.2700  1.0550
   97SAPS   H3S 9648   5.049   1.096   6.918 -0.3890 -0.4940  3.2837
   97SAPS   C24 9649   5.227   1.085   7.050  0.0301 -0.7259 -0.0662
   97SAPS   H4R 9650   5.326   1.135   7.042 -0.2859 -0.3456 -3.0695
   97SAPS   H4S 9651   5.236   0.977   7.024  0.6377 -0.6411 -0.2174
   97SAPS   C25 9652   5.161   1.102   7.185  0.1717  0.4425 -0.3046
   97SAPS   H5R 9653   5.102   1.011   7.204  1.0176 -0.2708 -1.0157
   97SAPS   C26 9654   5.186   1.197   7.281 -0.2602  0.0757 -0.2569
   97SAPS   H6R 9655   5.133   1.197   7.377  1.5162  1.5522  0.8095
   97SAPS   C27 9656   5.285   1.313   7.281  0.0769 -0.1891  0.4012
   97SAPS   H7R 9657   5.333   1.319   7.181 -0.7551  0.5545  0.0349
   97SAPS   H7S 9658   5.362   1.287   7.357  1.7350  0.3052 -1.0298
   97SAPS   C28 9659   5.235   1.453   7.318  0.3768  0.4254  0.3615
   97SAPS   H8R 9660   5.194   1.509   7.233 -0.5435 -1.4521 -0.4768
   97SAPS   C29 9661   5.222   1.516   7.438  0.3168 -0.3148 -0.1444
   97SAPS   H9R 9662   5.179   1.617   7.439 -0.4121 -0.5966 -1.0937
   97SAPS  C210 9663   5.255   1.449   7.567 -0.2605  0.3056  0.1455
   97SAPS  H10R 9664   5.279   1.342   7.546  2.1591  0.5107  1.4395
   97SAPS  H10S 9665   5.162   1.451   7.628  0.4731  0.3304  1.2978
   97SAPS  C211 9666   5.364   1.529   7.635 -0.2089  0.2583  0.3238
   97SAPS  H11R 9667   5.418   1.600   7.570  0.9199  0.6429  1.6220
   97SAPS  C212 9668   5.392   1.518   7.769  0.2995 -0.3231 -0.2211
   97SAPS  H12R 9669   5.477   1.569   7.815 -0.4950 -0.0110  0.9336
   97SAPS  C213 9670   5.313   1.418   7.848 -0.4417 -0.5193 -0.2414
   97SAPS  H13R 9671   5.230   1.373   7.789 -0.4560  0.6037 -1.1156
   97SAPS  H13S 9672   5.257   1.473   7.927 -1.1232  0.3127 -1.2702
   97SAPS  C214 9673   5.398   1.317   7.920 -0.4573 -0.7933 -0.1713
   97SAPS  H14R 9674   5.411   1.223   7.865 -3.2940 -1.1476 -0.4266
   97SAPS  C215 9675   5.450   1.329   8.045 -0.2264 -0.7695  1.0938
   97SAPS  H15R 9676   5.529   1.257   8.071  1.3227  0.8998  1.2401
   97SAPS  C216 9677   5.448   1.451   8.127 -0.4222  0.1553  0.3890
   97SAPS  H16R 9678   5.378   1.522   8.078 -0.1726  0.9444  1.1426
   97SAPS  H16S 9679   5.540   1.511   8.107 -0.0083 -0.1591  1.2896
   97SAPS  C217 9680   5.429   1.430   8.272  0.4452 -0.3345 -0.0043
   97SAPS  H17R 9681   5.459   1.525   8.322 -2.6527  1.2096 -0.8247
   97SAPS  H17S 9682   5.491   1.350   8.319 -0.9304  0.4044  3.3758
   97SAPS  C218 9683   5.273   1.419   8.309  1.2466 -0.1464  0.2927
   97SAPS  H18R 9684   5.212   1.437   8.218  1.2856 -0.7861  0.1322
   97SAPS  H18S 9685   5.251   1.488   8.393  0.6977 -2.0298  1.7615
   97SAPS  C219 9686   5.243   1.275   8.365  0.0315 -0.0476  0.3501
   97SAPS  H19R 9687   5.161   1.296   8.436  0.1151 -2.1311  1.1180
   97SAPS  H19S 9688   5.326   1.236   8.427  1.1661  1.0022 -0.4634
   97SAPS  C220 9689   5.186   1.172   8.263 -0.1850  0.6462 -0.4226
   97SAPS  H20R 9690   5.143   1.084   8.314  2.1098 -0.0892  0.3481
   97SAPS  H20S 9691   5.262   1.140   8.188 -0.4503 -1.9336  0.3146
   97SAPS  H20T 9692   5.100   1.221   8.213 -1.3747 -1.0188 -0.0737
   97SAPS   C33 9693   5.739   1.530   7.321  0.1087 -0.4138 -0.3324
   97SAPS   H3X 9694   5.740   1.638   7.346 -0.1712 -0.2695 -0.9290
   97SAPS   H3Y 9695   5.825   1.510   7.252 -0.2963 -0.7032 -0.7625
   97SAPS   C34 9696   5.745   1.445   7.449 -0.5703 -0.1553 -0.2034
   97SAPS   H4X 9697   5.747   1.336   7.428 -0.3385 -0.2712  0.3847
   97SAPS   H4Y 9698   5.654   1.465   7.510 -1.7277 -1.4088 -1.4488
   97SAPS   C35 9699   5.870   1.481   7.523 -0.0197  0.0412 -0.1118
   97SAPS   H5X 9700   5.864   1.589   7.551 -1.1940  0.5152 -1.9642
   97SAPS   H5Y 9701   5.957   1.469   7.455  0.2381  0.9777  0.0283
   97SAPS   C36 9702   5.891   1.400   7.655  0.3967  0.1797  0.1655
   97SAPS   H6X 9703   5.989   1.423   7.703  0.6351 -0.7132  0.1272
   97SAPS   H6Y 9704   5.888   1.290   7.636  1.0925  0.2179 -0.2050
   97SAPS   C37 9705   5.783   1.439   7.763 -0.9660  0.7998  0.1106
   97SAPS   H7X 9706   5.685   1.403   7.726 -0.3921 -4.6490  2.9168
   97SAPS   H7Y 9707   5.787   1.549   7.780  1.5203  0.5628  1.6988
   97SAPS   C38 9708   5.823   1.370   7.897 -0.2511 -0.1680 -0.0823
   97SAPS   H8X 9709   5.853   1.264   7.878 -0.8731 -0.1605 -1.1594
   97SAPS   H8Y 9710   5.733   1.371   7.961  0.2185  2.2574  0.6210
   97SAPS   C39 9711   5.919   1.449   7.979 -0.2949 -0.5811  0.5847
   97SAPS   H9X 9712   5.871   1.547   8.000 -1.6420 -1.4499  1.7721
   97SAPS   H9Y 9713   6.008   1.473   7.917  1.0632 -0.4642  2.5272
   97SAPS  C310 9714   5.964   1.386   8.106 -0.8703  0.2746  0.5759
   97SAPS  H10X 9715   6.067   1.424   8.125  0.1719 -2.2858  0.4454
   97SAPS  H10Y 9716   5.982   1.278   8.087 -1.7444 -0.1114  1.8085
   97SAPS  C311 9717   5.869   1.410   8.228  0.7050  0.3070  0.3102
   97SAPS  H11X 9718   5.898   1.326   8.295 -1.8168 -0.3577  0.6928
   97SAPS  H11Y 9719   5.765   1.382   8.199  0.8460 -0.7121  0.7201
   97SAPS  C312 9720   5.877   1.536   8.310 -1.0418 -0.1875  0.0362
   97SAPS  H12X 9721   5.834   1.620   8.252  0.3398  0.1117 -0.6052
   97SAPS  H12Y 9722   5.982   1.570   8.328 -1.2125  0.1444  0.4132
   97SAPS  C313 9723   5.808   1.521   8.449 -0.7494  0.2851  0.5476
   97SAPS  H13X 9724   5.863   1.443   8.505  0.4337  0.3413 -0.4631
   97SAPS  H13Y 9725   5.704   1.486   8.436 -1.0294  0.2094  2.7235
   97SAPS  C314 9726   5.803   1.665   8.519  0.2851 -0.0520 -0.5851
   97SAPS  H14X 9727   5.728   1.736   8.478 -0.4242 -0.0878  0.5941
   97SAPS  H14Y 9728   5.904   1.710   8.508 -0.8084  2.8772  0.3919
   97SAPS  C315 9729   5.770   1.640   8.669 -0.0730 -0.0384  0.0443
   97SAPS  H15X 9730   5.866   1.591   8.698  0.1801  0.5996  0.3066
   97SAPS  H15Y 9731   5.676   1.581   8.671 -0.5025  0.6616  1.3464
   97SAPS  C316 9732   5.744   1.760   8.756  0.0742  0.3949  0.4188
   97SAPS  H16X 9733   5.647   1.804   8.724 -1.4949 -1.5995  2.1977
   97SAPS  H16Y 9734   5.826   1.828   8.721  0.4092 -0.1672  0.1014
   97SAPS  C317 9735   5.761   1.736   8.907  0.4234  0.0369  0.8587
   97SAPS  H17X 9736   5.693   1.652   8.935 -0.4077  0.6144  0.6281
   97SAPS  H17Y 9737   5.723   1.830   8.952 -0.8242 -0.5925  1.1883
   97SAPS  C318 9738   5.890   1.682   8.967 -0.2126 -0.3583 -0.2891
   97SAPS  H18X 9739   5.885   1.679   9.078 -3.5059 -0.6064 -0.3581
   97SAPS  H18Y 9740   5.971   1.754   8.941 -0.3675  0.6512  1.8447
   97SAPS  H18Z 9741   5.915   1.580   8.930  1.1038 -0.4895  0.8560
   98SAPS     N 9742   2.603   1.336   5.888 -0.3426 -0.1014 -0.2756
   98SAPS   HN1 9743   2.547   1.298   5.809 -0.8712 -1.6042  0.7831
   98SAPS   HN2 9744   2.627   1.253   5.946  0.1796  0.2365 -0.0008
   98SAPS   HN3 9745   2.531   1.385   5.945  0.5329  0.2577  0.5468
   98SAPS   C12 9746   2.723   1.407   5.868  0.1051 -1.4166  0.4694
   98SAPS  H12A 9747   2.767   1.352   5.786  1.4603 -1.8662  1.4577
   98SAPS   C13 9748   2.706   1.558   5.828 -1.1041 -0.2815 -0.0007
   98SAPS  O13A 9749   2.595   1.616   5.827 -0.1169 -0.1949  0.4727
   98SAPS  O13B 9750   2.815   1.622   5.801 -0.0872  0.1270 -0.4176
   98SAPS   C11 9751   2.816   1.389   5.992 -0.2145  0.7036  0.2110
   98SAPS  H11A 9752   2.769   1.428   6.084  0.6019 -1.5733  1.6695
   98SAPS  H11B 9753   2.912   1.441   5.972  0.4078 -1.2847 -2.6766
   98SAPS     P 9754   2.777   1.156   6.112 -0.6115 -0.3263  0.1864
   98SAPS   O13 9755   2.648   1.128   6.054  0.1089  0.2346  0.3632
   98SAPS   O14 9756   2.865   1.047   6.148 -0.2799 -0.0243  0.1556
   98SAPS   O12 9757   2.848   1.250   6.009 -0.4442 -0.2665 -0.1641
   98SAPS   O11 9758   2.751   1.249   6.242 -0.5970 -0.4432 -0.5380
   98SAPS    C1 9759   2.860   1.244   6.341 -0.6701 -0.4798 -0.2538
   98SAPS    HA 9760   2.955   1.211   6.294 -0.3477 -0.9582  0.6976
   98SAPS    HB 9761   2.883   1.342   6.388  0.2836 -0.1517 -1.3567
   98SAPS    C2 9762   2.829   1.144   6.457  0.0268 -0.0441 -0.4002
   98SAPS    HS 9763   2.808   1.045   6.411  1.2322 -1.5189  2.0224
   98SAPS   O21 9764   2.719   1.191   6.529  0.1007  0.2203 -0.3350
   98SAPS   C21 9765   2.597   1.136   6.515 -0.2491  0.7220 -0.7907
   98SAPS   O22 9766   2.578   1.037   6.444 -0.2821 -0.7356 -0.7115
   98SAPS   C22 9767   2.498   1.198   6.605 -0.4361 -0.0653  0.0078
   98SAPS   H2R 9768   2.543   1.297   6.624  1.9695 -1.1234  0.2213
   98SAPS   H2S 9769   2.400   1.204   6.553  0.8392  0.8496 -2.4530
   98SAPS    C3 9770   2.954   1.125   6.542  0.5944  0.6843 -0.1655
   98SAPS    HX 9771   2.985   1.228   6.570  0.9159 -0.3803  4.2585
   98SAPS    HY 9772   3.041   1.079   6.492  0.6903 -1.6411  1.9496
   98SAPS   O31 9773   2.922   1.062   6.672 -0.0667  0.2872  0.2208
   98SAPS   C31 9774   2.945   0.934   6.678  0.8496 -0.5323  0.4351
   98SAPS   O32 9775   2.983   0.865   6.588 -0.2010  0.4129  0.1138
   98SAPS   C32 9776   2.921   0.894   6.831 -0.4016  0.0273 -0.0266
   98SAPS   H2X 9777   2.913   0.977   6.904  1.0900 -0.4101  0.6619
   98SAPS   H2Y 9778   3.017   0.842   6.850  0.6011  0.8189 -2.5029
   98SAPS   C23 9779   2.480   1.118   6.732  0.5313  0.1158 -0.3259
   98SAPS   H3R 9780   2.566   1.107   6.802  0.3225  0.3529 -0.0317
   98SAPS   H3S 9781   2.459   1.011   6.708  3.1758 -0.0510 -2.3545
   98SAPS   C24 9782   2.367   1.178   6.814  0.7147  0.0261 -0.6318
   98SAPS   H4R 9783   2.284   1.217   6.751 -0.5404 -0.4250  0.6999
   98SAPS   H4S 9784   2.406   1.263   6.873 -0.1262 -0.0870  0.0961
   98SAPS   C25 9785   2.305   1.074   6.901  0.5582 -0.0535 -0.2554
   98SAPS   H5R 9786   2.216   1.023   6.861 -1.0321  2.4073 -0.1270
   98SAPS   C26 9787   2.347   1.049   7.030 -0.0642  0.1803 -0.2051
   98SAPS   H6R 9788   2.282   0.989   7.095 -1.4799  0.6175 -1.1659
   98SAPS   C27 9789   2.465   1.127   7.085 -0.3904 -0.0694  0.4474
   98SAPS   H7R 9790   2.442   1.235   7.085 -1.1354 -0.1876  2.5823
   98SAPS   H7S 9791   2.545   1.108   7.010  1.0758  2.0891  1.3741
   98SAPS   C28 9792   2.510   1.090   7.221  0.5378  0.7297 -0.4273
   98SAPS   H8R 9793   2.589   1.015   7.228 -0.2325 -0.1107 -0.5514
   98SAPS   C29 9794   2.451   1.123   7.341 -1.1603 -0.2239  0.3954
   98SAPS   H9R 9795   2.485   1.078   7.435  1.3518 -1.8985 -1.1937
   98SAPS  C210 9796   2.329   1.214   7.354 -0.1426  0.0058 -0.0037
   98SAPS  H10R 9797   2.277   1.214   7.256 -0.0695  1.1731 -0.0585
   98SAPS  H10S 9798   2.367   1.318   7.349  1.8710 -0.7285 -2.3765
   98SAPS  C211 9799   2.231   1.192   7.461 -0.0857 -0.2496 -0.0587
   98SAPS  H11R 9800   2.136   1.151   7.425 -0.8932  1.6203 -0.1611
   98SAPS  C212 9801   2.236   1.235   7.590  0.3715 -0.3426 -0.1304
   98SAPS  H12R 9802   2.161   1.197   7.660  0.1592  0.5366  0.1314
   98SAPS  C213 9803   2.335   1.322   7.655 -0.4065 -0.0346 -0.7968
   98SAPS  H13R 9804   2.297   1.427   7.655 -0.3182  0.0303  0.8658
   98SAPS  H13S 9805   2.432   1.324   7.601  0.8030 -2.3194  1.0935
   98SAPS  C214 9806   2.367   1.307   7.800  0.2505 -0.3959 -0.9223
   98SAPS  H14R 9807   2.465   1.260   7.819  0.3807 -0.3277 -1.4246
   98SAPS  C215 9808   2.287   1.345   7.905  0.2575 -0.1326 -0.0763
   98SAPS  H15R 9809   2.308   1.310   8.008  0.0635  0.3743  0.1401
   98SAPS  C216 9810   2.157   1.410   7.904  1.3058  0.6537 -0.3436
   98SAPS  H16R 9811   2.134   1.452   7.804  1.8874 -1.0692 -1.2539
   98SAPS  H16S 9812   2.144   1.490   7.980  0.8272  0.4302 -0.1825
   98SAPS  C217 9813   2.030   1.322   7.942  0.4779 -0.3076 -0.3848
   98SAPS  H17R 9814   2.019   1.240   7.868  1.3940  1.7701 -2.9681
   98SAPS  H17S 9815   1.946   1.394   7.929  0.0262 -0.2257  2.4096
   98SAPS  C218 9816   2.029   1.267   8.087  0.2131  0.0852 -0.3453
   98SAPS  H18R 9817   2.118   1.204   8.103  0.6224  1.0905  1.5932
   98SAPS  H18S 9818   1.934   1.209   8.094  0.2144  0.1920  0.7841
   98SAPS  C219 9819   2.018   1.362   8.203  0.1721 -0.2418  0.6492
   98SAPS  H19R 9820   1.934   1.431   8.177  1.0850  0.5488 -0.3440
   98SAPS  H19S 9821   2.108   1.427   8.207 -0.4972  0.6629  1.4585
   98SAPS  C220 9822   2.009   1.306   8.344 -0.0736  0.4257  0.2425
   98SAPS  H20R 9823   2.082   1.224   8.362  1.3899  1.5731 -0.3004
   98SAPS  H20S 9824   1.903   1.276   8.355 -0.2021  0.7453 -0.1089
   98SAPS  H20T 9825   2.030   1.389   8.415  0.8920  1.5101 -1.2460
   98SAPS   C33 9826   2.794   0.813   6.852  0.2510  0.1668 -0.3385
   98SAPS   H3X 9827   2.789   0.728   6.780 -0.3417 -0.8876  0.8966
   98SAPS   H3Y 9828   2.699   0.868   6.835 -0.6363 -0.1929  2.7879
   98SAPS   C34 9829   2.781   0.742   6.989  0.3729  0.4961  0.0254
   98SAPS   H4X 9830   2.874   0.689   7.019 -0.2677 -0.5560  0.1816
   98SAPS   H4Y 9831   2.698   0.668   6.987  1.1950 -0.4344 -0.6606
   98SAPS   C35 9832   2.733   0.839   7.102 -0.6594  0.5842  0.3153
   98SAPS   H5X 9833   2.644   0.893   7.063 -1.0306  0.4644  0.9738
   98SAPS   H5Y 9834   2.811   0.918   7.098  0.9647 -0.9206  1.1360
   98SAPS   C36 9835   2.724   0.761   7.232 -0.3036 -0.4172 -0.2110
   98SAPS   H6X 9836   2.762   0.838   7.302 -3.5044  0.4783  0.7371
   98SAPS   H6Y 9837   2.797   0.677   7.235  2.1530  1.6230  0.2152
   98SAPS   C37 9838   2.582   0.701   7.267  0.5382  0.3673 -0.4983
   98SAPS   H7X 9839   2.593   0.591   7.264 -1.5370  0.0993  0.0743
   98SAPS   H7Y 9840   2.507   0.746   7.199  0.2909  1.3077  0.3662
   98SAPS   C38 9841   2.529   0.734   7.404 -0.3543  0.3750 -0.3896
   98SAPS   H8X 9842   2.427   0.690   7.406 -0.0601 -0.3301 -0.5107
   98SAPS   H8Y 9843   2.523   0.845   7.412 -0.1238  0.3401  0.3748
   98SAPS   C39 9844   2.608   0.684   7.520 -0.4276  0.2855 -0.2197
   98SAPS   H9X 9845   2.708   0.732   7.527  0.2372 -1.0111 -0.5303
   98SAPS   H9Y 9846   2.625   0.575   7.504  0.7393  0.1557  1.6568
   98SAPS  C310 9847   2.542   0.695   7.654 -0.3301 -0.3070  0.3450
   98SAPS  H10X 9848   2.440   0.651   7.654 -0.2147 -0.8494  3.9215
   98SAPS  H10Y 9849   2.535   0.805   7.667 -0.2863 -0.1940 -0.5404
   98SAPS  C311 9850   2.619   0.622   7.766  0.1104  0.0838  0.1417
   98SAPS  H11X 9851   2.726   0.654   7.768  0.6555 -1.5860 -0.1975
   98SAPS  H11Y 9852   2.623   0.512   7.748 -1.7606 -0.3969  2.2964
   98SAPS  C312 9853   2.556   0.634   7.899 -0.2481 -0.0623  0.3106
   98SAPS  H12X 9854   2.619   0.582   7.974 -1.4950 -2.4367 -0.1597
   98SAPS  H12Y 9855   2.455   0.586   7.897 -1.1360  1.5999  1.8726
   98SAPS  C313 9856   2.543   0.782   7.949  0.0526 -0.3383 -0.2142
   98SAPS  H13X 9857   2.468   0.821   7.878  0.3591 -0.5423 -0.6536
   98SAPS  H13Y 9858   2.642   0.828   7.930  0.6978  0.4588  4.0233
   98SAPS  C314 9859   2.488   0.797   8.095 -0.2111  0.3135 -0.1946
   98SAPS  H14X 9860   2.557   0.747   8.167 -1.5728  1.6937  2.2001
   98SAPS  H14Y 9861   2.384   0.759   8.103 -0.7808  1.6890 -0.8507
   98SAPS  C315 9862   2.490   0.940   8.143 -0.1873  0.2281  0.2786
   98SAPS  H15X 9863   2.449   1.005   8.063  0.7428 -0.0085 -0.4194
   98SAPS  H15Y 9864   2.595   0.973   8.159 -0.8849  2.4276  0.6336
   98SAPS  C316 9865   2.413   0.964   8.264 -0.0103  0.1032  0.2731
   98SAPS  H16X 9866   2.394   0.878   8.331 -2.6206 -0.7065 -1.3884
   98SAPS  H16Y 9867   2.314   1.002   8.230  0.5979  0.8915 -0.6610
   98SAPS  C317 9868   2.480   1.071   8.343 -0.3399  0.0615  0.4582
   98SAPS  H17X 9869   2.590   1.057   8.350  0.0304  2.7068  0.9842
   98SAPS  H17Y 9870   2.435   1.072   8.444  1.7794 -1.7749  1.5105
   98SAPS  C318 9871   2.467   1.218   8.280  0.2171 -0.0288  0.3801
   98SAPS  H18X 9872   2.512   1.297   8.345  2.5153 -0.3052 -0.7856
   98SAPS  H18Y 9873   2.362   1.239   8.252  0.4528  2.7064  1.1857
   98SAPS  H18Z 9874   2.526   1.218   8.186 -1.7226  0.5143 -0.8960
   99SAPS     N 9875   2.456   5.554   6.211  0.2266  0.6076  0.3153
   99SAPS   HN1 9876   2.389   5.494   6.262 -0.0945  1.1991  0.5950
   99SAPS   HN2 9877   2.514   5.604   6.281  0.7067 -1.5061  1.4874
   99SAPS   HN3 9878   2.400   5.624   6.158  0.5882  0.3775 -0.3937
   99SAPS   C12 9879   2.539   5.475   6.115  0.2123  0.1722 -0.0426
   99SAPS  H12A 9880   2.481   5.388   6.085  0.4196 -0.6759  1.8694
   99SAPS   C13 9881   2.579   5.560   5.990 -0.0087  0.9810  0.3212
   99SAPS  O13A 9882   2.533   5.675   5.976  0.2265  0.0265 -0.4221
   99SAPS  O13B 9883   2.634   5.506   5.887  0.5825  0.8566 -0.3953
   99SAPS   C11 9884   2.663   5.431   6.192 -0.0231  0.4227  0.0852
   99SAPS  H11A 9885   2.723   5.362   6.129  0.5997 -0.6468  1.7590
   99SAPS  H11B 9886   2.641   5.376   6.286 -2.1243 -0.0157 -0.6171
   99SAPS     P 9887   2.887   5.536   6.311  0.5070  0.2213  0.1817
   99SAPS   O13 9888   2.985   5.470   6.219 -0.4659  0.0867  0.0530
   99SAPS   O14 9889   2.918   5.671   6.370  0.2692 -0.2070  0.4041
   99SAPS   O12 9890   2.742   5.548   6.230 -0.4482  0.7086 -0.0336
   99SAPS   O11 9891   2.850   5.446   6.432  0.4289  0.0538  0.1874
   99SAPS    C1 9892   2.747   5.483   6.529 -0.0292 -0.4130  0.0886
   99SAPS    HA 9893   2.773   5.583   6.571  1.7419 -0.6333 -0.4112
   99SAPS    HB 9894   2.656   5.490   6.466  0.6708 -0.5739 -0.9713
   99SAPS    C2 9895   2.723   5.385   6.646 -0.7025  0.1879 -0.0079
   99SAPS    HS 9896   2.635   5.421   6.705  0.1083  0.3878  1.1018
   99SAPS   O21 9897   2.840   5.381   6.732  0.3011 -0.2716 -0.7567
   99SAPS   C21 9898   2.847   5.478   6.824 -0.5274 -0.0142  0.2176
   99SAPS   O22 9899   2.760   5.553   6.864  0.8591 -0.1657  0.3559
   99SAPS   C22 9900   2.982   5.465   6.900 -0.5566 -1.0906  0.1635
   99SAPS   H2R 9901   2.999   5.359   6.929 -0.0983 -1.0931 -0.1040
   99SAPS   H2S 9902   3.064   5.492   6.830 -2.4779 -0.3068 -1.9044
   99SAPS    C3 9903   2.677   5.246   6.594 -0.3582  1.2338  0.3084
   99SAPS    HX 9904   2.772   5.193   6.571 -1.1712 -1.1573  2.0647
   99SAPS    HY 9905   2.610   5.253   6.506  0.5790  0.0881 -0.5329
   99SAPS   O31 9906   2.619   5.160   6.697 -0.7218 -0.5672 -0.7270
   99SAPS   C31 9907   2.490   5.168   6.733  0.0830  0.0199  0.3359
   99SAPS   O32 9908   2.409   5.253   6.688 -0.1061  0.1435 -0.1845
   99SAPS   C32 9909   2.461   5.047   6.820 -0.9003  0.4821  0.0763
   99SAPS   H2X 9910   2.558   4.994   6.830 -0.4066  0.8724 -2.0658
   99SAPS   H2Y 9911   2.385   4.990   6.761 -2.0654  1.4957  0.5615
   99SAPS   C23 9912   2.989   5.559   7.030  0.1548  0.1020  0.1021
   99SAPS   H3R 9913   2.914   5.527   7.106  1.8276 -0.3497  1.6236
   99SAPS   H3S 9914   2.969   5.665   7.004 -2.2610 -0.6766 -1.6323
   99SAPS   C24 9915   3.126   5.561   7.104 -0.2037 -0.0195  0.0347
   99SAPS   H4R 9916   3.105   5.616   7.198  0.5590  3.4795 -1.6755
   99SAPS   H4S 9917   3.195   5.619   7.040  1.3817 -2.7085 -0.8648
   99SAPS   C25 9918   3.181   5.424   7.121 -0.0939 -0.7745  0.3810
   99SAPS   H5R 9919   3.204   5.376   7.025  0.8885  2.2250 -0.9905
   99SAPS   C26 9920   3.200   5.356   7.233 -0.6360 -0.2087  0.1336
   99SAPS   H6R 9921   3.238   5.254   7.215 -1.3151 -0.6154  0.9667
   99SAPS   C27 9922   3.193   5.408   7.375  0.0572 -0.5179  0.1697
   99SAPS   H7R 9923   3.171   5.517   7.374 -1.9876 -0.8710 -1.3036
   99SAPS   H7S 9924   3.294   5.404   7.420  0.6060 -0.0921 -0.9998
   99SAPS   C28 9925   3.092   5.331   7.458  0.1007 -0.9307  0.4654
   99SAPS   H8R 9926   3.009   5.286   7.402 -0.6071 -1.1517  1.6417
   99SAPS   C29 9927   3.092   5.321   7.597 -0.0491  0.0496  0.4017
   99SAPS   H9R 9928   3.016   5.266   7.654 -0.5378 -1.2183 -1.3602
   99SAPS  C210 9929   3.195   5.378   7.688 -0.4292 -0.4927 -0.4098
   99SAPS  H10R 9930   3.296   5.362   7.645 -0.6148  1.5550 -1.8001
   99SAPS  H10S 9931   3.185   5.327   7.786 -2.4138  1.1125  0.3247
   99SAPS  C211 9932   3.184   5.528   7.711  0.1906  0.5552  0.9023
   99SAPS  H11R 9933   3.183   5.579   7.614  1.7546 -2.6114 -0.9811
   99SAPS  C212 9934   3.219   5.594   7.823 -0.1319  0.6987  0.5137
   99SAPS  H12R 9935   3.201   5.703   7.819 -0.2293  0.6835  0.5315
   99SAPS  C213 9936   3.257   5.538   7.956 -0.1645  0.0621  0.0893
   99SAPS  H13R 9937   3.299   5.622   8.016 -2.8662  0.7692  1.1236
   99SAPS  H13S 9938   3.338   5.464   7.940 -0.5436 -0.5712  1.0470
   99SAPS  C214 9939   3.148   5.458   8.023 -0.6739  0.3945  0.2044
   99SAPS  H14R 9940   3.073   5.407   7.961  0.0791  0.6190 -0.9170
   99SAPS  C215 9941   3.141   5.440   8.152  0.4418 -0.3081  0.2789
   99SAPS  H15R 9942   3.070   5.371   8.200 -0.7698 -0.5697 -1.7941
   99SAPS  C216 9943   3.231   5.502   8.260  0.6491  0.2876 -0.4543
   99SAPS  H16R 9944   3.327   5.537   8.216  0.1082  0.2082 -1.7251
   99SAPS  H16S 9945   3.252   5.428   8.340 -2.1357  0.2758  0.3840
   99SAPS  C217 9946   3.152   5.613   8.328 -0.1156 -0.0118 -0.4158
   99SAPS  H17R 9947   3.136   5.682   8.242  1.4102  0.1110 -0.6289
   99SAPS  H17S 9948   3.220   5.669   8.396 -0.3581  1.6977 -1.5148
   99SAPS  C218 9949   3.019   5.566   8.401 -0.3952  0.4538 -0.0467
   99SAPS  H18R 9950   3.030   5.457   8.420 -1.8008  0.2326 -0.3827
   99SAPS  H18S 9951   2.930   5.566   8.335  0.1574  0.7619 -0.8100
   99SAPS  C219 9952   2.998   5.638   8.528  0.3725  0.2136 -0.8894
   99SAPS  H19R 9953   2.991   5.748   8.515 -1.0379  0.2799  0.1617
   99SAPS  H19S 9954   3.074   5.611   8.604  0.3239 -2.2216 -1.5947
   99SAPS  C220 9955   2.873   5.589   8.594  0.3091 -0.4000  0.4776
   99SAPS  H20R 9956   2.786   5.591   8.525  0.0808 -1.0768  0.7443
   99SAPS  H20S 9957   2.847   5.663   8.673  0.5399  1.3321 -1.0018
   99SAPS  H20T 9958   2.892   5.489   8.638 -0.5501 -0.6537  0.2891
   99SAPS   C33 9959   2.403   5.095   6.949  0.5135  0.3617 -1.0802
   99SAPS   H3X 9960   2.305   5.143   6.924 -1.1278 -3.2223 -2.1124
   99SAPS   H3Y 9961   2.475   5.156   7.007 -0.3271 -0.0044  0.4130
   99SAPS   C34 9962   2.350   4.978   7.045 -0.0589  0.0056  0.1436
   99SAPS   H4X 9963   2.438   4.919   7.080  0.8221  0.6845 -0.8868
   99SAPS   H4Y 9964   2.275   4.919   6.988 -0.0830 -1.3409  1.4880
   99SAPS   C35 9965   2.295   5.031   7.182  0.3398  0.0596 -0.8173
   99SAPS   H5X 9966   2.196   5.082   7.178 -1.4973 -2.4440  4.3022
   99SAPS   H5Y 9967   2.379   5.082   7.235  0.2797 -0.6578 -0.0194
   99SAPS   C36 9968   2.257   4.911   7.274 -0.6318  0.5591  0.2011
   99SAPS   H6X 9969   2.353   4.863   7.302 -0.0249  0.4034 -2.0138
   99SAPS   H6Y 9970   2.194   4.844   7.212 -0.0959  0.4163 -0.1935
   99SAPS   C37 9971   2.191   4.950   7.414  0.0388  0.0238  0.5561
   99SAPS   H7X 9972   2.115   4.870   7.428  0.8808 -1.0427 -0.6564
   99SAPS   H7Y 9973   2.148   5.052   7.415  0.1635  0.0901 -0.3540
   99SAPS   C38 9974   2.284   4.945   7.534 -0.2282 -0.5452 -0.0519
   99SAPS   H8X 9975   2.363   5.023   7.521  1.7477 -2.3986  0.2325
   99SAPS   H8Y 9976   2.330   4.844   7.544  1.5779  0.2501  0.1138
   99SAPS   C39 9977   2.207   4.972   7.662  1.1545  0.2202 -0.1119
   99SAPS   H9X 9978   2.113   4.912   7.669  1.5494 -0.2289  1.8404
   99SAPS   H9Y 9979   2.172   5.077   7.655  0.0983 -0.1857 -1.4215
   99SAPS  C310 9980   2.293   4.938   7.784 -0.2609 -0.0644 -0.3179
   99SAPS  H10X 9981   2.394   4.981   7.766 -1.0671  2.6922  1.1830
   99SAPS  H10Y 9982   2.309   4.829   7.802  2.0215  0.2146 -0.4008
   99SAPS  C311 9983   2.226   4.988   7.908  0.1485  0.3655  0.3158
   99SAPS  H11X 9984   2.136   4.924   7.918  0.2450  0.3794  1.3215
   99SAPS  H11Y 9985   2.192   5.092   7.893  1.5416  0.5996 -1.6809
   99SAPS  C312 9986   2.322   4.975   8.029  0.9973 -0.1242 -0.0335
   99SAPS  H12X 9987   2.416   5.028   8.003  1.3611 -0.9742 -0.4865
   99SAPS  H12Y 9988   2.353   4.872   8.053  1.2729  0.3696  1.8412
   99SAPS  C313 9989   2.256   5.031   8.155  0.2212 -0.2477  0.1050
   99SAPS  H13X 9990   2.152   4.995   8.171 -0.1342  0.7417  0.0899
   99SAPS  H13Y 9991   2.237   5.140   8.146  0.6985 -0.2731 -1.6124
   99SAPS  C314 9992   2.332   5.008   8.285 -0.3541  0.0246  0.6226
   99SAPS  H14X 9993   2.441   5.019   8.263 -0.3469 -2.5497 -0.9812
   99SAPS  H14Y 9994   2.304   4.918   8.343  1.2851 -0.5485  0.5983
   99SAPS  C315 9995   2.287   5.115   8.397  0.1164  0.5025  0.4713
   99SAPS  H15X 9996   2.269   5.057   8.490  0.5084 -1.5484 -0.6674
   99SAPS  H15Y 9997   2.185   5.147   8.370  0.1053  0.8010  0.8583
   99SAPS  C316 9998   2.382   5.238   8.405 -1.0284  0.4853 -0.1773
   99SAPS  H16X 9999   2.378   5.304   8.316  0.9478  0.4853 -0.3015
   99SAPS  H16Y10000   2.486   5.200   8.409 -1.6573 -1.8151 -2.6078
   99SAPS  C31710001   2.338   5.322   8.530  0.0438  0.0208  0.1020
   99SAPS  H17X10002   2.340   5.265   8.625  1.0059  1.1584  0.7859
   99SAPS  H17Y10003   2.237   5.359   8.501 -0.3118 -0.2014  1.0296
   99SAPS  C31810004   2.430   5.444   8.536 -0.0217 -0.4247 -0.1084
   99SAPS  H18X10005   2.422   5.515   8.451  1.1600  1.9455  1.6366
   99SAPS  H18Y10006   2.538   5.417   8.545  0.0487 -0.3873 -0.7772
   99SAPS  H18Z10007   2.398   5.512   8.618  0.4215  0.2181 -0.4609
  100SAPS     N10008   5.350   1.103   6.268 -0.3085 -0.3099  0.0157
  100SAPS   HN110009   5.453   1.118   6.274 -0.4334  0.7731 -0.2956
  100SAPS   HN210010   5.295   1.190   6.253  0.4075  0.1918  0.2441
  100SAPS   HN310011   5.321   1.058   6.357  2.7815 -1.0015  0.7940
  100SAPS   C1210012   5.314   1.012   6.152  0.2750 -0.1659  1.2049
  100SAPS  H12A10013   5.213   1.032   6.121  0.3112  1.6980  2.1394
  100SAPS   C1310014   5.397   1.028   6.022  0.3160 -0.0155  0.5322
  100SAPS  O13A10015   5.482   1.117   6.007 -0.1525  0.5476 -0.2685
  100SAPS  O13B10016   5.364   0.951   5.925 -0.7287 -0.6565  0.0452
  100SAPS   C1110017   5.308   0.868   6.215  0.1390 -0.7300 -0.2332
  100SAPS  H11A10018   5.410   0.858   6.258  1.0928  1.6619 -1.7112
  100SAPS  H11B10019   5.283   0.809   6.124  0.1493  0.6397 -1.1614
  100SAPS     P10020   5.131   0.726   6.359 -0.3474 -0.1969 -0.0123
  100SAPS   O1310021   5.040   0.765   6.470  0.4264 -0.3650  0.1575
  100SAPS   O1410022   5.070   0.661   6.241 -0.1129  0.2524 -0.2079
  100SAPS   O1210023   5.203   0.860   6.316 -0.2447  0.0479 -0.4939
  100SAPS   O1110024   5.246   0.633   6.407 -0.5947  0.0456  0.1016
  100SAPS    C110025   5.231   0.527   6.498 -0.1122 -0.1683  0.4557
  100SAPS    HA10026   5.140   0.466   6.480  0.2979 -0.7181  0.2258
  100SAPS    HB10027   5.318   0.465   6.468 -0.2473 -0.2486  0.2276
  100SAPS    C210028   5.246   0.579   6.645  0.0096  0.0768  0.1059
  100SAPS    HS10029   5.159   0.646   6.660 -0.0357 -0.4011  2.2198
  100SAPS   O2110030   5.380   0.641   6.660  0.3520 -0.4201  0.4926
  100SAPS   C2110031   5.373   0.771   6.694 -0.1653  0.5043  0.3028
  100SAPS   O2210032   5.273   0.830   6.732  0.1351  0.3526 -0.5375
  100SAPS   C2210033   5.510   0.833   6.698 -0.4961  0.5145 -0.1135
  100SAPS   H2R10034   5.569   0.802   6.609  1.9676  0.1846  1.5247
  100SAPS   H2S10035   5.489   0.942   6.700  0.5258  0.7144  0.6334
  100SAPS    C310036   5.236   0.458   6.749 -0.7578  0.4539  0.0170
  100SAPS    HX10037   5.323   0.400   6.713 -2.0746 -1.3878 -0.3480
  100SAPS    HY10038   5.151   0.388   6.735  0.1801 -0.3150 -2.4721
  100SAPS   O3110039   5.263   0.493   6.891  0.1523 -0.3409  0.4705
  100SAPS   C3110040   5.157   0.546   6.954 -0.3690 -0.1065  0.4245
  100SAPS   O3210041   5.045   0.560   6.897 -0.2441 -0.6752  0.0441
  100SAPS   C3210042   5.184   0.587   7.099 -0.4681 -0.1251  0.7722
  100SAPS   H2X10043   5.278   0.647   7.096 -0.8552  0.4574 -0.2500
  100SAPS   H2Y10044   5.198   0.497   7.162 -0.3150  0.3231  1.3852
  100SAPS   C2310045   5.603   0.790   6.817  0.5560  0.5773 -0.3233
  100SAPS   H3R10046   5.693   0.855   6.817  0.9118  0.1197 -1.5919
  100SAPS   H3S10047   5.622   0.681   6.803 -0.7875  0.5383 -2.4447
  100SAPS   C2410048   5.531   0.786   6.957 -0.6695  0.3667  0.1582
  100SAPS   H4R10049   5.448   0.712   6.958 -0.6063  0.2588 -0.8915
  100SAPS   H4S10050   5.484   0.886   6.968 -0.6226  0.5747 -1.2720
  100SAPS   C2510051   5.621   0.751   7.071 -0.0060  0.2580 -0.1668
  100SAPS   H5R10052   5.719   0.706   7.050  0.1319  0.5361 -0.1250
  100SAPS   C2610053   5.590   0.771   7.204  0.1646 -0.1709  0.4147
  100SAPS   H6R10054   5.645   0.729   7.290 -0.4070  0.6229  1.1824
  100SAPS   C2710055   5.465   0.836   7.262 -0.3216 -0.1057 -0.0405
  100SAPS   H7R10056   5.414   0.770   7.335 -0.3587 -0.0790 -0.0425
  100SAPS   H7S10057   5.396   0.864   7.180  0.0581 -0.9935 -0.6838
  100SAPS   C2810058   5.521   0.956   7.340 -0.4602 -0.0876 -0.4254
  100SAPS   H8R10059   5.595   1.019   7.287  0.7709 -1.1669 -0.0419
  100SAPS   C2910060   5.489   0.992   7.466  0.6805  0.1866 -1.3841
  100SAPS   H9R10061   5.540   1.081   7.506 -1.9814  0.8806  0.7504
  100SAPS  C21010062   5.401   0.930   7.576  0.3360 -0.6384 -0.2804
  100SAPS  H10R10063   5.440   0.941   7.679  0.7124  2.3455 -0.6759
  100SAPS  H10S10064   5.411   0.821   7.556 -1.4935 -0.8383 -0.3244
  100SAPS  C21110065   5.261   0.978   7.573 -0.2381 -0.4283 -0.0932
  100SAPS  H11R10066   5.211   0.956   7.478 -1.6614 -1.2677  0.8243
  100SAPS  C21210067   5.184   1.021   7.669  0.2760  0.2976  0.1819
  100SAPS  H12R10068   5.077   1.037   7.647 -0.2286 -0.2851  2.0061
  100SAPS  C21310069   5.226   1.037   7.815 -0.5046 -0.2836  0.3742
  100SAPS  H13R10070   5.228   1.144   7.845 -2.2208 -0.0517 -0.2047
  100SAPS  H13S10071   5.333   1.010   7.828 -0.5334 -1.3659 -1.4301
  100SAPS  C21410072   5.148   0.959   7.924 -0.3851 -0.4674 -0.2717
  100SAPS  H14R10073   5.052   0.995   7.965 -0.0188  0.4476 -0.2082
  100SAPS  C21510074   5.183   0.838   7.982 -0.1311  0.3252 -0.3484
  100SAPS  H15R10075   5.114   0.799   8.058  0.6025 -0.3279  0.0066
  100SAPS  C21610076   5.300   0.753   7.946  0.1548 -0.1382 -0.2531
  100SAPS  H16R10077   5.367   0.808   7.876  1.1476 -1.0365 -0.0238
  100SAPS  H16S10078   5.267   0.669   7.882 -1.7919  2.5914 -3.1702
  100SAPS  C21710079   5.383   0.709   8.068 -0.7999  0.2970  0.2378
  100SAPS  H17R10080   5.413   0.799   8.124  1.0991  0.0389 -0.2802
  100SAPS  H17S10081   5.480   0.662   8.040 -1.4418 -2.5135  2.3233
  100SAPS  C21810082   5.313   0.599   8.161  0.3330  0.2260  0.2936
  100SAPS  H18R10083   5.397   0.570   8.227  0.6692 -0.8780 -0.5768
  100SAPS  H18S10084   5.289   0.503   8.111 -0.6711  0.6029  0.0170
  100SAPS  C21910085   5.188   0.628   8.241  0.2876  0.4306  0.0654
  100SAPS  H19R10086   5.105   0.603   8.172 -1.0380 -1.0053  2.0659
  100SAPS  H19S10087   5.193   0.736   8.268 -0.4360  0.5903 -0.4062
  100SAPS  C22010088   5.171   0.536   8.368 -0.9051 -0.3968  0.1399
  100SAPS  H20R10089   5.264   0.546   8.429  0.1503 -0.6119 -1.3917
  100SAPS  H20S10090   5.157   0.431   8.336 -1.5941  0.1371 -1.4303
  100SAPS  H20T10091   5.088   0.569   8.434  0.0398  1.0365  0.6796
  100SAPS   C3310092   5.068   0.676   7.154 -0.1295  0.5398  0.4282
  100SAPS   H3X10093   4.974   0.621   7.131 -0.7804  2.3649 -1.6128
  100SAPS   H3Y10094   5.079   0.772   7.099 -1.3908  1.1856  1.2611
  100SAPS   C3410095   5.090   0.718   7.297  0.4778 -0.1846  0.4381
  100SAPS   H4X10096   5.019   0.802   7.310  3.1085  2.5235 -1.3901
  100SAPS   H4Y10097   5.183   0.778   7.305  0.7791 -0.3427 -1.4924
  100SAPS   C3510098   5.056   0.617   7.399  0.4560  0.5210 -0.5529
  100SAPS   H5X10099   5.147   0.554   7.408 -1.7575 -2.7811  0.7629
  100SAPS   H5Y10100   4.982   0.541   7.368  0.3957  1.1237 -1.9615
  100SAPS   C3610101   5.026   0.684   7.533 -0.2985  0.6725  0.1280
  100SAPS   H6X10102   4.932   0.743   7.525  1.0235  3.1078  1.3057
  100SAPS   H6Y10103   5.108   0.756   7.555 -0.7546  2.1373 -2.5590
  100SAPS   C3710104   5.008   0.591   7.650 -0.3546  0.4920 -0.4552
  100SAPS   H7X10105   5.105   0.542   7.670  1.2010  3.4260 -0.1680
  100SAPS   H7Y10106   4.927   0.519   7.626 -0.6974  0.3561  1.0076
  100SAPS   C3810107   4.959   0.662   7.780  0.1052 -0.8305 -0.2955
  100SAPS   H8X10108   5.013   0.757   7.799  0.5044 -0.4950 -2.6971
  100SAPS   H8Y10109   4.958   0.593   7.867 -1.5965 -0.8914 -0.3442
  100SAPS   C3910110   4.811   0.701   7.764  0.0892  0.1990  0.7902
  100SAPS   H9X10111   4.763   0.621   7.704  0.7433  0.5342 -0.1965
  100SAPS   H9Y10112   4.807   0.789   7.696 -0.8700 -1.1538 -0.9894
  100SAPS  C31010113   4.734   0.738   7.894 -0.3096  0.6318  0.4517
  100SAPS  H10X10114   4.763   0.670   7.977  0.3327 -0.2450 -0.4632
  100SAPS  H10Y10115   4.624   0.727   7.883 -0.2892  1.8816 -1.4179
  100SAPS  C31110116   4.773   0.879   7.943  0.9105 -0.0615  0.1304
  100SAPS  H11X10117   4.707   0.950   7.888  1.8949  0.6668 -0.1396
  100SAPS  H11Y10118   4.873   0.908   7.903  0.7258  2.2529  1.1425
  100SAPS  C31210119   4.750   0.898   8.089  0.1939  0.1504 -0.3066
  100SAPS  H12X10120   4.825   0.850   8.155 -0.8996  0.7675  1.4544
  100SAPS  H12Y10121   4.655   0.849   8.117  0.1039 -0.9131 -2.2609
  100SAPS  C31310122   4.734   1.043   8.132 -0.2755  0.8531  0.4106
  100SAPS  H13X10123   4.677   1.099   8.055 -1.2594  0.8148  1.0898
  100SAPS  H13Y10124   4.837   1.084   8.139  0.1530 -0.4313  2.3173
  100SAPS  C31410125   4.665   1.059   8.270  0.9656 -0.2160  0.1999
  100SAPS  H14X10126   4.677   0.975   8.341 -3.7880 -0.4868  0.9477
  100SAPS  H14Y10127   4.558   1.049   8.243  0.7516  1.0034  0.5438
  100SAPS  C31510128   4.683   1.193   8.341  0.0153  0.0473 -0.0286
  100SAPS  H15X10129   4.785   1.206   8.384  0.4749  0.3891 -1.1894
  100SAPS  H15Y10130   4.608   1.180   8.423 -1.8137  2.5146 -1.2125
  100SAPS  C31610131   4.637   1.313   8.256  0.4504  0.2028 -0.2849
  100SAPS  H16X10132   4.539   1.287   8.210  0.6657 -3.1056  0.8252
  100SAPS  H16Y10133   4.705   1.330   8.171 -0.7839  0.8231 -1.1728
  100SAPS  C31710134   4.624   1.446   8.329 -0.2787 -0.0817  0.7678
  100SAPS  H17X10135   4.599   1.519   8.249 -1.0242 -0.9844  0.1634
  100SAPS  H17Y10136   4.723   1.470   8.373 -0.1224  0.8047 -0.0394
  100SAPS  C31810137   4.509   1.449   8.432 -0.5658 -0.5957  0.0546
  100SAPS  H18X10138   4.521   1.544   8.489 -0.3573 -0.2872 -0.4890
  100SAPS  H18Y10139   4.503   1.366   8.505 -0.9032  1.3460  2.3458
  100SAPS  H18Z10140   4.408   1.450   8.384 -0.2364 -1.3441 -0.6811
  101OSM      N10141   4.424   2.623  10.685  0.3279  0.5610 -0.2774
  101OSM    C1510142   4.532   2.705  10.732 -0.3764 -0.7561 -0.1526
  101OSM   H15A10143   4.627   2.659  10.756  0.8688  1.5732 -0.2363
  101OSM   H15B10144   4.507   2.743  10.830  0.0303  1.6458 -0.8926
  101OSM   H15C10145   4.548   2.788  10.665 -2.3707 -0.7794 -0.7132
  101OSM    C1410146   4.442   2.553  10.558  0.1625 -0.0183 -0.4333
  101OSM   H14A10147   4.473   2.621  10.480 -1.9023 -0.8575 -2.0706
  101OSM   H14B10148   4.353   2.499  10.530 -0.5357  0.5457  0.6225
  101OSM   H14C10149   4.517   2.477  10.571  1.9312  1.5584 -0.9353
  101OSM    C1310150   4.395   2.519  10.789  0.6932  0.2614  0.6987
  101OSM   H13A10151   4.364   2.569  10.879 -2.3861 -1.6868  0.8685
  101OSM   H13B10152   4.482   2.456  10.807  1.0809  0.5398 -0.1378
  101OSM   H13C10153   4.311   2.457  10.763  0.2668  0.7573  0.8784
  101OSM    C1210154   4.301   2.715  10.678  0.6506  0.5450 -0.0243
  101OSM   H12A10155   4.212   2.655  10.659  2.4390 -1.8528 -1.4175
  101OSM   H12B10156   4.318   2.781  10.595  1.5426 -0.8673 -1.0238
  101OSM    C1110157   4.270   2.797  10.804  0.7554  0.9807  0.1170
  101OSM   H11A10158   4.176   2.856  10.790  0.1847 -0.1376 -0.9596
  101OSM   H11B10159   4.356   2.866  10.803  1.3019  0.3119  0.0588
  101OSM      P10160   4.124   2.662  10.978  0.0607 -0.0966 -0.0880
  101OSM    O1310161   4.150   2.542  11.065  0.4016  0.3895 -0.2139
  101OSM    O1410162   4.035   2.767  11.036 -0.4335 -0.4211 -1.1055
  101OSM    O1110163   4.060   2.625  10.843  0.3657  0.4146 -0.2698
  101OSM    O1210164   4.260   2.728  10.935 -0.0663  0.9213 -0.0415
  101OSM    C1S10165   3.948   2.696  10.787 -0.0862 -0.3961 -0.4824
  101OSM    H1S10166   3.994   2.787  10.744  0.6539  0.6869  2.3256
  101OSM    H1T10167   3.889   2.735  10.873  1.6990  0.2559  0.5171
  101OSM     NF10168   3.741   2.707  10.647  0.7425  0.0462 -0.7470
  101OSM    HNF10169   3.654   2.707  10.696  0.3959  0.4315 -1.3494
  101OSM    C2S10170   3.850   2.625  10.686 -0.5536  0.3994  0.1457
  101OSM    H2S10171   3.907   2.615  10.591 -1.8812  1.6861 -0.8397
  101OSM    C3S10172   3.810   2.488  10.747  0.5092  0.5874 -0.8765
  101OSM    H3S10173   3.754   2.518  10.838  1.2785  0.3163 -0.3023
  101OSM     O310174   3.923   2.405  10.792  0.2995  0.4197  0.1620
  101OSM    HO310175   3.993   2.471  10.787 -0.8272  1.5899 -1.5021
  101OSM    C4S10176   3.724   2.418  10.649  0.1832  0.0511  0.4252
  101OSM    H4S10177   3.619   2.448  10.655  1.0881  3.6615  0.2681
  101OSM    C5S10178   3.771   2.348  10.547 -0.5534  0.3344 -0.1955
  101OSM    H5S10179   3.879   2.347  10.527 -0.8811  0.8483 -2.1380
  101OSM    C6S10180   3.672   2.294  10.445 -0.0579  0.4178  0.8595
  101OSM    H6S10181   3.570   2.337  10.457  0.8681  3.4196 -1.0610
  101OSM    H6T10182   3.668   2.183  10.447 -0.4919  0.4407  2.0368
  101OSM    C7S10183   3.710   2.348  10.305 -0.2685  0.2446  0.2287
  101OSM    H7S10184   3.817   2.321  10.291 -0.2177 -0.7633  2.2790
  101OSM    H7T10185   3.685   2.456  10.307 -1.3576  0.0053 -0.0539
  101OSM    C8S10186   3.619   2.277  10.204  0.2033  0.3447 -0.1242
  101OSM    H8S10187   3.512   2.285  10.230 -0.1230  0.1135 -1.3157
  101OSM    H8T10188   3.639   2.169  10.216 -1.4103  0.0192 -0.1920
  101OSM    C9S10189   3.644   2.320  10.059  0.6276  0.0425 -0.3982
  101OSM    H9S10190   3.746   2.308  10.018  0.7340  0.1898 -0.1817
  101OSM    H9T10191   3.606   2.425  10.060  1.1934  0.3272 -2.8171
  101OSM   C10S10192   3.560   2.240   9.968  0.7170 -0.0510 -0.3190
  101OSM   H10S10193   3.463   2.215  10.015  0.1636  1.1376 -0.7748
  101OSM   H10T10194   3.625   2.151   9.955  1.3778 -0.5163  4.4072
  101OSM   C11S10195   3.536   2.304   9.831  0.3666 -0.1052 -0.1840
  101OSM   H11S10196   3.632   2.352   9.803  0.5028 -1.2957 -1.8432
  101OSM   H11T10197   3.443   2.365   9.824  1.2434  1.1185 -2.2617
  101OSM   C12S10198   3.544   2.196   9.724  0.9162 -0.5677  0.0671
  101OSM   H12S10199   3.488   2.104   9.752  1.0288 -0.3550  1.0379
  101OSM   H12T10200   3.651   2.167   9.716  1.5267  0.3338  3.2673
  101OSM   C13S10201   3.502   2.249   9.592  0.7004 -0.4421 -0.1972
  101OSM   H13S10202   3.533   2.355   9.588  1.1953 -0.5954 -0.4514
  101OSM   H13T10203   3.393   2.249   9.573  0.8754  1.0314 -1.2761
  101OSM   C14S10204   3.551   2.173   9.476 -0.7888  0.7100 -0.5975
  101OSM   H14S10205   3.542   2.063   9.483  1.7365  0.4464 -0.6236
  101OSM   H14T10206   3.661   2.186   9.477 -0.7806  0.6108  0.0287
  101OSM   C15S10207   3.488   2.208   9.338  0.1573 -0.2170 -0.5229
  101OSM   H15S10208   3.552   2.293   9.305  1.3042 -0.4443  0.9824
  101OSM   H15T10209   3.386   2.246   9.359  0.6312 -0.1983  1.9694
  101OSM   C16S10210   3.493   2.100   9.227  0.9037 -1.0490 -0.7735
  101OSM   H16S10211   3.409   2.028   9.240  2.3090 -3.1067 -2.4094
  101OSM   H16T10212   3.582   2.042   9.260  1.6534  0.4324 -0.0870
  101OSM   C17S10213   3.508   2.154   9.087 -0.2524 -0.0418 -0.1101
  101OSM   H17S10214   3.609   2.199   9.077 -0.6171  0.7875 -0.1264
  101OSM   H17T10215   3.427   2.230   9.077 -0.5506 -0.2526  0.6155
  101OSM   C18S10216   3.472   2.045   8.977  0.1034 -0.4495 -0.4887
  101OSM   H18S10217   3.547   1.963   8.970  2.0587  1.1389  0.8313
  101OSM   H18T10218   3.450   2.091   8.878 -2.0430  0.2701  0.2625
  101OSM   H18U10219   3.374   2.003   9.011  0.5730 -3.8839 -2.8540
  101OSM    C1F10220   3.771   2.804  10.557 -0.1536  0.7021  0.2491
  101OSM     OF10221   3.883   2.813  10.505 -0.0622 -0.2001  0.1167
  101OSM    C2F10222   3.659   2.893  10.530  0.1738  0.8852 -0.9007
  101OSM    H2F10223   3.674   2.982  10.594 -0.4160  0.5069 -0.2243
  101OSM    H2G10224   3.563   2.844  10.559  1.7799 -1.4956  0.7726
  101OSM    C3F10225   3.656   2.929  10.377  0.1223  0.3784 -0.3536
  101OSM    H3F10226   3.759   2.959  10.349  0.8163  0.0136  1.6450
  101OSM    H3G10227   3.595   3.022  10.375  0.2821  0.5138  0.5510
  101OSM    C4F10228   3.590   2.829  10.283  0.1563  0.3944  0.6623
  101OSM    H4F10229   3.485   2.810  10.315 -0.5666 -1.5322 -2.4025
  101OSM    H4G10230   3.643   2.734  10.303 -0.1873  0.3260  1.2589
  101OSM    C5F10231   3.575   2.870  10.129 -1.2554  0.0099  0.4377
  101OSM    H5F10232   3.675   2.904  10.096 -2.4168  2.4615 -0.8402
  101OSM    H5G10233   3.506   2.957  10.131 -1.7703 -0.3865  0.3802
  101OSM    C6F10234   3.508   2.762  10.041 -0.7992  0.2906  0.7371
  101OSM    H6F10235   3.401   2.759  10.072 -1.2290  2.2891 -0.3435
  101OSM    H6G10236   3.563   2.667  10.055  0.1426  0.4082 -1.5932
  101OSM    C7F10237   3.528   2.802   9.894  0.5696 -0.8563  0.0496
  101OSM    H7F10238   3.634   2.824   9.872 -0.2013  2.0003 -1.2625
  101OSM    H7G10239   3.473   2.898   9.882 -2.3377 -2.2955  1.0375
  101OSM    C8F10240   3.469   2.702   9.798  0.1993 -0.3938 -0.1076
  101OSM    H8F10241   3.502   2.597   9.813 -0.2573 -0.3649  1.1893
  101OSM    H8G10242   3.503   2.719   9.694 -0.3571 -1.2246 -0.4399
  101OSM    C9F10243   3.315   2.707   9.808  0.2073  0.2563  0.1404
  101OSM    H9F10244   3.287   2.689   9.913  2.9068 -2.1601  0.5633
  101OSM   C10F10245   3.230   2.722   9.707 -0.2241  0.2020 -0.1614
  101OSM   H10F10246   3.123   2.726   9.733 -0.1100  1.6042  0.1860
  101OSM   C11F10247   3.259   2.741   9.564 -0.7506  1.0187  0.6417
  101OSM   H11F10248   3.349   2.805   9.557  0.5795 -0.8931 -0.7376
  101OSM   H11G10249   3.182   2.804   9.513 -0.3036  2.4807  1.7111
  101OSM   C12F10250   3.295   2.622   9.481  0.1998  0.7810 -0.0168
  101OSM   H12F10251   3.207   2.555   9.467 -0.2955  1.2900  0.5903
  101OSM   H12G10252   3.378   2.571   9.535  2.2042  0.1114 -3.4315
  101OSM   C13F10253   3.336   2.675   9.344  0.3984  0.4030  1.3165
  101OSM   H13F10254   3.436   2.724   9.343  0.9221 -0.6077 -0.5069
  101OSM   H13G10255   3.265   2.750   9.303  1.3874 -0.6003 -2.6217
  101OSM   C14F10256   3.347   2.562   9.238  0.7403  0.6780 -0.1597
  101OSM   H14F10257   3.264   2.491   9.223  1.0719  0.0973  0.6990
  101OSM   H14G10258   3.432   2.505   9.282  0.6457 -0.2027 -1.0801
  101OSM   C15F10259   3.390   2.603   9.101 -0.8386 -0.2883 -0.2712
  101OSM   H15F10260   3.498   2.628   9.102  0.0729 -3.6824  2.0641
  101OSM   H15G10261   3.337   2.699   9.082 -2.3279 -0.7747  1.1864
  101OSM   C16F10262   3.364   2.502   8.989  0.5124 -0.3678  0.2707
  101OSM   H16F10263   3.287   2.430   9.024  0.2551 -1.0712 -1.6492
  101OSM   H16G10264   3.457   2.450   8.958  0.5266 -0.6962  0.8379
  101OSM   C17F10265   3.302   2.559   8.855  0.4300  0.6607 -0.1883
  101OSM   H17F10266   3.384   2.617   8.809  3.6090 -0.8020  3.2002
  101OSM   H17G10267   3.215   2.623   8.882 -0.8415  0.1737 -2.7304
  101OSM   C18F10268   3.251   2.455   8.751 -0.2640 -0.1501  0.4821
  101OSM   H18F10269   3.159   2.405   8.789 -1.2919  1.5271  0.2934
  101OSM   H18G10270   3.330   2.384   8.719  1.7742  2.0363  0.4446
  101OSM   H18H10271   3.210   2.518   8.670  0.5619 -0.7532 -0.4185
  102OSM      N10272   3.146   1.344  11.020 -0.2015  0.3924  0.2154
  102OSM    C1510273   3.078   1.449  11.098 -0.2721  0.2148  0.2104
  102OSM   H15A10274   2.974   1.462  11.074 -1.1353 -2.5029  1.9823
  102OSM   H15B10275   3.126   1.543  11.078  0.0736 -0.3444 -1.7784
  102OSM   H15C10276   3.087   1.415  11.200 -0.9230  0.3736  0.3227
  102OSM    C1410277   3.291   1.328  11.052  0.0202  0.1624  0.2132
  102OSM   H14A10278   3.329   1.228  11.037 -0.5937 -0.3812  1.9758
  102OSM   H14B10279   3.301   1.340  11.159 -1.5332 -1.5879  0.6140
  102OSM   H14C10280   3.358   1.402  11.010 -0.1957  0.2578  0.0404
  102OSM    C1310281   3.080   1.209  11.050  0.5334  0.3490  0.7783
  102OSM   H13A10282   3.086   1.179  11.154 -2.5069  1.6738  1.4526
  102OSM   H13B10283   3.118   1.127  10.991 -1.7007 -2.3287  2.8122
  102OSM   H13C10284   2.978   1.221  11.019  0.3657  1.1753  1.6098
  102OSM    C1210285   3.124   1.368  10.869  0.3988  0.6930  0.4509
  102OSM   H12A10286   3.172   1.292  10.809 -2.4019 -0.1468 -0.8716
  102OSM   H12B10287   3.178   1.460  10.852 -1.1423  1.9729  2.1529
  102OSM    C1110288   2.974   1.391  10.811 -0.2613 -0.8110  0.3606
  102OSM   H11A10289   2.914   1.298  10.808 -2.1899  0.4234 -1.9462
  102OSM   H11B10290   2.976   1.406  10.701 -0.1737 -0.5737  0.3937
  102OSM      P10291   2.936   1.650  10.835  0.4297  0.2077  0.0326
  102OSM    O1310292   2.843   1.730  10.918 -0.3555  0.5509 -0.1565
  102OSM    O1410293   3.083   1.681  10.839  0.3240 -0.4194 -0.0801
  102OSM    O1110294   2.894   1.656  10.687  0.3730  0.0870 -0.2449
  102OSM    O1210295   2.908   1.498  10.877 -0.3707 -0.8514 -0.0718
  102OSM    C1S10296   2.770   1.614  10.635  0.0969  0.3277  0.7634
  102OSM    H1S10297   2.691   1.679  10.677 -2.6161 -1.5829 -1.0832
  102OSM    H1T10298   2.756   1.507  10.659  0.8474 -0.2829 -1.3097
  102OSM     NF10299   2.625   1.621  10.434  0.0951  0.4870  0.1605
  102OSM    HNF10300   2.588   1.528  10.432 -2.0119  1.2848  0.1087
  102OSM    C2S10301   2.769   1.625  10.480 -0.0223  0.5478 -0.1782
  102OSM    H2S10302   2.809   1.723  10.448 -2.5394  1.6500 -0.1793
  102OSM    C3S10303   2.862   1.517  10.418 -0.2586  1.0591 -0.3478
  102OSM    H3S10304   2.817   1.420  10.449 -0.8314  1.1946 -0.7485
  102OSM     O310305   2.992   1.530  10.465  0.4170  0.4411 -0.5588
  102OSM    HO310306   2.995   1.596  10.536 -1.5091  1.4735 -1.3508
  102OSM    C4S10307   2.873   1.530  10.274  0.5753  0.0813  0.9515
  102OSM    H4S10308   2.925   1.618  10.234 -3.0374  2.7982  1.7241
  102OSM    C5S10309   2.825   1.441  10.190  0.0310  0.6820  0.2852
  102OSM    H5S10310   2.772   1.352  10.226 -0.2959  0.4216 -0.7945
  102OSM    C6S10311   2.807   1.453  10.036  0.0200  0.0114  0.3823
  102OSM    H6S10312   2.699   1.433  10.018 -0.6856  0.4408  3.5416
  102OSM    H6T10313   2.863   1.365   9.996  0.8922  0.8430 -0.2791
  102OSM    C7S10314   2.845   1.584   9.979 -0.1911  0.1376 -0.2374
  102OSM    H7S10315   2.955   1.595   9.985 -0.2103  1.0605 -1.2499
  102OSM    H7T10316   2.805   1.675  10.027  1.5503  0.1365  1.3154
  102OSM    C8S10317   2.814   1.602   9.824 -0.0331 -0.5391 -0.5031
  102OSM    H8S10318   2.850   1.704   9.798 -0.0405 -0.2765  0.4786
  102OSM    H8T10319   2.704   1.589   9.812 -0.1136 -0.5661  0.2104
  102OSM    C9S10320   2.902   1.497   9.749  0.4814  0.2381  0.1859
  102OSM    H9S10321   2.879   1.394   9.785  0.4325  0.6317  1.3528
  102OSM    H9T10322   3.008   1.514   9.779  0.4171  1.4166 -0.1930
  102OSM   C10S10323   2.881   1.511   9.598 -0.2190 -0.1413  0.0659
  102OSM   H10S10324   2.920   1.614   9.581 -1.4765  0.0395 -2.1379
  102OSM   H10T10325   2.773   1.517   9.576 -0.2990 -0.3170  0.4046
  102OSM   C11S10326   2.957   1.413   9.512 -0.1280 -0.1312 -0.8327
  102OSM   H11S10327   2.920   1.310   9.530  0.9720 -0.5379 -0.7872
  102OSM   H11T10328   3.065   1.402   9.536  0.0535  2.4279 -0.2020
  102OSM   C12S10329   2.952   1.463   9.367 -0.2711 -0.5861  0.1220
  102OSM   H12S10330   2.999   1.564   9.366  1.4249 -1.3393 -1.2070
  102OSM   H12T10331   2.846   1.476   9.337 -0.0034  1.1984 -0.1506
  102OSM   C13S10332   3.017   1.373   9.268 -0.4353 -0.2989  0.2133
  102OSM   H13S10333   3.121   1.352   9.303  0.3941  2.0354 -0.6153
  102OSM   H13T10334   3.026   1.443   9.182  1.7219  1.3400  1.6581
  102OSM   C14S10335   2.938   1.241   9.230 -0.4202  0.1203 -0.4049
  102OSM   H14S10336   2.829   1.263   9.235 -0.5668  0.1263 -2.6676
  102OSM   H14T10337   2.956   1.170   9.313 -0.5473  2.3901  1.6900
  102OSM   C15S10338   3.004   1.184   9.107  0.5650 -0.1539  0.2339
  102OSM   H15S10339   3.001   1.074   9.119  0.6994  0.0307  2.4742
  102OSM   H15T10340   3.111   1.213   9.108  0.7465 -0.8058  0.2119
  102OSM   C16S10341   2.946   1.240   8.981 -0.2893  0.0605 -0.0262
  102OSM   H16S10342   3.013   1.199   8.902 -0.3734 -2.2237  0.9872
  102OSM   H16T10343   2.949   1.350   8.991 -0.4860 -0.0302  1.2205
  102OSM   C17S10344   2.798   1.202   8.953 -0.0967  0.0589  0.0731
  102OSM   H17S10345   2.754   1.263   9.035  0.9549  0.1899  0.5449
  102OSM   H17T10346   2.788   1.096   8.983  1.9451 -0.4152 -0.7561
  102OSM   C18S10347   2.745   1.230   8.810  0.2695  0.0132  0.0063
  102OSM   H18S10348   2.788   1.322   8.764 -0.7776  0.7937  0.5527
  102OSM   H18T10349   2.637   1.254   8.808  0.8187  3.5513  2.5105
  102OSM   H18U10350   2.764   1.144   8.743 -3.2057 -1.7683  1.0853
  102OSM    C1F10351   2.545   1.728  10.441 -0.0432  0.7636 -0.0455
  102OSM     OF10352   2.597   1.835  10.459 -0.0343 -0.0256 -1.0873
  102OSM    C2F10353   2.398   1.703  10.438 -0.1019 -0.1195  0.6936
  102OSM    H2F10354   2.355   1.803  10.459  0.2756  0.1759  0.1181
  102OSM    H2G10355   2.375   1.633  10.520  0.4866 -1.0703  0.0634
  102OSM    C3F10356   2.353   1.658  10.298 -0.2729 -0.0819  0.2865
  102OSM    H3F10357   2.243   1.667  10.308 -0.5834 -3.0309  0.3575
  102OSM    H3G10358   2.379   1.554  10.267 -0.1379  0.3839 -1.2485
  102OSM    C4F10359   2.379   1.759  10.190 -0.0014  0.2727  0.6079
  102OSM    H4F10360   2.486   1.771  10.164 -0.2804  0.1280 -0.6409
  102OSM    H4G10361   2.336   1.860  10.208 -1.3623  0.1137 -1.4292
  102OSM    C5F10362   2.300   1.743  10.061  0.3201 -0.2918  0.2533
  102OSM    H5F10363   2.324   1.821   9.986 -2.0702 -0.8639 -1.2125
  102OSM    H5G10364   2.190   1.743  10.074  0.0512 -0.5129 -1.7441
  102OSM    C6F10365   2.315   1.604   9.990 -0.1087 -0.0933  0.5009
  102OSM    H6F10366   2.271   1.537  10.067 -0.6907  1.1254  1.2582
  102OSM    H6G10367   2.421   1.574   9.984 -0.3140 -0.9956  1.2258
  102OSM    C7F10368   2.245   1.584   9.855  0.0992  0.2534 -0.1548
  102OSM    H7F10369   2.269   1.657   9.775 -0.2520 -0.8205 -1.2647
  102OSM    H7G10370   2.139   1.608   9.879 -0.5171  0.2018 -2.6057
  102OSM    C8F10371   2.272   1.452   9.795 -0.2685 -0.0162 -0.4525
  102OSM    H8F10372   2.190   1.431   9.723 -0.9060  2.7194 -0.6283
  102OSM    H8G10373   2.257   1.370   9.868  2.1632 -0.8527 -0.7990
  102OSM    C9F10374   2.408   1.429   9.727 -0.2558  0.0843  0.3592
  102OSM    H9F10375   2.498   1.451   9.787 -1.8866  0.8540  2.7025
  102OSM   C10F10376   2.430   1.389   9.599  0.3299  0.1081 -0.2142
  102OSM   H10F10377   2.533   1.372   9.566  1.3390  0.0300  2.7568
  102OSM   C11F10378   2.331   1.357   9.495  0.1866 -0.0051 -0.3844
  102OSM   H11F10379   2.257   1.440   9.490 -1.2523 -1.2345 -0.4357
  102OSM   H11G10380   2.259   1.278   9.526 -1.3357  1.3709 -0.2590
  102OSM   C12F10381   2.390   1.330   9.353  0.5648  0.4057 -0.3548
  102OSM   H12F10382   2.434   1.229   9.361 -0.4726 -0.1667 -1.5342
  102OSM   H12G10383   2.477   1.399   9.344 -0.3877  1.5131 -1.3544
  102OSM   C13F10384   2.288   1.349   9.237  0.5404 -0.0087  0.6215
  102OSM   H13F10385   2.215   1.432   9.248 -3.0717 -2.9855  1.0710
  102OSM   H13G10386   2.229   1.259   9.263  0.2854  0.3430  1.2824
  102OSM   C14F10387   2.366   1.348   9.104  0.4234 -0.1601 -0.6043
  102OSM   H14F10388   2.435   1.261   9.101  2.1774  1.0768  1.3154
  102OSM   H14G10389   2.434   1.436   9.093 -1.6134  1.5872  0.1626
  102OSM   C15F10390   2.279   1.346   8.975  0.5658 -0.0413  0.1972
  102OSM   H15F10391   2.194   1.417   8.977  1.1269  0.6331  0.5072
  102OSM   H15G10392   2.236   1.244   8.981  1.1460 -0.2199  1.8745
  102OSM   C16F10393   2.364   1.372   8.848  0.1864  0.3704  0.0270
  102OSM   H16F10394   2.410   1.281   8.804 -2.4075 -0.4431 -1.1902
  102OSM   H16G10395   2.436   1.457   8.850 -1.9263  2.2828 -0.6375
  102OSM   C17F10396   2.258   1.415   8.729 -0.4914 -0.3677 -0.3629
  102OSM   H17F10397   2.317   1.453   8.643 -0.8989 -0.1068 -0.5269
  102OSM   H17G10398   2.200   1.499   8.774 -1.5492 -0.4502 -1.5062
  102OSM   C18F10399   2.159   1.300   8.686 -0.1000 -0.0480 -0.8959
  102OSM   H18F10400   2.129   1.250   8.780 -1.1450 -0.2120 -1.2937
  102OSM   H18G10401   2.215   1.229   8.620 -0.6095  0.5974 -2.0668
  102OSM   H18H10402   2.068   1.342   8.636  0.1644  1.3059 -0.2677
  103OSM      N10403   5.618   5.268  11.144  0.0694  0.3509 -1.0881
  103OSM    C1510404   5.629   5.388  11.217  0.4248 -0.1652 -0.7076
  103OSM   H15A10405   5.618   5.379  11.324 -0.9567 -1.0103 -0.8855
  103OSM   H15B10406   5.565   5.470  11.187  0.0021 -0.4801 -0.6816
  103OSM   H15C10407   5.729   5.426  11.204  0.8153 -0.9782 -0.1567
  103OSM    C1410408   5.698   5.156  11.206  0.8884 -0.6300 -0.8038
  103OSM   H14A10409   5.802   5.180  11.213  1.0872 -1.7926  4.6637
  103OSM   H14B10410   5.679   5.065  11.150  0.9320 -0.6226 -0.8292
  103OSM   H14C10411   5.665   5.140  11.308  0.8775  1.8636 -0.3508
  103OSM    C1310412   5.473   5.227  11.144  0.3835  0.8655  0.2333
  103OSM   H13A10413   5.475   5.129  11.100 -0.9383  1.7444 -1.9221
  103OSM   H13B10414   5.401   5.299  11.108 -0.5005 -0.5098 -0.8717
  103OSM   H13C10415   5.435   5.205  11.243  0.8661  2.9913  0.9525
  103OSM    C1210416   5.671   5.273  11.005 -0.3361 -0.3083 -0.0710
  103OSM   H12A10417   5.621   5.357  10.960  0.1362 -1.0261 -2.0264
  103OSM   H12B10418   5.640   5.186  10.948  2.9299 -0.9921 -0.9913
  103OSM    C1110419   5.825   5.285  10.982 -0.3484 -0.1755  0.0990
  103OSM   H11A10420   5.838   5.285  10.872  1.8245  1.0484  0.3054
  103OSM   H11B10421   5.884   5.192  11.003  1.0209  0.8611  1.0101
  103OSM      P10422   5.878   5.546  10.977  0.0141 -0.0421  0.2833
  103OSM    O1310423   5.804   5.630  11.076 -0.4345 -0.3853 -0.1358
  103OSM    O1410424   6.015   5.587  10.951 -0.1738  0.8623 -0.1864
  103OSM    O1110425   5.799   5.523  10.836 -0.3041  0.1775  0.1937
  103OSM    O1210426   5.892   5.394  11.035 -0.1051  0.0327  0.1373
  103OSM    C1S10427   5.763   5.636  10.754  0.1996 -0.1228  0.3753
  103OSM    H1S10428   5.849   5.704  10.739  0.1346 -0.2767 -0.7882
  103OSM    H1T10429   5.696   5.704  10.810  1.4013 -1.0037  3.0536
  103OSM     NF10430   5.662   5.715  10.553 -0.1516  0.3005 -0.0540
  103OSM    HNF10431   5.564   5.734  10.557 -0.2153 -0.1393  0.7057
  103OSM    C2S10432   5.700   5.593  10.622 -0.2131  0.6121  0.1196
  103OSM    H2S10433   5.774   5.542  10.558  1.0624  0.7811  1.3979
  103OSM    C3S10434   5.582   5.489  10.644 -0.8284 -0.8333  0.3497
  103OSM    H3S10435   5.507   5.525  10.718  0.6530 -1.6144  2.2908
  103OSM     O310436   5.619   5.372  10.714 -0.2252  0.1503 -0.1053
  103OSM    HO310437   5.707   5.392  10.749  0.7555  0.0234 -2.3425
  103OSM    C4S10438   5.521   5.443  10.513  0.4825  0.5648  0.5283
  103OSM    H4S10439   5.597   5.416  10.439 -2.0029 -3.1079 -1.0174
  103OSM    C5S10440   5.394   5.429  10.477 -0.1291 -0.2883 -0.3298
  103OSM    H5S10441   5.309   5.456  10.540  0.0550 -1.0455  0.2655
  103OSM    C6S10442   5.344   5.384  10.343  0.0055  0.2366  0.3432
  103OSM    H6S10443   5.272   5.455  10.297 -0.0499 -1.4627 -2.4257
  103OSM    H6T10444   5.276   5.297  10.353 -0.5127  0.7985  1.8080
  103OSM    C7S10445   5.451   5.346  10.237 -0.0579  0.2374  0.0020
  103OSM    H7S10446   5.523   5.278  10.286  0.6730  2.2059  1.8237
  103OSM    H7T10447   5.507   5.435  10.202 -0.7554  0.6194 -0.1665
  103OSM    C8S10448   5.388   5.261  10.126  0.0721 -0.4361  0.3907
  103OSM    H8S10449   5.323   5.322  10.059  0.3720 -1.5800 -0.9750
  103OSM    H8T10450   5.314   5.189  10.169  1.0430 -0.9651  1.2021
  103OSM    C9S10451   5.490   5.176  10.057 -0.4417  0.3430 -0.3877
  103OSM    H9S10452   5.522   5.084  10.110 -2.4696  0.6608  1.5166
  103OSM    H9T10453   5.584   5.226  10.026  0.1232 -1.4394 -1.7457
  103OSM   C10S10454   5.422   5.131   9.927  0.4503 -0.0319 -0.0693
  103OSM   H10S10455   5.383   5.223   9.878  2.1783  0.2705 -0.9422
  103OSM   H10T10456   5.336   5.061   9.933 -1.0032  1.4633 -2.1690
  103OSM   C11S10457   5.519   5.090   9.816 -0.0657 -0.5468  0.7923
  103OSM   H11S10458   5.575   5.001   9.853  0.5305  0.4258  2.3340
  103OSM   H11T10459   5.596   5.165   9.789 -0.7708 -0.3597 -0.8097
  103OSM   C12S10460   5.453   5.058   9.680  0.2291  0.4911 -0.2507
  103OSM   H12S10461   5.404   5.151   9.644  2.0408  1.4785 -0.3270
  103OSM   H12T10462   5.374   4.981   9.693  1.0703 -0.5021 -0.8944
  103OSM   C13S10463   5.556   5.012   9.569 -0.4781 -0.0304 -0.5343
  103OSM   H13S10464   5.603   4.914   9.590  3.8564  1.0793 -3.6473
  103OSM   H13T10465   5.639   5.084   9.586 -3.0064  2.8679  0.5969
  103OSM   C14S10466   5.513   5.030   9.427  0.6727 -0.3534 -0.2117
  103OSM   H14S10467   5.485   5.134   9.400 -1.2936 -0.7307  0.2791
  103OSM   H14T10468   5.423   4.966   9.413 -0.1686  1.0420 -1.4109
  103OSM   C15S10469   5.622   4.967   9.335 -0.4345 -0.0558 -0.1320
  103OSM   H15S10470   5.641   4.861   9.362  0.8649  0.5152  1.2864
  103OSM   H15T10471   5.717   5.022   9.347 -0.7430  0.2732  0.9364
  103OSM   C16S10472   5.569   4.983   9.187 -0.3812  0.0546 -0.2481
  103OSM   H16S10473   5.574   5.093   9.172  0.3555  0.1522  0.5721
  103OSM   H16T10474   5.463   4.950   9.188 -0.0089 -1.1796 -0.1720
  103OSM   C17S10475   5.654   4.915   9.077  0.1337  0.0594 -0.0624
  103OSM   H17S10476   5.684   4.814   9.111 -1.6832 -0.0546  1.3870
  103OSM   H17T10477   5.752   4.964   9.065  0.3639 -0.5308 -0.6198
  103OSM   C18S10478   5.566   4.901   8.946 -0.3263 -0.2262 -0.5755
  103OSM   H18S10479   5.475   4.838   8.958 -1.2724  1.1234 -0.4259
  103OSM   H18T10480   5.633   4.856   8.870  1.0916  0.1761  0.4065
  103OSM   H18U10481   5.534   5.002   8.916  2.8333  0.5915 -1.5582
  103OSM    C1F10482   5.746   5.809  10.507 -0.5130 -0.2701  0.1314
  103OSM     OF10483   5.863   5.797  10.515 -0.3043  0.2418  0.1527
  103OSM    C2F10484   5.686   5.926  10.433 -0.6147  0.2191  0.1405
  103OSM    H2F10485   5.774   5.974  10.384  1.6279 -1.9463  1.8171
  103OSM    H2G10486   5.647   5.999  10.506 -1.6433  1.7046 -1.8136
  103OSM    C3F10487   5.578   5.890  10.317  0.3887 -0.3789  0.2412
  103OSM    H3F10488   5.579   5.989  10.267 -0.4227 -1.4063 -1.9378
  103OSM    H3G10489   5.475   5.869  10.354 -0.3086  0.2749 -1.2579
  103OSM    C4F10490   5.619   5.790  10.207  0.0073  0.5094 -0.2396
  103OSM    H4F10491   5.646   5.686  10.236 -2.6822 -0.0764  0.3918
  103OSM    H4G10492   5.704   5.838  10.153 -0.0665  1.3496  0.3730
  103OSM    C5F10493   5.497   5.771  10.116  0.7742  0.2305  0.4265
  103OSM    H5F10494   5.456   5.866  10.078  0.4441 -0.1200 -0.1096
  103OSM    H5G10495   5.418   5.711  10.166  1.7733 -1.4506  0.0950
  103OSM    C6F10496   5.531   5.681   9.998  0.2072  0.8261 -0.0844
  103OSM    H6F10497   5.566   5.584  10.037  1.0101  1.2277  0.2217
  103OSM    H6G10498   5.613   5.713   9.930  0.1952 -1.8014 -1.4275
  103OSM    C7F10499   5.411   5.660   9.902  0.4374  0.5742  0.3028
  103OSM    H7F10500   5.364   5.754   9.867  0.3606  0.3825 -0.1174
  103OSM    H7G10501   5.335   5.608   9.964  0.4279  0.4606  0.1968
  103OSM    C8F10502   5.444   5.570   9.782 -0.2967  0.1149  0.0688
  103OSM    H8F10503   5.352   5.550   9.722  1.3990 -2.2836 -1.9852
  103OSM    H8G10504   5.478   5.475   9.829  0.4657  0.3793  0.0572
  103OSM    C9F10505   5.558   5.644   9.709 -0.7341  0.0703 -0.1642
  103OSM    H9F10506   5.662   5.637   9.744  0.1278  0.6213 -2.3976
  103OSM   C10F10507   5.547   5.700   9.585  0.2706 -0.4789  0.2889
  103OSM   H10F10508   5.630   5.757   9.540  0.4274 -1.0858 -0.2075
  103OSM   C11F10509   5.423   5.704   9.498  0.1702 -0.6563  0.0505
  103OSM   H11F10510   5.385   5.808   9.486 -0.3788 -0.7515  0.8720
  103OSM   H11G10511   5.338   5.644   9.537  0.0161  0.0956  0.8895
  103OSM   C12F10512   5.452   5.641   9.359 -0.4756 -0.2140  0.0445
  103OSM   H12F10513   5.461   5.530   9.367 -0.3371 -0.2406 -0.4609
  103OSM   H12G10514   5.547   5.692   9.329 -1.7108  3.9289  2.3869
  103OSM   C13F10515   5.351   5.683   9.252  0.2290  0.3116 -0.2228
  103OSM   H13F10516   5.248   5.651   9.277  1.1722 -2.4123  0.5507
  103OSM   H13G10517   5.357   5.794   9.250  1.4618  0.3174  1.3814
  103OSM   C14F10518   5.390   5.629   9.117 -0.4574  0.6895  0.4222
  103OSM   H14F10519   5.494   5.668   9.105  0.4059 -0.8915  2.2499
  103OSM   H14G10520   5.324   5.673   9.040  0.5191 -0.2797 -1.0183
  103OSM   C15F10521   5.399   5.472   9.102  0.2719  0.2314  0.7580
  103OSM   H15F10522   5.312   5.424   9.153 -0.4124  0.9181  0.2584
  103OSM   H15G10523   5.485   5.423   9.153  0.3410 -0.7694 -0.2753
  103OSM   C16F10524   5.391   5.436   8.955 -0.1310  0.5929  0.1784
  103OSM   H16F10525   5.288   5.452   8.917 -0.7999 -0.1211  1.5947
  103OSM   H16G10526   5.408   5.327   8.959 -0.9855  0.4919  2.0809
  103OSM   C17F10527   5.489   5.513   8.869  0.4708  0.0645 -0.1201
  103OSM   H17F10528   5.585   5.520   8.924  0.6380  0.2048 -0.4298
  103OSM   H17G10529   5.459   5.620   8.873 -1.0926 -0.3405 -0.3696
  103OSM   C18F10530   5.501   5.473   8.725 -0.1683 -0.3727 -0.1148
  103OSM   H18F10531   5.400   5.485   8.681 -0.7477 -0.4614  1.1388
  103OSM   H18G10532   5.541   5.371   8.710  0.8036 -0.4637  2.5878
  103OSM   H18H10533   5.564   5.542   8.665 -1.2969  0.1422 -0.7383
  104OSM      N10534   1.634   4.247  10.916 -0.4426 -0.6591  1.4748
  104OSM    C1510535   1.601   4.271  11.063 -0.5301  0.5608  1.4372
  104OSM   H15A10536   1.675   4.227  11.129 -1.5746 -0.9345  1.6586
  104OSM   H15B10537   1.505   4.224  11.078  0.2502 -1.2627  1.0349
  104OSM   H15C10538   1.582   4.376  11.078 -2.8853  0.2979  0.7071
  104OSM    C1410539   1.772   4.287  10.878  0.4032 -0.0256  0.6001
  104OSM   H14A10540   1.793   4.386  10.916  1.9695  0.0895 -0.4735
  104OSM   H14B10541   1.799   4.281  10.773  1.5735  2.9860  0.6057
  104OSM   H14C10542   1.844   4.226  10.930 -1.7154 -0.2234  3.5308
  104OSM    C1310543   1.631   4.093  10.901 -0.1415 -0.0942 -0.0032
  104OSM   H13A10544   1.706   4.045  10.963 -0.0371  1.1952  0.9211
  104OSM   H13B10545   1.655   4.080  10.797  1.4347  0.9463  0.1908
  104OSM   H13C10546   1.535   4.050  10.928  0.9291 -3.3846 -0.9577
  104OSM    C1210547   1.528   4.320  10.836  0.9195 -0.7104  0.0566
  104OSM   H12A10548   1.539   4.427  10.848  0.0942 -0.8274  2.1983
  104OSM   H12B10549   1.430   4.301  10.875  1.0357  0.8516  1.2364
  104OSM    C1110550   1.522   4.289  10.681 -0.2134 -0.4554 -0.9718
  104OSM   H11A10551   1.619   4.332  10.646 -0.4727  2.0669  1.0691
  104OSM   H11B10552   1.456   4.348  10.613 -0.0962 -0.5376 -1.1588
  104OSM      P10553   1.414   4.080  10.575  0.2011  0.0588  0.3289
  104OSM    O1310554   1.456   3.951  10.519  0.0191 -0.4568  0.4354
  104OSM    O1410555   1.298   4.083  10.666 -0.2840 -0.2761 -0.8899
  104OSM    O1110556   1.381   4.179  10.456  0.2734  0.1353 -0.6294
  104OSM    O1210557   1.525   4.148  10.652  0.2428 -0.7092  0.5085
  104OSM    C1S10558   1.469   4.252  10.380  0.5514 -0.0718 -0.3079
  104OSM    H1S10559   1.574   4.242  10.416  0.3839  3.4042  1.6004
  104OSM    H1T10560   1.447   4.361  10.388 -1.6373 -0.4758 -0.4502
  104OSM     NF10561   1.559   4.321  10.161  0.0427 -0.3996 -0.5788
  104OSM    HNF10562   1.504   4.366  10.091  1.8551 -1.0330 -2.5113
  104OSM    C2S10563   1.486   4.216  10.229  0.5967  0.6671  0.3014
  104OSM    H2S10564   1.553   4.127  10.229  1.9216  1.6183 -1.0501
  104OSM    C3S10565   1.354   4.171  10.158 -0.3847 -0.8470 -0.0830
  104OSM    H3S10566   1.280   4.254  10.150  0.1293 -0.3346  0.4309
  104OSM     O310567   1.277   4.079  10.234  0.0269  0.0049  0.4800
  104OSM    HO310568   1.310   4.075  10.324 -0.7707 -1.0565  0.7487
  104OSM    C4S10569   1.389   4.118  10.027  0.5013 -0.2026 -0.3035
  104OSM    H4S10570   1.395   4.202   9.956  0.3373 -0.4846 -0.6527
  104OSM    C5S10571   1.434   3.994   9.994 -0.4219  0.1701 -0.4169
  104OSM    H5S10572   1.439   3.915  10.071 -0.2970  1.5540  1.0444
  104OSM    C6S10573   1.484   3.952   9.862  0.0045  0.4400  0.6458
  104OSM    H6S10574   1.429   3.868   9.816  1.5241 -1.0170  1.3918
  104OSM    H6T10575   1.588   3.916   9.872  0.4171  1.4539  0.1866
  104OSM    C7S10576   1.506   4.070   9.766 -0.5253 -0.0121 -0.4463
  104OSM    H7S10577   1.567   4.154   9.805 -1.8361 -0.4558  2.9382
  104OSM    H7T10578   1.408   4.116   9.740  0.6542  2.0439 -1.4449
  104OSM    C8S10579   1.579   4.019   9.635  0.2761 -0.7838 -0.3534
  104OSM    H8S10580   1.665   3.951   9.657  3.0601  2.4531 -0.4687
  104OSM    H8T10581   1.618   4.111   9.587  0.9836  0.2131  1.9594
  104OSM    C9S10582   1.493   3.943   9.539  0.9478  0.4904 -0.4130
  104OSM    H9S10583   1.410   4.010   9.508 -1.2226 -1.1162  1.5557
  104OSM    H9T10584   1.446   3.861   9.597  0.5906  0.7566 -0.3235
  104OSM   C10S10585   1.562   3.876   9.431 -0.1316  0.4568 -0.3268
  104OSM   H10S10586   1.587   3.773   9.463 -0.7081  0.3703 -0.1517
  104OSM   H10T10587   1.660   3.924   9.407 -1.0961  2.8442  0.1756
  104OSM   C11S10588   1.480   3.875   9.298 -1.0424  0.2001  0.2841
  104OSM   H11S10589   1.449   3.977   9.265 -1.4878 -0.5691 -1.8513
  104OSM   H11T10590   1.391   3.811   9.318 -1.1603 -0.7741 -2.7820
  104OSM   C12S10591   1.540   3.810   9.182  0.5078  0.3491 -0.1601
  104OSM   H12S10592   1.459   3.775   9.114 -0.4623 -1.9328  2.0023
  104OSM   H12T10593   1.582   3.714   9.220 -1.5501 -0.6096 -0.1556
  104OSM   C13S10594   1.638   3.899   9.105 -0.2885 -0.3954 -0.9359
  104OSM   H13S10595   1.692   3.978   9.161  0.3061 -0.0430 -1.9785
  104OSM   H13T10596   1.578   3.958   9.032  0.2727  3.1579  1.2512
  104OSM   C14S10597   1.739   3.810   9.028 -0.0119  0.6346  0.0219
  104OSM   H14S10598   1.783   3.883   8.956  1.2590  0.3000  0.4368
  104OSM   H14T10599   1.686   3.733   8.968  2.0569 -0.7593 -0.1569
  104OSM   C15S10600   1.860   3.758   9.113 -0.8822 -0.4311  0.3145
  104OSM   H15S10601   1.824   3.731   9.215  2.1738 -0.7776  1.4112
  104OSM   H15T10602   1.933   3.840   9.126 -0.8995  0.1849 -2.7575
  104OSM   C16S10603   1.928   3.638   9.045  0.0635 -0.5253  0.8574
  104OSM   H16S10604   1.915   3.648   8.935 -0.3064 -1.1564  0.8373
  104OSM   H16T10605   1.876   3.543   9.070 -0.4154  0.0348  2.0932
  104OSM   C17S10606   2.079   3.630   9.056 -0.4845  0.4117 -0.3438
  104OSM   H17S10607   2.101   3.616   9.164  1.1556 -2.2689 -0.9239
  104OSM   H17T10608   2.121   3.724   9.014 -1.5885 -0.1060 -2.7963
  104OSM   C18S10609   2.127   3.500   8.987 -0.5031  0.5371  0.4376
  104OSM   H18S10610   2.146   3.509   8.878  0.5106  1.2986  0.6641
  104OSM   H18T10611   2.059   3.412   8.994  2.9018 -2.2654  0.7798
  104OSM   H18U10612   2.212   3.461   9.046  0.3512  1.3533 -0.2162
  104OSM    C1F10613   1.683   4.356  10.188  0.0786  1.2989  0.1039
  104OSM     OF10614   1.746   4.297  10.269 -0.3118  1.0457  0.1331
  104OSM    C2F10615   1.731   4.483  10.131  0.1870 -0.4247 -0.3002
  104OSM    H2F10616   1.781   4.540  10.212  0.5331  0.0121 -0.8065
  104OSM    H2G10617   1.649   4.552  10.101 -0.0361 -0.7162 -0.3631
  104OSM    C3F10618   1.822   4.450  10.005  0.2231 -0.2992 -0.8465
  104OSM    H3F10619   1.901   4.382  10.044 -0.3132  0.7002  2.3337
  104OSM    H3G10620   1.868   4.547   9.976  1.7332 -0.2088  1.5819
  104OSM    C4F10621   1.744   4.396   9.890 -0.4602  0.1830 -0.0930
  104OSM    H4F10622   1.662   4.461   9.852 -0.4160  0.1160 -0.3045
  104OSM    H4G10623   1.699   4.299   9.922  0.3405 -0.6249 -1.3053
  104OSM    C5F10624   1.826   4.363   9.763  0.4230 -0.2219 -0.1140
  104OSM    H5F10625   1.767   4.288   9.707 -1.0016 -0.8862  2.1202
  104OSM    H5G10626   1.919   4.313   9.800  1.2816  1.8115  0.6466
  104OSM    C6F10627   1.872   4.483   9.676 -0.7461 -0.6212 -0.3201
  104OSM    H6F10628   1.912   4.561   9.743 -3.4161  0.2665  0.3793
  104OSM    H6G10629   1.784   4.535   9.633  0.1469  0.4470 -0.9032
  104OSM    C7F10630   1.989   4.440   9.586 -0.1452 -0.4321  0.1250
  104OSM    H7F10631   1.941   4.361   9.525 -0.0207 -1.5951  1.4911
  104OSM    H7G10632   2.068   4.401   9.653  1.8629  0.5884 -1.5020
  104OSM    C8F10633   2.050   4.548   9.496  0.1110  0.2403  0.1304
  104OSM    H8F10634   2.125   4.496   9.434 -0.8285 -0.6450 -0.2958
  104OSM    H8G10635   2.092   4.635   9.552 -0.9799 -0.4181  2.0696
  104OSM    C9F10636   1.948   4.590   9.398 -0.2421  0.1226  0.3442
  104OSM    H9F10637   1.845   4.603   9.436 -0.6442  1.6905 -1.1366
  104OSM   C10F10638   1.970   4.650   9.275  0.8028  0.1748  0.6484
  104OSM   H10F10639   1.886   4.697   9.221 -1.7933 -3.1848  1.4076
  104OSM   C11F10640   2.098   4.668   9.206 -0.3606  0.1823 -0.3539
  104OSM   H11F10641   2.179   4.627   9.269 -0.1513  0.8133 -0.2025
  104OSM   H11G10642   2.130   4.775   9.205  1.1187 -0.2303 -0.4914
  104OSM   C12F10643   2.097   4.611   9.062  0.4875  0.6776  0.4020
  104OSM   H12F10644   2.076   4.502   9.063  0.7362  0.6151 -0.3200
  104OSM   H12G10645   2.198   4.620   9.018  0.4795  0.8394  0.4174
  104OSM   C13F10646   2.000   4.669   8.959  0.0035  0.3745 -0.6713
  104OSM   H13F10647   2.036   4.774   8.962 -0.5032  0.6386 -2.4132
  104OSM   H13G10648   1.896   4.653   8.995 -0.0597 -3.2809 -1.9544
  104OSM   C14F10649   2.030   4.603   8.824 -0.4822  0.2950 -0.8007
  104OSM   H14F10650   2.006   4.495   8.835  1.7745 -0.3989 -2.0442
  104OSM   H14G10651   2.137   4.616   8.800 -0.1062  3.4596  1.8925
  104OSM   C15F10652   1.939   4.651   8.715  0.1332 -0.7071  0.1332
  104OSM   H15F10653   1.835   4.641   8.752  0.2063  2.0669  1.3507
  104OSM   H15G10654   1.955   4.583   8.629  2.9532  1.5172 -1.2637
  104OSM   C16F10655   1.967   4.795   8.670  0.0436  0.0551 -0.6257
  104OSM   H16F10656   2.075   4.817   8.661 -0.3373  3.1730  1.3046
  104OSM   H16G10657   1.937   4.854   8.759 -2.4287 -1.6689 -0.1887
  104OSM   C17F10658   1.885   4.839   8.557  0.0765  1.0041 -0.0675
  104OSM   H17F10659   1.778   4.813   8.577  0.4842  0.3282  1.3614
  104OSM   H17G10660   1.907   4.784   8.463 -0.3583  0.0159  0.3883
  104OSM   C18F10661   1.895   4.987   8.535  0.3817 -0.3337 -0.0478
  104OSM   H18F10662   2.003   5.014   8.534  0.2139  0.4723  1.2724
  104OSM   H18G10663   1.860   5.038   8.627  1.0833 -0.1513  0.1256
  104OSM   H18H10664   1.846   5.025   8.444  0.3869 -1.9608 -0.7662
  105OSM      N10665   1.754   2.485  11.078 -0.3896  0.0166  0.1294
  105OSM    C1510666   1.811   2.348  11.113  0.3535 -0.1202  0.0212
  105OSM   H15A10667   1.804   2.327  11.219 -3.3047  1.2766  0.2063
  105OSM   H15B10668   1.907   2.333  11.067  0.0215 -0.8077 -0.4810
  105OSM   H15C10669   1.754   2.269  11.066  0.2750 -0.5567  0.8268
  105OSM    C1410670   1.641   2.506  11.166  0.1301  0.1448  0.1197
  105OSM   H14A10671   1.668   2.514  11.271  1.3353  1.1167 -0.2443
  105OSM   H14B10672   1.566   2.432  11.144  1.6791 -1.4093 -0.1857
  105OSM   H14C10673   1.596   2.603  11.157 -1.9776 -0.8148 -0.2600
  105OSM    C1310674   1.858   2.585  11.099 -0.5580  0.3491  0.2905
  105OSM   H13A10675   1.902   2.581  11.198  0.7154 -0.2459 -0.2757
  105OSM   H13B10676   1.820   2.686  11.095 -3.9897 -0.7913  0.3657
  105OSM   H13C10677   1.939   2.572  11.028 -0.3452 -1.6915  0.8384
  105OSM    C1210678   1.704   2.494  10.935  0.1063 -0.2975 -0.7544
  105OSM   H12A10679   1.644   2.583  10.926 -1.4992 -0.7331  3.1744
  105OSM   H12B10680   1.635   2.411  10.931  1.7619 -1.9198  1.5521
  105OSM    C1110681   1.815   2.475  10.827 -0.9768  0.5678  0.2490
  105OSM   H11A10682   1.763   2.464  10.730 -0.0829  0.2449 -0.2050
  105OSM   H11B10683   1.881   2.389  10.849 -0.5687  0.7042 -0.4180
  105OSM      P10684   1.898   2.719  10.748  0.1463 -0.1033 -0.3966
  105OSM    O1310685   1.816   2.814  10.831 -0.4917 -0.5249  0.3293
  105OSM    O1410686   2.038   2.756  10.717 -0.0768 -0.3574 -0.1776
  105OSM    O1110687   1.825   2.684  10.613  0.0099 -0.1438 -0.1873
  105OSM    O1210688   1.910   2.581  10.819  0.2756 -0.0416 -0.1894
  105OSM    C1S10689   1.692   2.724  10.578  0.6012  0.5658 -0.1832
  105OSM    H1S10690   1.668   2.829  10.607  0.6880  0.2992  0.8870
  105OSM    H1T10691   1.626   2.670  10.648  2.2004  0.1562  1.0660
  105OSM     NF10692   1.533   2.724  10.410 -0.0738  0.2405 -0.3514
  105OSM    HNF10693   1.470   2.647  10.419 -0.9074  1.0691  1.3092
  105OSM    C2S10694   1.666   2.697  10.433  0.0140  0.3301 -0.2533
  105OSM    H2S10695   1.727   2.765  10.369  0.3610  0.0175 -0.2590
  105OSM    C3S10696   1.710   2.557  10.384 -0.3074 -0.0703  0.2042
  105OSM    H3S10697   1.657   2.484  10.449 -1.2964  1.1312  0.7930
  105OSM     O310698   1.853   2.522  10.388  0.9316 -0.5201  0.6587
  105OSM    HO310699   1.871   2.573  10.467 -0.3729 -0.0664  0.6788
  105OSM    C4S10700   1.659   2.532  10.243 -0.2277  0.8761 -0.0531
  105OSM    H4S10701   1.565   2.474  10.249  0.1333  0.3444  0.6445
  105OSM    C5S10702   1.709   2.552  10.116  0.0198  0.3474 -0.2227
  105OSM    H5S10703   1.812   2.589  10.107  0.1785 -0.0760 -0.1653
  105OSM    C6S10704   1.631   2.512   9.989  0.1747 -0.1045  0.2708
  105OSM    H6S10705   1.610   2.611   9.941 -0.1579 -0.4604 -0.3351
  105OSM    H6T10706   1.531   2.470  10.015  0.0514  0.5868  0.9514
  105OSM    C7S10707   1.703   2.420   9.899 -0.0508 -0.0391  0.2932
  105OSM    H7S10708   1.682   2.321   9.945 -1.9181  0.7289  1.1970
  105OSM    H7T10709   1.811   2.446   9.895  0.0660 -0.5882 -0.2599
  105OSM    C8S10710   1.648   2.432   9.753  0.1682  0.2518 -0.5820
  105OSM    H8S10711   1.664   2.540   9.733 -1.7554  0.8083  0.6103
  105OSM    H8T10712   1.537   2.432   9.740  0.4442  0.7193 -3.6152
  105OSM    C9S10713   1.706   2.331   9.657 -0.5210 -0.2437 -0.0200
  105OSM    H9S10714   1.649   2.236   9.666 -0.0929 -0.4949  0.0906
  105OSM    H9T10715   1.809   2.309   9.694 -0.1633  0.2439 -0.6988
  105OSM   C10S10716   1.696   2.368   9.513 -0.8024 -1.2041  0.5131
  105OSM   H10S10717   1.750   2.463   9.495 -0.9098 -1.2997 -0.3573
  105OSM   H10T10718   1.591   2.381   9.480  0.3096  0.6565 -2.6956
  105OSM   C11S10719   1.760   2.263   9.429 -0.0332  0.5245  0.0665
  105OSM   H11S10720   1.696   2.172   9.439 -1.4057  1.4102 -0.2700
  105OSM   H11T10721   1.866   2.240   9.450 -0.0132 -3.1453 -3.0983
  105OSM   C12S10722   1.769   2.293   9.278  0.3038 -0.3454 -0.1634
  105OSM   H12S10723   1.820   2.389   9.255  0.5863 -0.4387  0.0691
  105OSM   H12T10724   1.664   2.293   9.243  0.2587  2.8189 -0.3244
  105OSM   C13S10725   1.853   2.186   9.190 -0.0585  0.6527 -0.0371
  105OSM   H13S10726   1.797   2.091   9.204  1.3132 -0.2285 -0.3801
  105OSM   H13T10727   1.955   2.172   9.232 -0.6170  0.4246  1.2854
  105OSM   C14S10728   1.859   2.216   9.038  0.0408  0.1168  0.0140
  105OSM   H14S10729   1.895   2.320   9.022  0.8971 -0.2468 -0.5461
  105OSM   H14T10730   1.758   2.192   9.001  0.2745 -0.5644 -0.1896
  105OSM   C15S10731   1.951   2.116   8.968  0.2860  0.2039 -0.3514
  105OSM   H15S10732   1.908   2.016   8.991 -2.0626  1.5247  1.4421
  105OSM   H15T10733   2.051   2.118   9.016 -0.7538  1.1403  1.9328
  105OSM   C16S10734   1.958   2.130   8.811 -0.0959 -0.7414  0.1236
  105OSM   H16S10735   1.855   2.117   8.772  1.0349 -1.0092 -3.0401
  105OSM   H16T10736   2.041   2.060   8.790 -0.2680 -1.5448  1.9377
  105OSM   C17S10737   2.013   2.268   8.760  0.3991 -0.9313 -0.6469
  105OSM   H17S10738   2.123   2.274   8.769  0.2301  1.3531  0.7377
  105OSM   H17T10739   1.983   2.347   8.832 -1.3215 -1.0962 -1.1403
  105OSM   C18S10740   1.977   2.313   8.615 -0.9708  0.0059 -0.2577
  105OSM   H18S10741   1.985   2.230   8.542 -1.9656 -0.2079 -0.1416
  105OSM   H18T10742   2.048   2.395   8.593 -0.1851  0.0518  2.2052
  105OSM   H18U10743   1.873   2.352   8.613 -0.6070  1.1780  1.4726
  105OSM    C1F10744   1.472   2.844  10.399  0.3802 -0.0144 -0.2352
  105OSM     OF10745   1.519   2.941  10.457 -0.0698 -0.8461 -0.0573
  105OSM    C2F10746   1.333   2.849  10.330 -0.7280 -0.2533  0.2442
  105OSM    H2F10747   1.260   2.847  10.414  0.4283 -0.9112  1.2879
  105OSM    H2G10748   1.328   2.752  10.277 -0.0601 -0.3361  0.3194
  105OSM    C3F10749   1.316   2.973  10.239 -0.2701 -0.2875 -0.3471
  105OSM    H3F10750   1.323   3.067  10.299 -0.8075 -0.7186  0.4095
  105OSM    H3G10751   1.208   2.981  10.211 -0.8434 -0.1726  1.6742
  105OSM    C4F10752   1.394   2.984  10.114 -0.3725 -0.0411 -0.1319
  105OSM    H4F10753   1.385   2.891  10.053  0.5193  0.8480 -1.6721
  105OSM    H4G10754   1.501   2.983  10.141 -0.5395  0.0015  0.5515
  105OSM    C5F10755   1.363   3.105  10.029 -0.8186  0.0371 -0.1775
  105OSM    H5F10756   1.393   3.196  10.086 -1.1589  0.4720 -0.6845
  105OSM    H5G10757   1.255   3.107  10.000 -1.0014  1.1468  0.5283
  105OSM    C6F10758   1.429   3.096   9.889 -0.4177 -0.0250  0.8062
  105OSM    H6F10759   1.411   3.000   9.836  0.9092 -1.0084  2.0744
  105OSM    H6G10760   1.538   3.086   9.906  0.1077 -0.6020 -2.3398
  105OSM    C7F10761   1.403   3.207   9.790 -0.1194  0.5858 -0.7605
  105OSM    H7F10762   1.465   3.289   9.832 -2.4734  0.6075  3.2078
  105OSM    H7G10763   1.294   3.231   9.794 -0.4231 -0.8160  2.1388
  105OSM    C8F10764   1.446   3.177   9.648  0.5330  0.3901  0.2736
  105OSM    H8F10765   1.543   3.130   9.673 -0.3970 -0.0637  3.3679
  105OSM    H8G10766   1.459   3.269   9.586 -1.4028 -0.7008 -1.9059
  105OSM    C9F10767   1.356   3.080   9.575 -0.8778 -0.0213 -0.7518
  105OSM    H9F10768   1.280   3.041   9.644 -1.4385 -0.2810 -1.5090
  105OSM   C10F10769   1.341   3.035   9.447  0.3408 -0.0060 -0.2105
  105OSM   H10F10770   1.262   2.964   9.419 -2.4785  1.5149  3.1219
  105OSM   C11F10771   1.421   3.099   9.340 -0.0260  0.4744 -0.3246
  105OSM   H11F10772   1.514   3.041   9.319 -0.2501  0.2507 -0.7067
  105OSM   H11G10773   1.459   3.198   9.374  0.6717  0.1599 -0.1714
  105OSM   C12F10774   1.345   3.125   9.207  0.9232  0.2635 -0.4238
  105OSM   H12F10775   1.415   3.177   9.138  2.0869  1.2322  1.4104
  105OSM   H12G10776   1.250   3.181   9.223 -2.0231 -4.2852  0.0306
  105OSM   C13F10777   1.288   2.999   9.145  0.2399  0.6743 -0.0048
  105OSM   H13F10778   1.208   2.959   9.210  1.1700 -2.8891 -0.8145
  105OSM   H13G10779   1.362   2.917   9.158  0.1802  0.7508  0.8502
  105OSM   C14F10780   1.234   3.016   9.003  0.4286 -0.2291  0.7129
  105OSM   H14F10781   1.298   3.078   8.937  0.7980 -0.0760  1.2096
  105OSM   H14G10782   1.137   3.071   9.007  0.5756  0.1066 -0.0717
  105OSM   C15F10783   1.225   2.868   8.946  0.2858 -0.5153  0.1016
  105OSM   H15F10784   1.185   2.808   9.030  1.1848 -1.4620 -0.1141
  105OSM   H15G10785   1.329   2.834   8.924  1.6318  1.9370  2.1392
  105OSM   C16F10786   1.125   2.872   8.826  0.0237 -0.5060 -0.1829
  105OSM   H16F10787   1.163   2.953   8.760 -1.6469  1.5072  1.1960
  105OSM   H16G10788   1.031   2.919   8.861 -0.0925 -0.9845  0.1551
  105OSM   C17F10789   1.115   2.750   8.741 -0.6464  0.1831 -0.0307
  105OSM   H17F10790   1.031   2.770   8.671 -1.2460  0.0932  0.6407
  105OSM   H17G10791   1.078   2.665   8.803  0.0619  0.3351  0.6216
  105OSM   C18F10792   1.242   2.700   8.679  0.3480 -0.3197 -0.1512
  105OSM   H18F10793   1.320   2.669   8.752  0.6359 -1.1217 -0.7958
  105OSM   H18G10794   1.280   2.788   8.623 -0.7510  1.7411  2.1097
  105OSM   H18H10795   1.228   2.614   8.611 -0.5124 -0.1545 -0.2030
  106OSM      N10796   1.952   1.400  10.916  0.3024  0.5693 -0.2918
  106OSM    C1510797   1.887   1.537  10.885 -0.5609  0.8578  0.0294
  106OSM   H15A10798   1.902   1.603  10.968  0.7169 -0.4681  0.9017
  106OSM   H15B10799   1.781   1.518  10.877 -0.1894 -2.6626  1.6702
  106OSM   H15C10800   1.930   1.582  10.797  0.7077  1.1046  0.7637
  106OSM    C1410801   2.093   1.427  10.957 -0.2939 -0.1348 -0.3639
  106OSM   H14A10802   2.144   1.470  10.872  1.4343  1.9460  1.6090
  106OSM   H14B10803   2.159   1.345  10.982  1.6153  1.4824  0.1445
  106OSM   H14C10804   2.105   1.491  11.043  1.8090 -1.3642  0.3352
  106OSM    C1310805   1.881   1.332  11.025 -0.4667  0.3216  0.4499
  106OSM   H13A10806   1.912   1.233  11.054  0.0892  0.3047 -0.1818
  106OSM   H13B10807   1.776   1.331  10.999 -0.6658  1.8654  1.0938
  106OSM   H13C10808   1.886   1.389  11.116  1.5981  0.5468  0.2410
  106OSM    C1210809   1.940   1.314  10.791 -1.1472  0.5349 -0.0852
  106OSM   H12A10810   1.843   1.266  10.799  0.1511 -2.0942  1.2693
  106OSM   H12B10811   2.012   1.237  10.815 -0.4599  1.1569 -0.1223
  106OSM    C1110812   1.971   1.382  10.655  0.6636 -0.3256 -0.2241
  106OSM   H11A10813   1.894   1.460  10.641 -0.2448 -0.4738  2.9807
  106OSM   H11B10814   1.931   1.298  10.595 -1.3664 -0.7255  1.5399
  106OSM      P10815   2.218   1.294  10.609 -0.3630  0.0767  0.6083
  106OSM    O1310816   2.354   1.361  10.615  0.1865  0.2334  0.2519
  106OSM    O1410817   2.196   1.182  10.705  0.2061  0.0330  0.3388
  106OSM    O1110818   2.192   1.244  10.463 -0.3681  0.3248  0.4108
  106OSM    O1210819   2.110   1.412  10.640 -0.4973 -0.1950  0.1746
  106OSM    C1S10820   2.099   1.287  10.369  0.0559  0.7720  0.1286
  106OSM    H1S10821   2.060   1.388  10.395 -3.8846 -0.4016 -0.4924
  106OSM    H1T10822   2.018   1.211  10.378  1.9395 -1.1191  2.2634
  106OSM     NF10823   2.065   1.373  10.133  0.4720  0.2510  0.2034
  106OSM    HNF10824   2.029   1.323  10.055 -2.8802 -1.0685  2.3760
  106OSM    C2S10825   2.152   1.296  10.220 -0.3443  0.0797  0.2138
  106OSM    H2S10826   2.247   1.352  10.234 -2.0691  3.0426  0.8566
  106OSM    C3S10827   2.180   1.152  10.158 -0.4159 -1.0277 -0.8100
  106OSM    H3S10828   2.083   1.105  10.132 -2.0372  2.9405 -2.8719
  106OSM     O310829   2.234   1.063  10.255  0.3553 -0.3072 -0.7296
  106OSM    HO310830   2.233   1.111  10.338  0.0002  1.0330 -1.4827
  106OSM    C4S10831   2.262   1.161  10.032 -0.3827 -0.1384 -0.3608
  106OSM    H4S10832   2.357   1.216  10.040 -0.6024  0.0161  1.8933
  106OSM    C5S10833   2.232   1.097   9.917  0.2733 -0.2957  0.0704
  106OSM    H5S10834   2.143   1.035   9.901 -0.9461  1.4164 -0.0166
  106OSM    C6S10835   2.323   1.088   9.800 -0.0176 -0.5380  0.1924
  106OSM    H6S10836   2.404   1.163   9.806  0.1979 -0.6999 -0.5758
  106OSM    H6T10837   2.266   1.103   9.706  0.7392  0.4720 -0.1202
  106OSM    C7S10838   2.380   0.941   9.788  0.8232 -0.4388  0.0240
  106OSM    H7S10839   2.302   0.862   9.794  2.5124 -2.1877 -0.0568
  106OSM    H7T10840   2.450   0.934   9.873  2.0745  1.3248 -0.8020
  106OSM    C8S10841   2.458   0.921   9.659 -0.1829 -0.8369  1.0469
  106OSM    H8S10842   2.414   0.972   9.571  0.4824  1.0372  1.7688
  106OSM    H8T10843   2.454   0.816   9.622 -1.2405 -0.2323 -0.6493
  106OSM    C9S10844   2.602   0.969   9.668  0.5396 -0.8592 -0.2234
  106OSM    H9S10845   2.675   0.919   9.735 -0.6712 -1.5451  0.6337
  106OSM    H9T10846   2.591   1.078   9.684 -1.3556 -0.7694 -1.7797
  106OSM   C10S10847   2.673   0.978   9.534 -0.2228  0.3630  0.7645
  106OSM   H10S10848   2.769   1.030   9.554 -0.8107  0.8466  2.4859
  106OSM   H10T10849   2.616   1.043   9.464  1.8548  1.6510  0.1704
  106OSM   C11S10850   2.705   0.833   9.475 -0.1225 -0.2983  0.9071
  106OSM   H11S10851   2.606   0.802   9.434 -0.1435 -0.1146  0.8183
  106OSM   H11T10852   2.752   0.772   9.555  0.3516  0.1715  0.9912
  106OSM   C12S10853   2.806   0.837   9.353 -0.3001 -0.0855 -0.2549
  106OSM   H12S10854   2.834   0.730   9.344 -2.9516 -1.0007  1.2998
  106OSM   H12T10855   2.892   0.900   9.386 -0.0017 -0.9231  0.5807
  106OSM   C13S10856   2.726   0.875   9.222  0.0962 -0.0247 -0.9738
  106OSM   H13S10857   2.806   0.931   9.168 -0.6561  0.6644 -1.3892
  106OSM   H13T10858   2.644   0.945   9.248 -0.2766 -0.9085  0.3193
  106OSM   C14S10859   2.674   0.752   9.151 -0.0043 -0.6196 -0.2049
  106OSM   H14S10860   2.579   0.766   9.095  1.4917 -0.7692 -2.9424
  106OSM   H14T10861   2.641   0.674   9.223 -0.6675  0.1199  0.3060
  106OSM   C15S10862   2.777   0.705   9.051 -0.0439 -0.1877  0.0867
  106OSM   H15S10863   2.861   0.644   9.091 -1.4220 -1.3427  1.3640
  106OSM   H15T10864   2.809   0.803   9.010 -1.4109 -0.3336 -1.4425
  106OSM   C16S10865   2.712   0.621   8.942  0.4199 -0.6832  0.5637
  106OSM   H16S10866   2.629   0.686   8.906  1.1630  0.7684  1.3930
  106OSM   H16T10867   2.676   0.523   8.978  0.6731 -1.0442 -0.1446
  106OSM   C17S10868   2.806   0.603   8.823 -0.1246  0.0177  0.5464
  106OSM   H17S10869   2.908   0.582   8.861 -0.0287 -0.3002  0.1228
  106OSM   H17T10870   2.807   0.701   8.771  0.4407  0.6587  1.7125
  106OSM   C18S10871   2.763   0.503   8.725  0.3531 -0.1478 -0.1085
  106OSM   H18S10872   2.805   0.517   8.624 -1.9870  1.6216 -0.9371
  106OSM   H18T10873   2.654   0.512   8.706  0.4829 -0.4377 -1.0124
  106OSM   H18U10874   2.764   0.397   8.761 -1.3761  0.0605  0.6844
  106OSM    C1F10875   2.005   1.494  10.163 -0.2959  0.2403  0.8881
  106OSM     OF10876   2.029   1.565  10.261 -0.5934 -0.6065 -0.0849
  106OSM    C2F10877   1.898   1.536  10.059  0.2102 -1.2858  0.3501
  106OSM    H2F10878   1.801   1.487  10.083 -0.2357 -1.4382 -1.6233
  106OSM    H2G10879   1.943   1.499   9.964  1.0548 -1.7874  0.9314
  106OSM    C3F10880   1.866   1.686  10.062 -0.1023  0.1117  0.0972
  106OSM    H3F10881   1.947   1.742  10.010  0.5703 -2.5910 -2.0107
  106OSM    H3G10882   1.864   1.735  10.162  1.6893 -0.2625  0.3490
  106OSM    C4F10883   1.733   1.709   9.987  0.3088  0.1280 -0.3065
  106OSM    H4F10884   1.722   1.819   9.975 -0.2383  0.2835  1.4455
  106OSM    H4G10885   1.661   1.669  10.061 -0.4038 -1.7381 -1.9172
  106OSM    C5F10886   1.723   1.644   9.849 -0.0148  0.3308 -0.0557
  106OSM    H5F10887   1.629   1.688   9.811 -0.1666  0.0365 -0.0263
  106OSM    H5G10888   1.696   1.536   9.851 -1.7209  0.7184  1.6053
  106OSM    C6F10889   1.844   1.677   9.761  0.5721  0.1244 -0.0180
  106OSM    H6F10890   1.944   1.683   9.810  0.6112 -0.2770 -0.0430
  106OSM    H6G10891   1.825   1.771   9.705  0.0646 -0.2974 -0.5684
  106OSM    C7F10892   1.878   1.582   9.645 -0.2062  0.5599 -0.3324
  106OSM    H7F10893   1.914   1.481   9.675  0.8233  0.1377 -2.7328
  106OSM    H7G10894   1.969   1.625   9.599  0.2070  0.9930  0.8361
  106OSM    C8F10895   1.751   1.571   9.554  0.1271 -0.0195  0.3065
  106OSM    H8F10896   1.726   1.670   9.511 -0.1460 -0.1495  0.1636
  106OSM    H8G10897   1.660   1.532   9.606 -0.5564 -1.6773 -1.9635
  106OSM    C9F10898   1.772   1.462   9.449 -0.7823  0.1465 -0.1759
  106OSM    H9F10899   1.751   1.363   9.492 -1.4741 -0.3575 -1.6022
  106OSM   C10F10900   1.803   1.478   9.319 -0.4365  0.0172 -0.6014
  106OSM   H10F10901   1.837   1.385   9.271  2.0357  0.0912  0.8223
  106OSM   C11F10902   1.820   1.614   9.248  0.0954 -0.3081  0.1177
  106OSM   H11F10903   1.918   1.658   9.278  0.4649 -1.0545  0.0446
  106OSM   H11G10904   1.737   1.683   9.276  0.4855 -0.1398  0.9109
  106OSM   C12F10905   1.819   1.606   9.098  0.4480 -0.3431 -0.7732
  106OSM   H12F10906   1.741   1.531   9.070 -0.3419 -0.4263  1.3892
  106OSM   H12G10907   1.919   1.576   9.060  0.8040  0.2591 -0.3278
  106OSM   C13F10908   1.805   1.750   9.035 -0.5546 -0.0740  0.5201
  106OSM   H13F10909   1.909   1.762   8.999  0.0721 -2.2589  1.4248
  106OSM   H13G10910   1.790   1.830   9.111 -0.9335  0.4995 -0.1490
  106OSM   C14F10911   1.704   1.763   8.919  0.4299 -0.4129  0.3389
  106OSM   H14F10912   1.702   1.865   8.876 -3.7882  0.3310  1.8290
  106OSM   H14G10913   1.603   1.746   8.961  0.7338 -0.0021  1.2583
  106OSM   C15F10914   1.739   1.668   8.802 -0.1653  0.3257 -0.3093
  106OSM   H15F10915   1.675   1.693   8.714  0.1994 -1.0979 -0.9951
  106OSM   H15G10916   1.710   1.565   8.828  0.5459  0.5331  1.4124
  106OSM   C16F10917   1.884   1.675   8.755 -0.9877 -0.4826  0.3068
  106OSM   H16F10918   1.949   1.643   8.839 -0.2945  1.8589  0.7448
  106OSM   H16G10919   1.910   1.782   8.737  1.5757 -0.1861  4.4728
  106OSM   C17F10920   1.911   1.605   8.623  0.2221  0.1402 -0.1847
  106OSM   H17F10921   1.833   1.624   8.546 -0.6556  0.0613  0.6748
  106OSM   H17G10922   1.906   1.496   8.645 -3.6523  0.0762 -0.5865
  106OSM   C18F10923   2.040   1.653   8.561 -0.1671  0.1516  0.5628
  106OSM   H18F10924   2.030   1.760   8.534 -4.1378 -0.1421  0.1785
  106OSM   H18G10925   2.070   1.603   8.466  0.3489  0.9461  0.3042
  106OSM   H18H10926   2.124   1.647   8.633  0.5637  0.5711 -0.2420
  107OSM      N10927   4.817   5.531  11.178  0.4523 -0.2633 -0.0152
  107OSM    C1510928   4.713   5.617  11.253 -0.4611  0.6481 -0.3424
  107OSM   H15A10929   4.641   5.650  11.180 -1.1167 -2.3844 -1.2054
  107OSM   H15B10930   4.755   5.704  11.301 -0.5448  1.8875 -2.4022
  107OSM   H15C10931   4.667   5.565  11.336  0.6928 -0.1067 -0.1610
  107OSM    C1410932   4.884   5.623  11.081 -0.7256 -0.2413  0.5920
  107OSM   H14A10933   4.933   5.554  11.014 -1.4622 -2.8707  2.5607
  107OSM   H14B10934   4.966   5.677  11.126  0.7496 -0.1550 -2.0214
  107OSM   H14C10935   4.820   5.687  11.023  1.0988  0.0809 -1.2018
  107OSM    C1310936   4.903   5.486  11.290  0.3777  0.5309 -0.4064
  107OSM   H13A10937   4.908   5.559  11.370 -1.0233 -0.6976  0.8571
  107OSM   H13B10938   5.003   5.476  11.250 -0.5186 -0.5496 -2.5079
  107OSM   H13C10939   4.870   5.391  11.327  0.1496 -0.0481 -2.0108
  107OSM    C1210940   4.758   5.414  11.106 -0.2933 -0.3056  0.2285
  107OSM   H12A10941   4.684   5.366  11.169  1.1415 -0.5592  1.7662
  107OSM   H12B10942   4.830   5.338  11.079 -0.3715 -0.9511  1.7271
  107OSM    C1110943   4.679   5.455  10.980  0.1076  0.6584 -0.1964
  107OSM   H11A10944   4.632   5.362  10.942  1.8288 -0.4353  0.2447
  107OSM   H11B10945   4.758   5.475  10.905  0.8926  1.2971  0.7711
  107OSM      P10946   4.436   5.539  10.972 -0.4116  0.0204 -0.0290
  107OSM    O1310947   4.390   5.455  11.089 -0.6497 -0.1855  0.5346
  107OSM    O1410948   4.371   5.668  10.939  0.3851 -0.5493  0.0656
  107OSM    O1110949   4.442   5.454  10.840 -0.2296  0.0344  0.5802
  107OSM    O1210950   4.590   5.565  10.999  0.3586 -0.0330  0.2360
  107OSM    C1S10951   4.474   5.527  10.717 -0.2615  0.9009  1.3021
  107OSM    H1S10952   4.542   5.614  10.727 -0.3312  1.1503 -0.1093
  107OSM    H1T10953   4.386   5.575  10.670  1.6313  2.4344 -0.8886
  107OSM     NF10954   4.586   5.525  10.492  0.5907  0.0613  0.4630
  107OSM    HNF10955   4.531   5.544  10.411  0.9416  0.8031  0.3910
  107OSM    C2S10956   4.533   5.435  10.594 -0.2515  0.5662 -0.3616
  107OSM    H2S10957   4.619   5.373  10.629  0.4335  2.0729  0.7153
  107OSM    C3S10958   4.415   5.345  10.548 -0.0785  0.5770  0.0386
  107OSM    H3S10959   4.345   5.415  10.497 -1.5300  1.5246  3.1113
  107OSM     O310960   4.341   5.293  10.657 -0.1177 -0.0825 -0.2025
  107OSM    HO310961   4.374   5.342  10.732  0.3640  0.6891 -0.9037
  107OSM    C4S10962   4.457   5.246  10.444  0.9103 -0.5195  0.1802
  107OSM    H4S10963   4.442   5.275  10.339  1.1741 -2.2915 -0.3982
  107OSM    C5S10964   4.516   5.121  10.456 -0.2730 -0.5144  1.5143
  107OSM    H5S10965   4.528   5.077  10.556  2.1914 -2.7105  0.3711
  107OSM    C6S10966   4.561   5.029  10.349 -0.1386  0.2589  0.5883
  107OSM    H6S10967   4.525   4.927  10.374  0.5096 -0.4716 -1.2417
  107OSM    H6T10968   4.671   5.023  10.350  0.0051  1.8182 -0.6208
  107OSM    C7S10969   4.530   5.072  10.205 -0.0285 -0.1901  0.0215
  107OSM    H7S10970   4.558   5.180  10.205 -2.3491  0.4943  1.2570
  107OSM    H7T10971   4.419   5.066  10.197 -0.2132  2.6566 -0.7403
  107OSM    C8S10972   4.606   4.984  10.098 -0.0274 -0.1703 -0.2048
  107OSM    H8S10973   4.580   4.880  10.127 -3.5057  0.4966 -0.5856
  107OSM    H8T10974   4.714   5.012  10.103  0.3042 -1.4595  0.3337
  107OSM    C9S10975   4.573   5.017   9.948 -0.2761  0.1728  0.6101
  107OSM    H9S10976   4.619   5.117   9.931  0.7339 -0.6780 -2.2829
  107OSM    H9T10977   4.463   5.022   9.933 -0.1771 -0.2428 -0.3108
  107OSM   C10S10978   4.638   4.925   9.848 -0.3136 -0.0226  0.2363
  107OSM   H10S10979   4.565   4.847   9.821 -0.1911 -0.7799  1.9637
  107OSM   H10T10980   4.736   4.879   9.874  0.3881  0.3056 -1.6570
  107OSM   C11S10981   4.653   5.000   9.714  0.0138 -0.5386 -0.3834
  107OSM   H11S10982   4.723   5.086   9.716 -1.5656  0.7976  0.6565
  107OSM   H11T10983   4.554   5.035   9.679  0.2172 -0.2813 -0.7058
  107OSM   C12S10984   4.706   4.902   9.610  0.3089  0.3703  0.3957
  107OSM   H12S10985   4.653   4.805   9.616  0.0470  0.3267 -1.7624
  107OSM   H12T10986   4.811   4.881   9.637  0.7224  1.5406 -0.2212
  107OSM   C13S10987   4.713   4.964   9.461  1.0327  0.5177  0.1539
  107OSM   H13S10988   4.791   4.907   9.407  1.6776  1.3402  0.1939
  107OSM   H13T10989   4.752   5.068   9.461 -0.7704  1.2412  1.2494
  107OSM   C14S10990   4.578   4.937   9.385  0.5630 -0.4132 -0.1378
  107OSM   H14S10991   4.504   4.995   9.444  1.0116 -0.3809  0.4042
  107OSM   H14T10992   4.556   4.829   9.394  0.5533 -0.5142 -1.2760
  107OSM   C15S10993   4.599   4.991   9.243 -0.1723 -0.1796  0.8944
  107OSM   H15S10994   4.688   4.957   9.186 -1.6501 -0.4539 -1.3676
  107OSM   H15T10995   4.606   5.102   9.251 -0.4119 -0.1052  0.1105
  107OSM   C16S10996   4.480   4.978   9.153 -0.5547 -0.1590  0.2908
  107OSM   H16S10997   4.397   5.037   9.197 -0.3757 -0.4397  1.0150
  107OSM   H16T10998   4.435   4.877   9.151  1.4493 -1.1094  1.0967
  107OSM   C17S10999   4.512   5.030   9.005  0.7102 -0.8946  0.5661
  107OSM   H17S11000   4.538   5.136   9.026 -2.8655  0.5121 -1.1618
  107OSM   H17T11001   4.419   5.045   8.946  2.3633  0.9239 -1.8180
  107OSM   C18S11002   4.610   4.958   8.918  0.0400  0.6241  0.3767
  107OSM   H18S11003   4.638   5.013   8.825  0.5629  0.3569  0.3751
  107OSM   H18T11004   4.564   4.861   8.887  1.0469  0.4639 -0.7028
  107OSM   H18U11005   4.704   4.930   8.968  0.7938  2.8322  0.2955
  107OSM    C1F11006   4.695   5.597  10.504  0.2888  0.4396 -0.0717
  107OSM     OF11007   4.765   5.586  10.605  0.9467  0.5445  0.5593
  107OSM    C2F11008   4.727   5.691  10.391  0.3491  0.1220 -0.8078
  107OSM    H2F11009   4.662   5.780  10.402 -0.9040 -0.7842 -0.6779
  107OSM    H2G11010   4.697   5.636  10.299  0.5435 -0.7822 -0.3438
  107OSM    C3F11011   4.882   5.709  10.379 -0.6033  0.5874  0.0053
  107OSM    H3F11012   4.936   5.614  10.402 -0.8154  0.2236 -0.9442
  107OSM    H3G11013   4.924   5.784  10.449  1.9355  1.3941 -2.1899
  107OSM    C4F11014   4.936   5.764  10.242 -0.2528 -0.3880  0.0720
  107OSM    H4F11015   5.039   5.800  10.262 -0.1285  1.1626 -2.8199
  107OSM    H4G11016   4.880   5.854  10.208  2.0841  1.4310  0.7991
  107OSM    C5F11017   4.948   5.650  10.133  0.3663  0.4222 -0.5495
  107OSM    H5F11018   4.849   5.638  10.084 -0.2349 -0.8295  0.8809
  107OSM    H5G11019   4.975   5.549  10.171 -1.1967 -0.1768 -0.9580
  107OSM    C6F11020   5.038   5.687  10.015  0.1961 -0.7114 -0.2485
  107OSM    H6F11021   5.137   5.703  10.063 -1.5387  0.4454  3.3130
  107OSM    H6G11022   5.004   5.790   9.990 -0.9664 -1.2347 -0.8728
  107OSM    C7F11023   5.032   5.597   9.886 -0.3040  0.5472 -0.6080
  107OSM    H7F11024   4.941   5.533   9.884 -0.4106  0.7041 -0.7328
  107OSM    H7G11025   5.110   5.518   9.893 -1.6601 -0.7745  0.4247
  107OSM    C8F11026   5.048   5.678   9.757  0.1188 -0.5101 -0.1089
  107OSM    H8F11027   5.146   5.729   9.763 -0.3877  0.3457  3.4744
  107OSM    H8G11028   4.978   5.764   9.744  2.1540  1.4689  1.3092
  107OSM    C9F11029   5.059   5.571   9.647  0.3114 -0.4443  0.2072
  107OSM    H9F11030   5.114   5.480   9.674 -0.6997 -1.8237 -2.1168
  107OSM   C10F11031   4.999   5.574   9.527  0.4847  0.0477  0.4225
  107OSM   H10F11032   5.030   5.499   9.454  1.2994  0.2567  0.5418
  107OSM   C11F11033   4.899   5.667   9.473 -0.0718 -0.1398 -0.2634
  107OSM   H11F11034   4.865   5.733   9.556  1.4159  0.5982 -0.1943
  107OSM   H11G11035   4.813   5.614   9.427  1.1521 -1.0612 -1.5777
  107OSM   C12F11036   4.956   5.762   9.369 -0.6752  0.1825 -0.7542
  107OSM   H12F11037   5.050   5.808   9.407 -0.4738 -0.9546  0.1616
  107OSM   H12G11038   4.880   5.840   9.345 -0.4606  0.2183 -1.3495
  107OSM   C13F11039   4.980   5.689   9.239 -0.3580  0.6932  0.3845
  107OSM   H13F11040   5.046   5.601   9.251  0.8018  1.1861 -1.8343
  107OSM   H13G11041   5.047   5.745   9.170  1.7541 -1.1134  0.8576
  107OSM   C14F11042   4.847   5.642   9.173  0.8647  0.4957  0.4754
  107OSM   H14F11043   4.777   5.723   9.203  0.6819  0.2482  0.7246
  107OSM   H14G11044   4.817   5.543   9.214  0.6289  0.7088  0.8221
  107OSM   C15F11045   4.844   5.642   9.014  0.5405 -0.0736  0.0051
  107OSM   H15F11046   4.918   5.565   8.982 -0.5108 -0.7354 -0.9179
  107OSM   H15G11047   4.864   5.746   8.980 -0.6300  1.1136  2.6609
  107OSM   C16F11048   4.706   5.593   8.973 -0.8803  0.5804 -0.7739
  107OSM   H16F11049   4.639   5.680   8.991 -0.1788  1.0241 -0.2706
  107OSM   H16G11050   4.685   5.518   9.052  0.5068  1.0126  0.0326
  107OSM   C17F11051   4.694   5.539   8.826 -0.0391  0.4768  0.2679
  107OSM   H17F11052   4.590   5.505   8.806  0.1232 -1.1919  2.0136
  107OSM   H17G11053   4.767   5.456   8.816  1.3814  1.5768  1.2204
  107OSM   C18F11054   4.724   5.638   8.714  1.0705 -0.2905 -0.4445
  107OSM   H18F11055   4.700   5.583   8.620  1.0583  0.3932 -0.8495
  107OSM   H18G11056   4.833   5.659   8.715  1.3123 -0.9493  3.4515
  107OSM   H18H11057   4.664   5.730   8.727  0.1535 -1.0864  1.2607
  108OSM      N11058   0.546   2.265  10.984 -0.4302  0.1919  0.4221
  108OSM    C1511059   0.623   2.217  11.101 -0.5763  0.6573  0.2649
  108OSM   H15A11060   0.558   2.149  11.154 -0.4127 -0.1900 -0.5810
  108OSM   H15B11061   0.669   2.295  11.160  2.3490 -0.6096 -0.1727
  108OSM   H15C11062   0.697   2.147  11.067 -1.5019 -0.1412 -0.1687
  108OSM    C1411063   0.643   2.352  10.911  0.1777 -0.3983 -0.5878
  108OSM   H14A11064   0.719   2.292  10.864  0.5555 -0.2507 -0.1676
  108OSM   H14B11065   0.680   2.428  10.978  2.1718 -1.6473 -0.1802
  108OSM   H14C11066   0.592   2.409  10.835 -1.1031  0.7166  1.0421
  108OSM    C1311067   0.509   2.148  10.892 -0.8849  0.0700  0.1420
  108OSM   H13A11068   0.445   2.187  10.814 -0.4347  1.2070  0.3252
  108OSM   H13B11069   0.448   2.075  10.942  0.1446 -0.0260  1.3103
  108OSM   H13C11070   0.592   2.103  10.838  0.4966 -1.2031  3.1029
  108OSM    C1211071   0.425   2.349  11.022  0.4845  0.0844  0.1171
  108OSM   H12A11072   0.445   2.443  11.071 -2.0028  1.2034 -0.8739
  108OSM   H12B11073   0.372   2.297  11.101  0.1878  1.3097  0.7500
  108OSM    C1111074   0.314   2.365  10.909  0.0972  0.4845 -0.3269
  108OSM   H11A11075   0.218   2.403  10.951 -1.6324 -2.7993 -0.9197
  108OSM   H11B11076   0.282   2.262  10.879 -1.2636 -0.0807  2.6465
  108OSM      P11077   0.336   2.588  10.778  0.0678  0.0332  0.1473
  108OSM    O1311078   0.191   2.608  10.789  0.1619  0.1493 -0.4494
  108OSM    O1411079   0.425   2.668  10.862  0.3439  0.2613 -0.7630
  108OSM    O1111080   0.379   2.597  10.626  0.4757 -0.1466  0.2598
  108OSM    O1211081   0.360   2.433  10.794  0.6592 -0.0252  0.3292
  108OSM    C1S11082   0.493   2.679  10.597  0.8377  0.0052 -0.1860
  108OSM    H1S11083   0.584   2.635  10.644  0.6685  0.6277  0.7389
  108OSM    H1T11084   0.472   2.783  10.630 -0.7266  0.4172 -2.2618
  108OSM     NF11085   0.656   2.746  10.427  0.2668 -0.0722  0.9282
  108OSM    HNF11086   0.664   2.845  10.418  0.6880  0.0181  2.1011
  108OSM    C2S11087   0.518   2.697  10.443 -0.2482  0.7081  0.0461
  108OSM    H2S11088   0.508   2.592  10.407 -4.4370  1.6866 -2.2312
  108OSM    C3S11089   0.414   2.784  10.376 -0.0394  0.5794  0.0540
  108OSM    H3S11090   0.407   2.876  10.437  0.5798  0.1886  0.7219
  108OSM     O311091   0.290   2.712  10.386 -0.2272  0.0752 -0.0665
  108OSM    HO311092   0.319   2.640  10.443 -2.1699  0.5288  1.6178
  108OSM    C4S11093   0.460   2.819  10.235  0.1715 -0.3956  0.1893
  108OSM    H4S11094   0.491   2.924  10.231  0.5937 -0.4813  1.1135
  108OSM    C5S11095   0.464   2.731  10.130  0.4132 -0.2914  0.1168
  108OSM    H5S11096   0.422   2.631  10.146  0.4930 -0.3004  0.2666
  108OSM    C6S11097   0.518   2.788  10.003 -0.2551  0.3522  0.1063
  108OSM    H6S11098   0.594   2.714   9.968  0.7631  0.2678  2.3746
  108OSM    H6T11099   0.584   2.877  10.007  2.8669 -1.7854  0.2160
  108OSM    C7S11100   0.409   2.800   9.897  0.2039  0.0312 -0.4268
  108OSM    H7S11101   0.333   2.869   9.938 -0.3397 -0.7303 -0.1271
  108OSM    H7T11102   0.353   2.704   9.891 -0.4448  0.3621  0.1487
  108OSM    C8S11103   0.466   2.866   9.764 -0.0456  0.2075  0.0968
  108OSM    H8S11104   0.560   2.810   9.747 -0.5857 -1.3972  2.0528
  108OSM    H8T11105   0.478   2.975   9.779 -1.3464  0.5292 -0.9950
  108OSM    C9S11106   0.372   2.835   9.644 -0.3024 -0.5508 -0.0312
  108OSM    H9S11107   0.277   2.880   9.679  0.1539 -0.1921  0.7616
  108OSM    H9T11108   0.356   2.725   9.635  2.0655 -1.2293  2.4392
  108OSM   C10S11109   0.430   2.883   9.516  1.0138  0.8360 -0.3234
  108OSM   H10S11110   0.528   2.836   9.496  1.7941  1.8533  1.0035
  108OSM   H10T11111   0.439   2.994   9.516 -3.0483  1.3990  2.4757
  108OSM   C11S11112   0.335   2.846   9.401  0.1216 -0.1233 -0.7693
  108OSM   H11S11113   0.242   2.907   9.405  0.2617  0.0114  1.3056
  108OSM   H11T11114   0.316   2.738   9.417  2.5474 -0.8644 -2.3233
  108OSM   C12S11115   0.396   2.857   9.259  0.1121 -0.0815  0.2395
  108OSM   H12S11116   0.497   2.814   9.244  1.1163  1.5237  2.0136
  108OSM   H12T11117   0.403   2.963   9.228 -2.9247  0.5549  1.4080
  108OSM   C13S11118   0.290   2.801   9.161  0.0968 -0.0320 -0.4715
  108OSM   H13S11119   0.186   2.831   9.187 -0.3974 -1.2086 -0.9994
  108OSM   H13T11120   0.279   2.692   9.180  0.0460  0.2382  1.1809
  108OSM   C14S11121   0.332   2.821   9.018 -0.6817  0.3562  0.4820
  108OSM   H14S11122   0.431   2.780   8.992  0.2569  1.6829  1.8103
  108OSM   H14T11123   0.339   2.929   8.993 -0.1558  0.3668  0.6813
  108OSM   C15S11124   0.232   2.765   8.912 -0.0734 -0.2640 -0.3276
  108OSM   H15S11125   0.130   2.796   8.946  0.2090  0.3821 -0.0440
  108OSM   H15T11126   0.240   2.654   8.916 -1.6764 -0.4035  0.0848
  108OSM   C16S11127   0.253   2.810   8.766 -0.0174 -0.0564 -0.5949
  108OSM   H16S11128   0.360   2.785   8.749 -0.2962 -0.7075 -1.4150
  108OSM   H16T11129   0.240   2.920   8.756 -1.9327 -0.4191 -2.8934
  108OSM   C17S11130   0.171   2.742   8.648  1.0724  0.1671 -0.6327
  108OSM   H17S11131   0.179   2.802   8.555  1.1041  0.3961 -0.4817
  108OSM   H17T11132   0.066   2.740   8.682  1.1591  0.4366 -0.3487
  108OSM   C18S11133   0.201   2.592   8.639  0.2427 -0.2550  0.3831
  108OSM   H18S11134   0.168   2.540   8.731  0.9086 -1.0956  0.1702
  108OSM   H18T11135   0.306   2.572   8.606  1.3194  0.5999  3.0439
  108OSM   H18U11136   0.133   2.556   8.559 -1.9078  3.6024  0.2569
  108OSM    C1F11137   0.775   2.685  10.453  0.3953 -0.6514  0.2915
  108OSM     OF11138   0.779   2.569  10.486  0.6647  0.2564  0.3253
  108OSM    C2F11139   0.896   2.766  10.454  0.6260  0.3530  0.6546
  108OSM    H2F11140   0.973   2.728  10.525  2.3382  2.3112 -0.0694
  108OSM    H2G11141   0.866   2.863  10.497 -1.3230  1.2442 -2.4009
  108OSM    C3F11142   0.942   2.784  10.310  0.1964  0.0369 -0.1367
  108OSM    H3F11143   1.024   2.860  10.317  2.5461 -2.4524  1.4221
  108OSM    H3G11144   0.856   2.816  10.247  1.1720  1.8469 -0.6219
  108OSM    C4F11145   1.011   2.667  10.241  0.1740  0.0842 -0.0654
  108OSM    H4F11146   0.937   2.584  10.244  1.1031 -0.7682 -0.1198
  108OSM    H4G11147   1.082   2.629  10.317 -0.7326 -2.3596 -0.3694
  108OSM    C5F11148   1.074   2.691  10.108 -0.3657 -0.4958  0.1239
  108OSM    H5F11149   1.132   2.785  10.123  2.1802 -1.7951 -0.8486
  108OSM    H5G11150   0.984   2.711  10.046 -0.3553  0.1928  0.3228
  108OSM    C6F11151   1.166   2.576  10.060 -0.3010 -0.5391  0.3665
  108OSM    H6F11152   1.106   2.485  10.036 -0.0836 -0.8858  1.1188
  108OSM    H6G11153   1.217   2.535  10.149 -0.8396 -1.5375  0.2336
  108OSM    C7F11154   1.265   2.603   9.943 -0.2628  0.1514 -0.3747
  108OSM    H7F11155   1.284   2.504   9.898 -0.8531 -0.1693  0.0618
  108OSM    H7G11156   1.358   2.651   9.979 -1.3546  0.3873  2.3474
  108OSM    C8F11157   1.213   2.697   9.830  0.0018  0.3497  0.4687
  108OSM    H8F11158   1.190   2.795   9.877 -1.2346  0.0874  0.4342
  108OSM    H8G11159   1.118   2.651   9.796  1.3462 -3.0836  0.9184
  108OSM    C9F11160   1.309   2.722   9.715 -0.7019  0.0821 -0.5121
  108OSM    H9F11161   1.403   2.774   9.737  0.5359 -0.8352 -3.1990
  108OSM   C10F11162   1.296   2.679   9.589 -0.0933 -0.2543 -0.1014
  108OSM   H10F11163   1.379   2.699   9.519  1.3105 -1.9881  0.9825
  108OSM   C11F11164   1.186   2.601   9.518  0.4644  0.0635  0.3263
  108OSM   H11F11165   1.146   2.659   9.432 -0.0546  0.1723  0.6344
  108OSM   H11G11166   1.100   2.598   9.589  0.4209  0.3537  0.2900
  108OSM   C12F11167   1.236   2.456   9.483  0.2051  0.7923  0.4156
  108OSM   H12F11168   1.266   2.411   9.580  1.8652 -0.5073 -0.6633
  108OSM   H12G11169   1.326   2.473   9.422  0.8289  0.8223  1.3217
  108OSM   C13F11170   1.130   2.376   9.406 -0.0102 -0.3940  0.3589
  108OSM   H13F11171   1.051   2.364   9.483 -2.6173  1.1623 -1.8886
  108OSM   H13G11172   1.168   2.277   9.374 -0.3150 -0.5044  0.3314
  108OSM   C14F11173   1.057   2.440   9.285 -0.6558  0.4558  0.4906
  108OSM   H14F11174   0.998   2.531   9.309  1.0857  1.2946  1.8134
  108OSM   H14G11175   0.989   2.362   9.243 -0.2441 -0.2393  1.0838
  108OSM   C15F11176   1.150   2.494   9.176  0.1811  0.2228 -0.6129
  108OSM   H15F11177   1.197   2.585   9.217 -0.7437  0.7394 -0.6661
  108OSM   H15G11178   1.095   2.528   9.086  1.2232  1.0831 -0.9348
  108OSM   C16F11179   1.263   2.398   9.133 -0.7379 -0.0416 -0.3152
  108OSM   H16F11180   1.232   2.294   9.109 -1.3136  0.3348 -1.2276
  108OSM   H16G11181   1.348   2.382   9.203  1.2094 -1.7598 -2.8818
  108OSM   C17F11182   1.323   2.459   9.001  0.0715 -0.3714 -0.2135
  108OSM   H17F11183   1.401   2.535   9.021  0.9054 -1.2607 -0.0107
  108OSM   H17G11184   1.242   2.507   8.941  0.1586  1.0397  0.7474
  108OSM   C18F11185   1.395   2.372   8.898 -0.3894  0.1861  0.2371
  108OSM   H18F11186   1.319   2.304   8.854  0.3790  0.4331 -1.5444
  108OSM   H18G11187   1.474   2.312   8.949 -0.0991 -0.7804 -1.3014
  108OSM   H18H11188   1.441   2.439   8.822 -1.0860 -0.7488 -1.0441
  109OSM      N11189   0.833   3.456  10.878 -0.1703 -0.4052 -0.8687
  109OSM    C1511190   0.907   3.420  11.008  0.2637  0.0382 -0.2680
  109OSM   H15A11191   0.867   3.450  11.103  0.6939 -1.9695  0.6062
  109OSM   H15B11192   1.008   3.454  10.992  0.6145 -0.9236 -0.1475
  109OSM   H15C11193   0.914   3.312  11.017 -0.8971 -0.3837 -3.0885
  109OSM    C1411194   0.840   3.608  10.846  0.4387 -0.6643  0.7202
  109OSM   H14A11195   0.783   3.629  10.756  0.4174  1.1196  1.1289
  109OSM   H14B11196   0.942   3.639  10.834  0.3477 -0.6411 -0.0409
  109OSM   H14C11197   0.791   3.669  10.920 -0.4483  0.0935 -0.4440
  109OSM    C1311198   0.913   3.384  10.777  0.1515  0.0945  0.5332
  109OSM   H13A11199   0.918   3.279  10.799  1.3262  0.8017  4.3205
  109OSM   H13B11200   1.013   3.424  10.770  0.4153 -0.7664 -1.4867
  109OSM   H13C11201   0.872   3.399  10.678  1.4586 -2.4478 -0.4953
  109OSM    C1211202   0.687   3.413  10.883  0.9060 -0.3494  0.1310
  109OSM   H12A11203   0.644   3.449  10.975  0.7382  2.2901 -0.8871
  109OSM   H12B11204   0.673   3.306  10.884  0.2378 -0.2699 -0.4341
  109OSM    C1111205   0.591   3.476  10.777  0.1857 -0.7156 -0.3623
  109OSM   H11A11206   0.568   3.583  10.799  0.1723 -0.4058 -1.7627
  109OSM   H11B11207   0.489   3.433  10.789 -0.5041  0.6261 -1.1363
  109OSM      P11208   0.632   3.335  10.565  0.3639 -0.1337 -0.0999
  109OSM    O1311209   0.732   3.236  10.613 -0.2334  0.3808  0.3081
  109OSM    O1411210   0.487   3.292  10.557 -0.1850 -0.3228 -0.2968
  109OSM    O1111211   0.681   3.390  10.421 -0.5155  0.7664  0.4728
  109OSM    O1211212   0.642   3.474  10.644  0.2561 -0.4851  0.6033
  109OSM    C1S11213   0.822   3.418  10.411 -0.9906  0.3238  0.4328
  109OSM    H1S11214   0.882   3.324  10.416 -0.2416  0.7714  0.0402
  109OSM    H1T11215   0.851   3.492  10.488 -2.0686 -0.0893  1.2598
  109OSM     NF11216   0.997   3.510  10.264 -0.2545 -0.4071 -0.1227
  109OSM    HNF11217   1.037   3.598  10.288  0.4993 -0.2929 -1.6500
  109OSM    C2S11218   0.851   3.485  10.279 -0.7685  0.2533 -0.4670
  109OSM    H2S11219   0.810   3.415  10.203 -0.2648 -1.0456  0.4258
  109OSM    C3S11220   0.768   3.618  10.276 -0.4004 -0.6710  0.7800
  109OSM    H3S11221   0.797   3.679  10.364 -0.7441 -0.9970  1.1199
  109OSM     O311222   0.622   3.600  10.289 -0.6208 -0.0876 -0.3681
  109OSM    HO311223   0.622   3.507  10.312 -1.1671  0.2966  1.2867
  109OSM    C4S11224   0.799   3.689  10.147  0.4112  0.2238  0.2161
  109OSM    H4S11225   0.900   3.733  10.144  0.3212  0.4140  0.0177
  109OSM    C5S11226   0.728   3.692  10.034 -0.3408 -0.0708  0.8731
  109OSM    H5S11227   0.650   3.616  10.018  1.3547 -1.6046 -0.5381
  109OSM    C6S11228   0.762   3.752   9.899 -0.3685  0.2658 -0.6244
  109OSM    H6S11229   0.846   3.824   9.898  1.6543 -1.9545 -1.4738
  109OSM    H6T11230   0.671   3.806   9.867  0.8947  2.5491 -0.5589
  109OSM    C7S11231   0.773   3.637   9.794 -0.7283 -0.2939  0.4122
  109OSM    H7S11232   0.678   3.582   9.815 -2.6069  3.4169  2.7126
  109OSM    H7T11233   0.860   3.568   9.803 -0.4873  0.2080  2.2870
  109OSM    C8S11234   0.774   3.696   9.653 -0.2658 -0.2527  0.3079
  109OSM    H8S11235   0.848   3.778   9.638 -0.5368 -0.1446 -0.4665
  109OSM    H8T11236   0.674   3.741   9.636  0.4608  1.5928  0.6907
  109OSM    C9S11237   0.801   3.583   9.541  0.4652  0.0690 -0.3662
  109OSM    H9S11238   0.730   3.499   9.554 -0.6048  0.6479 -2.0547
  109OSM    H9T11239   0.907   3.553   9.550  0.5569  0.4653 -0.1263
  109OSM   C10S11240   0.797   3.643   9.403 -0.3624  0.3555  1.1806
  109OSM   H10S11241   0.889   3.700   9.378 -0.8666  0.5061 -0.5151
  109OSM   H10T11242   0.717   3.719   9.392 -0.0249  0.7141  1.1902
  109OSM   C11S11243   0.777   3.538   9.293  0.7229 -0.4953  0.2664
  109OSM   H11S11244   0.688   3.475   9.317 -0.6505  0.5588 -1.7664
  109OSM   H11T11245   0.864   3.469   9.293  0.0002 -1.4380  0.7677
  109OSM   C12S11246   0.755   3.603   9.157  0.2815 -0.3310  0.5910
  109OSM   H12S11247   0.836   3.671   9.123 -1.5858  0.8015 -1.8913
  109OSM   H12T11248   0.670   3.672   9.174  1.1108  1.0298 -0.5617
  109OSM   C13S11249   0.727   3.500   9.047 -0.4874  0.3220  1.4047
  109OSM   H13S11250   0.629   3.450   9.061  0.1668 -0.8972  1.7875
  109OSM   H13T11251   0.802   3.417   9.046  0.5356  1.2102  1.8991
  109OSM   C14S11252   0.727   3.560   8.900  0.2608  0.3563 -0.8868
  109OSM   H14S11253   0.831   3.583   8.868  1.2381 -2.2047  0.1785
  109OSM   H14T11254   0.672   3.655   8.917  0.0057  0.3780 -1.7953
  109OSM   C15S11255   0.652   3.453   8.812 -0.3708 -0.5378 -0.1817
  109OSM   H15S11256   0.546   3.461   8.845 -0.6445 -0.7101 -1.0164
  109OSM   H15T11257   0.690   3.350   8.832  0.1043 -0.3226  0.0531
  109OSM   C16S11258   0.651   3.489   8.666  0.8060  0.1466 -0.6691
  109OSM   H16S11259   0.745   3.446   8.626  0.3998 -0.5871 -0.8434
  109OSM   H16T11260   0.663   3.598   8.645 -1.0917  0.6305  0.4912
  109OSM   C17S11261   0.519   3.442   8.594 -0.1023  0.0585 -0.5078
  109OSM   H17S11262   0.435   3.512   8.614  0.4327  1.2756 -2.3450
  109OSM   H17T11263   0.492   3.339   8.628 -0.4129  0.2520 -0.1508
  109OSM   C18S11264   0.536   3.439   8.441  0.6198  0.4770  0.0625
  109OSM   H18S11265   0.440   3.407   8.395  0.7492  0.1287  0.0347
  109OSM   H18T11266   0.618   3.372   8.406  1.1335  0.5194  1.1387
  109OSM   H18U11267   0.565   3.542   8.412  1.9942 -0.0061 -0.3812
  109OSM    C1F11268   1.078   3.414  10.215 -0.3966  0.0078 -0.5351
  109OSM     OF11269   1.034   3.301  10.203  0.3464 -0.1387 -0.7587
  109OSM    C2F11270   1.220   3.448  10.195 -0.0349  0.3288  0.4688
  109OSM    H2F11271   1.291   3.371  10.229  0.6552  0.4435 -0.6442
  109OSM    H2G11272   1.241   3.543  10.248  1.0869 -0.0877  0.8015
  109OSM    C3F11273   1.250   3.477  10.042  0.7940  0.8280  0.4191
  109OSM    H3F11274   1.221   3.381   9.995  1.2078 -0.0988  2.0088
  109OSM    H3G11275   1.361   3.484  10.035  0.7482  1.8433  0.5448
  109OSM    C4F11276   1.184   3.596   9.971 -0.1185 -0.8122  0.1885
  109OSM    H4F11277   1.185   3.680  10.043  1.2202 -0.7012  0.0688
  109OSM    H4G11278   1.078   3.580   9.944  0.1190  0.9611 -2.0392
  109OSM    C5F11279   1.256   3.632   9.840  0.1465 -0.3455  0.4917
  109OSM    H5F11280   1.356   3.586   9.832 -0.0795 -0.5251 -2.2236
  109OSM    H5G11281   1.266   3.742   9.845 -2.4311 -0.0865  1.6260
  109OSM    C6F11282   1.191   3.584   9.712  0.8668  0.4883  0.1491
  109OSM    H6F11283   1.100   3.643   9.689  0.8411  0.6917  0.7664
  109OSM    H6G11284   1.156   3.481   9.736  1.1356  0.0205 -1.3417
  109OSM    C7F11285   1.301   3.574   9.595  0.3320 -0.3308  0.3390
  109OSM    H7F11286   1.384   3.504   9.621 -0.3185 -1.6857 -1.0727
  109OSM    H7G11287   1.351   3.667   9.560 -2.4015  0.8961 -0.5639
  109OSM    C8F11288   1.232   3.527   9.458  0.1815 -0.0438  1.1731
  109OSM    H8F11289   1.179   3.613   9.413 -0.0363 -1.1846 -0.9035
  109OSM    H8G11290   1.157   3.448   9.481 -1.6255  1.3347  0.2099
  109OSM    C9F11291   1.338   3.474   9.362  0.7005  0.1320  0.1485
  109OSM    H9F11292   1.432   3.441   9.410 -0.5916 -1.5464  1.6903
  109OSM   C10F11293   1.322   3.448   9.236 -0.0866  0.6846  0.0873
  109OSM   H10F11294   1.407   3.400   9.186  1.2367  1.7477  1.2377
  109OSM   C11F11295   1.202   3.485   9.155  0.1644  0.4687 -0.4519
  109OSM   H11F11296   1.134   3.551   9.211 -1.0829  0.7660 -2.2187
  109OSM   H11G11297   1.137   3.398   9.130  0.4073 -0.4942  1.9700
  109OSM   C12F11298   1.234   3.544   9.016  0.7044  0.2897 -0.3682
  109OSM   H12F11299   1.318   3.616   9.028  2.3437 -1.0807 -2.7791
  109OSM   H12G11300   1.158   3.618   8.983  0.4965  0.9411  1.4507
  109OSM   C13F11301   1.271   3.442   8.906  0.4629 -0.1792  0.2078
  109OSM   H13F11302   1.315   3.347   8.942 -0.3353 -0.0095  1.6852
  109OSM   H13G11303   1.354   3.481   8.844 -0.3444  0.2101 -0.6558
  109OSM   C14F11304   1.148   3.419   8.818  1.1075  0.0631 -0.4478
  109OSM   H14F11305   1.102   3.517   8.795  1.5975  1.2349  3.0514
  109OSM   H14G11306   1.076   3.356   8.873  2.9890 -2.5870 -0.8251
  109OSM   C15F11307   1.172   3.345   8.682 -0.3283 -0.4382  0.0118
  109OSM   H15F11308   1.247   3.263   8.687 -0.7150 -0.7406  1.3194
  109OSM   H15G11309   1.207   3.423   8.611 -1.3838 -1.1632 -1.3591
  109OSM   C16F11310   1.041   3.287   8.625 -0.4786  0.5388  0.1554
  109OSM   H16F11311   0.965   3.366   8.611  0.4883  1.9360  2.1878
  109OSM   H16G11312   0.988   3.228   8.703 -0.3366  1.1049  0.6850
  109OSM   C17F11313   1.057   3.188   8.512 -0.5334 -0.0132  0.6649
  109OSM   H17F11314   0.954   3.146   8.502  0.3841 -1.8510 -2.3186
  109OSM   H17G11315   1.121   3.106   8.550 -0.1229 -0.3198 -0.6466
  109OSM   C18F11316   1.105   3.240   8.371 -0.4167 -0.1205 -0.1065
  109OSM   H18F11317   1.026   3.300   8.321  1.2408  1.0319 -1.4418
  109OSM   H18G11318   1.148   3.158   8.310 -0.5348 -0.6788  0.5355
  109OSM   H18H11319   1.198   3.297   8.390 -0.1409 -0.8264  0.7384
  110OSM      N11320   2.148   3.647  10.861 -0.3765 -0.6563 -0.8893
  110OSM    C1511321   2.266   3.704  10.781 -0.8754  0.3166  0.3615
  110OSM   H15A11322   2.359   3.688  10.834 -0.2918  1.6701 -0.1984
  110OSM   H15B11323   2.255   3.811  10.773 -1.4440  0.1722 -1.1404
  110OSM   H15C11324   2.271   3.663  10.682  0.4987  0.8941  0.1673
  110OSM    C1411325   2.154   3.494  10.866 -0.0776 -0.3642 -0.1602
  110OSM   H14A11326   2.086   3.459  10.943 -0.3805 -0.3499 -0.4218
  110OSM   H14B11327   2.250   3.459  10.900 -0.3182 -0.0717  0.8737
  110OSM   H14C11328   2.130   3.455  10.768 -1.2024  0.5158 -0.2507
  110OSM    C1311329   2.165   3.694  10.999  0.1042 -0.2230 -0.4474
  110OSM   H13A11330   2.096   3.658  11.074  0.8525  0.0271  0.3830
  110OSM   H13B11331   2.163   3.802  10.998  1.6123 -0.1703 -1.0395
  110OSM   H13C11332   2.264   3.667  11.034  0.1449 -2.7218 -2.2323
  110OSM    C1211333   2.024   3.689  10.790  0.0500 -0.1398 -0.5630
  110OSM   H12A11334   1.961   3.603  10.773 -1.1023  0.9880 -2.3862
  110OSM   H12B11335   2.049   3.719  10.689  1.4591  0.4116 -0.0767
  110OSM    C1111336   1.945   3.814  10.853  0.0419  0.5924 -0.1538
  110OSM   H11A11337   1.915   3.776  10.954  1.3236 -0.8175 -0.2490
  110OSM   H11B11338   1.861   3.842  10.786  0.6611  1.9043 -0.4128
  110OSM      P11339   2.073   4.033  10.769  0.0033  0.0077  0.3207
  110OSM    O1311340   2.093   4.166  10.828  0.2818 -0.1391  0.6968
  110OSM    O1411341   2.192   3.981  10.704 -0.3147  0.0453  0.3593
  110OSM    O1111342   1.946   4.035  10.666  0.7498 -0.2463  0.0691
  110OSM    O1211343   2.029   3.927  10.878 -0.4842  0.1633 -0.7588
  110OSM    C1S11344   1.930   4.132  10.564 -0.0159  1.0296  0.6043
  110OSM    H1S11345   1.964   4.232  10.599 -1.3004  1.3713  0.9169
  110OSM    H1T11346   1.824   4.156  10.542 -0.4013 -0.7090  0.4740
  110OSM     NF11347   2.022   4.193  10.346 -0.3229 -0.7906  0.3218
  110OSM    HNF11348   1.959   4.228  10.278  0.0771 -0.4357  0.1251
  110OSM    C2S11349   1.986   4.082  10.425  0.9941  0.1813 -0.5227
  110OSM    H2S11350   2.077   4.021  10.441  0.4797 -0.8946 -1.4518
  110OSM    C3S11351   1.881   3.987  10.364 -0.1212  0.4118  0.7175
  110OSM    H3S11352   1.793   4.051  10.342 -0.4908  0.2766  1.7486
  110OSM     O311353   1.829   3.884  10.442 -0.3043  0.3027 -0.3495
  110OSM    HO311354   1.874   3.908  10.524  1.2001 -2.4713 -0.2015
  110OSM    C4S11355   1.941   3.927  10.238 -0.5142 -0.3825 -0.4634
  110OSM    H4S11356   1.902   3.977  10.149 -0.5520  0.6435  0.1150
  110OSM    C5S11357   2.021   3.816  10.217  0.1713  0.0084 -0.6363
  110OSM    H5S11358   2.057   3.771  10.311 -0.7272  0.3677 -0.1018
  110OSM    C6S11359   2.071   3.763  10.089  0.6525  0.3314  0.1745
  110OSM    H6S11360   2.078   3.654  10.109 -0.5686  0.4016  1.0250
  110OSM    H6T11361   2.180   3.785  10.080  0.8266 -0.5259  0.0502
  110OSM    C7S11362   1.990   3.795   9.969 -0.9781 -0.8742 -0.2359
  110OSM    H7S11363   1.881   3.788   9.988 -1.5918  1.0287 -2.5954
  110OSM    H7T11364   2.020   3.727   9.887 -1.8009 -0.4864 -0.8805
  110OSM    C8S11365   2.025   3.927   9.904  0.3873 -0.4988  0.0908
  110OSM    H8S11366   2.044   4.002   9.984  0.5529  0.2998 -0.6886
  110OSM    H8T11367   1.953   3.973   9.834  1.9288 -0.0587 -1.2712
  110OSM    C9S11368   2.164   3.923   9.824  0.2300 -0.0438  0.6831
  110OSM    H9S11369   2.173   3.820   9.783 -5.0218  0.0042 -1.4929
  110OSM    H9T11370   2.244   3.930   9.900  0.9121  0.9882 -0.1122
  110OSM   C10S11371   2.179   4.022   9.705 -0.0029  0.1000  0.3709
  110OSM   H10S11372   2.285   4.010   9.673  0.1633 -0.1882  1.0116
  110OSM   H10T11373   2.162   4.122   9.751 -0.6350 -1.7259  4.6031
  110OSM   C11S11374   2.096   3.982   9.579 -0.3404  0.4593 -0.3785
  110OSM   H11S11375   1.987   3.983   9.602 -0.4187  1.5307 -0.7730
  110OSM   H11T11376   2.120   3.878   9.546  4.2695  1.7585 -1.9130
  110OSM   C12S11377   2.123   4.091   9.469  0.4475 -0.8319 -0.2712
  110OSM   H12S11378   2.227   4.108   9.435  0.6559  0.5597  0.9784
  110OSM   H12T11379   2.088   4.188   9.509 -0.8998 -0.8951 -1.2167
  110OSM   C13S11380   2.039   4.065   9.345 -0.4842 -0.3788 -0.0578
  110OSM   H13S11381   1.932   4.080   9.372 -0.7224  1.0840 -1.6790
  110OSM   H13T11382   2.046   3.957   9.320 -2.6183 -0.3461 -1.0172
  110OSM   C14S11383   2.075   4.161   9.231 -0.0575  0.6515 -0.3314
  110OSM   H14S11384   2.183   4.187   9.238 -0.4215  1.9879  0.8158
  110OSM   H14T11385   2.019   4.256   9.245 -1.6767 -0.0466 -1.7701
  110OSM   C15S11386   2.035   4.105   9.092  0.3304  0.1018 -0.1662
  110OSM   H15S11387   1.927   4.082   9.081 -0.7649  2.3975  3.6740
  110OSM   H15T11388   2.088   4.007   9.082 -3.0043 -1.9073  0.2797
  110OSM   C16S11389   2.090   4.191   8.979 -0.2298 -0.5459  0.2037
  110OSM   H16S11390   2.200   4.192   8.997 -0.2355 -2.3535  0.5576
  110OSM   H16T11391   2.065   4.297   9.000  2.9567 -0.1562  2.9397
  110OSM   C17S11392   2.051   4.138   8.836 -0.2080  0.4339 -0.5421
  110OSM   H17S11393   2.120   4.189   8.765  2.8401 -0.7261  1.3933
  110OSM   H17T11394   1.948   4.173   8.815 -0.0798  2.2289  1.4122
  110OSM   C18S11395   2.052   3.991   8.813  0.4019 -0.9284  0.7712
  110OSM   H18S11396   2.152   3.945   8.829  1.1160  0.0496 -0.6050
  110OSM   H18T11397   2.011   3.973   8.712 -2.7257 -0.2664  1.7980
  110OSM   H18U11398   1.988   3.934   8.884 -1.3360  0.2929  0.2464
  110OSM    C1F11399   2.132   4.263  10.365 -0.4044 -0.0723 -0.3036
  110OSM     OF11400   2.203   4.238  10.462 -0.1909 -0.6468 -0.0892
  110OSM    C2F11401   2.159   4.385  10.286  0.0555  0.1933 -0.4813
  110OSM    H2F11402   2.138   4.473  10.350  2.3023  2.1711 -2.2570
  110OSM    H2G11403   2.080   4.389  10.208 -0.6362  2.2439  0.2554
  110OSM    C3F11404   2.304   4.390  10.226  0.1045 -0.5559 -0.0809
  110OSM    H3F11405   2.385   4.375  10.301 -0.0625 -1.7249 -0.1201
  110OSM    H3G11406   2.320   4.481  10.164 -0.9881 -0.5435 -0.3705
  110OSM    C4F11407   2.325   4.282  10.121 -0.2444  0.3531  0.4165
  110OSM    H4F11408   2.322   4.181  10.166  0.7248 -0.5093 -1.3503
  110OSM    H4G11409   2.418   4.276  10.060  0.8037  3.9413  1.3965
  110OSM    C5F11410   2.214   4.274  10.011 -0.1702 -0.4523 -0.3072
  110OSM    H5F11411   2.118   4.267  10.066  0.6724  0.6894  1.4141
  110OSM    H5G11412   2.229   4.182   9.952 -0.6461 -0.0491 -1.0672
  110OSM    C6F11413   2.207   4.388   9.902 -0.8282  0.7023  0.0008
  110OSM    H6F11414   2.167   4.471   9.964  0.3177  0.0120  1.7215
  110OSM    H6G11415   2.138   4.346   9.825 -2.8060  0.7114  1.6902
  110OSM    C7F11416   2.339   4.434   9.830 -0.3079 -0.3094 -0.0994
  110OSM    H7F11417   2.410   4.472   9.906  0.0973  0.5965 -0.9089
  110OSM    H7G11418   2.320   4.517   9.759  0.1705 -0.3768 -0.3098
  110OSM    C8F11419   2.392   4.327   9.736 -0.5906  0.8829  0.0568
  110OSM    H8F11420   2.311   4.322   9.660  1.1239  0.7751 -1.8513
  110OSM    H8G11421   2.390   4.237   9.801 -1.7756  0.3920 -0.6219
  110OSM    C9F11422   2.524   4.368   9.673  0.0316  0.4189 -0.6048
  110OSM    H9F11423   2.589   4.393   9.758 -2.1569  1.8150  0.7424
  110OSM   C10F11424   2.563   4.371   9.547 -0.0153  0.5798  0.2123
  110OSM   H10F11425   2.665   4.398   9.515 -0.7081  1.7534 -1.0977
  110OSM   C11F11426   2.465   4.345   9.429  0.3981  0.0347 -0.5324
  110OSM   H11F11427   2.373   4.407   9.434 -0.3567 -1.1136  0.5362
  110OSM   H11G11428   2.420   4.244   9.436 -0.9445  0.6294 -0.1837
  110OSM   C12F11429   2.539   4.387   9.298 -0.6710  0.3874  0.1737
  110OSM   H12F11430   2.617   4.310   9.281 -0.9752  0.1243 -0.0565
  110OSM   H12G11431   2.581   4.489   9.310 -1.1398  0.5985  0.0552
  110OSM   C13F11432   2.451   4.396   9.175 -0.0961  0.2985  0.5751
  110OSM   H13F11433   2.381   4.482   9.182 -0.3960  0.0751  0.4049
  110OSM   H13G11434   2.388   4.304   9.179 -1.1939  1.0385  0.7453
  110OSM   C14F11435   2.532   4.433   9.051 -0.0951  0.1885 -0.0651
  110OSM   H14F11436   2.586   4.524   9.084  0.8830 -0.9624  1.7382
  110OSM   H14G11437   2.460   4.446   8.967 -0.2026  1.1126  0.1558
  110OSM   C15F11438   2.626   4.323   9.006 -0.3781 -0.1296  0.7353
  110OSM   H15F11439   2.568   4.229   8.997  0.5015 -0.9395  2.8735
  110OSM   H15G11440   2.716   4.314   9.072  0.6812  2.1042 -0.2841
  110OSM   C16F11441   2.682   4.346   8.864  0.2081 -0.4084  0.2979
  110OSM   H16F11442   2.587   4.342   8.807  2.0724 -0.5301 -3.1182
  110OSM   H16G11443   2.752   4.263   8.838  2.3122  0.5372  2.5099
  110OSM   C17F11444   2.760   4.478   8.855  0.1773 -0.5404 -0.3022
  110OSM   H17F11445   2.839   4.473   8.933 -2.1809 -1.0336  2.2127
  110OSM   H17G11446   2.687   4.558   8.880  1.2253 -0.0185  1.1697
  110OSM   C18F11447   2.815   4.513   8.712  0.3732 -0.0347  0.8768
  110OSM   H18F11448   2.889   4.434   8.686 -0.4464 -0.6538  0.3972
  110OSM   H18G11449   2.852   4.618   8.700  1.3472 -0.5409 -1.0352
  110OSM   H18H11450   2.735   4.515   8.635  0.1715  2.7965  1.0450
  111OSM      N11451   2.643   5.736  11.056 -0.3488  0.2501  0.3304
  111OSM    C1511452   2.537   5.662  10.981 -0.2222  0.7475 -0.2061
  111OSM   H15A11453   2.441   5.705  11.006 -0.3207  1.8858 -2.2962
  111OSM   H15B11454   2.536   5.555  10.999 -0.8276  0.9531  1.1194
  111OSM   H15C11455   2.544   5.689  10.877  1.9242 -0.4287 -0.4150
  111OSM    C1411456   2.627   5.882  11.051 -0.0217 -0.0023 -0.2158
  111OSM   H14A11457   2.690   5.931  11.125  2.1884 -1.1256 -1.2701
  111OSM   H14B11458   2.525   5.909  11.074 -0.1448 -0.2156 -0.5123
  111OSM   H14C11459   2.662   5.916  10.955  1.0052 -1.4061 -0.3676
  111OSM    C1311460   2.627   5.696  11.199 -0.2151  0.3446  0.3138
  111OSM   H13A11461   2.522   5.711  11.221 -0.4666  1.2966 -1.3640
  111OSM   H13B11462   2.677   5.763  11.267  0.4843  3.4289 -2.9449
  111OSM   H13C11463   2.658   5.593  11.212  2.1530  1.0576  0.8090
  111OSM    C1211464   2.777   5.696  11.010 -0.8807 -0.5457  0.6321
  111OSM   H12A11465   2.784   5.589  10.999 -1.2107 -0.3168 -4.1838
  111OSM   H12B11466   2.857   5.738  11.069  0.0453  0.2472 -1.1182
  111OSM    C1111467   2.807   5.723  10.854 -0.2524 -0.5702  0.2666
  111OSM   H11A11468   2.722   5.701  10.786  0.3580  0.3300 -0.8507
  111OSM   H11B11469   2.890   5.656  10.820  0.7997  1.3392 -1.1528
  111OSM      P11470   2.967   5.932  10.888  0.4184 -0.0341 -0.7201
  111OSM    O1311471   2.927   6.060  10.936 -0.2102 -0.4654 -1.0748
  111OSM    O1411472   3.039   5.842  10.988 -0.0774  0.0303 -0.5899
  111OSM    O1111473   3.067   5.949  10.759 -0.4758  0.4667 -0.2505
  111OSM    O1211474   2.842   5.854  10.818 -0.1343 -0.3391 -0.5537
  111OSM    C1S11475   3.093   5.844  10.671 -0.1023  0.0799  0.9637
  111OSM    H1S11476   3.011   5.770  10.672  1.5265 -1.8356  0.6443
  111OSM    H1T11477   3.172   5.780  10.716  0.7647  0.0526 -0.5454
  111OSM     NF11478   3.158   5.776  10.453  0.1920 -0.2908 -0.4479
  111OSM    HNF11479   3.251   5.772  10.417  0.3463  0.4946 -0.1594
  111OSM    C2S11480   3.123   5.887  10.525  0.0061 -0.3668 -0.0272
  111OSM    H2S11481   3.030   5.924  10.476  0.1510 -0.8181 -0.6582
  111OSM    C3S11482   3.230   6.002  10.522  0.0097  0.5560 -0.2827
  111OSM    H3S11483   3.328   5.959  10.554 -1.0797 -1.8893 -0.0689
  111OSM     O311484   3.214   6.109  10.619 -0.0004  0.9581  0.0349
  111OSM    HO311485   3.177   6.069  10.699  2.5918  0.1496  0.9462
  111OSM    C4S11486   3.240   6.041  10.376  0.0684 -0.6236  0.3879
  111OSM    H4S11487   3.305   5.973  10.318  0.2058 -0.3160  0.1793
  111OSM    C5S11488   3.176   6.147  10.319 -0.4406 -0.4065 -0.8700
  111OSM    H5S11489   3.106   6.211  10.374 -0.0168  0.7901 -1.6847
  111OSM    C6S11490   3.192   6.177  10.175 -0.0527  0.6664 -0.6228
  111OSM    H6S11491   3.101   6.141  10.122  1.0371 -2.1023 -0.7661
  111OSM    H6T11492   3.281   6.124  10.137  0.3480  0.1239  0.9749
  111OSM    C7S11493   3.218   6.324  10.152  0.0936 -0.3401  0.2220
  111OSM    H7S11494   3.310   6.369  10.194  0.1581  1.0212 -1.3002
  111OSM    H7T11495   3.137   6.390  10.189  1.5935  0.4853  2.2080
  111OSM    C8S11496   3.228   6.358  10.004 -0.6975  0.3206  0.4619
  111OSM    H8S11497   3.194   6.463   9.993 -3.5555 -0.6947 -1.4531
  111OSM    H8T11498   3.169   6.284   9.947 -0.2035  0.7779 -0.6670
  111OSM    C9S11499   3.370   6.354   9.945  0.6075 -0.2507 -0.5321
  111OSM    H9S11500   3.416   6.257   9.972  1.6410 -0.2593 -2.2499
  111OSM    H9T11501   3.438   6.423  10.000 -0.9655  0.5557  0.4934
  111OSM   C10S11502   3.375   6.372   9.795 -0.3609 -0.4061 -0.5082
  111OSM   H10S11503   3.323   6.466   9.765 -0.7627 -0.6474 -0.5870
  111OSM   H10T11504   3.322   6.292   9.739  1.3161 -1.5162 -0.5416
  111OSM   C11S11505   3.527   6.375   9.748 -1.0280  0.4698  0.2224
  111OSM   H11S11506   3.582   6.290   9.795  0.1964  1.0458 -0.1172
  111OSM   H11T11507   3.576   6.469   9.782  2.2609  0.0785 -2.7523
  111OSM   C12S11508   3.554   6.358   9.599 -0.1716 -0.4874 -0.2752
  111OSM   H12S11509   3.521   6.257   9.567 -2.4567  0.9381 -2.8262
  111OSM   H12T11510   3.661   6.360   9.570 -0.5977  0.3208 -1.8666
  111OSM   C13S11511   3.480   6.465   9.518  0.4683  0.5508 -0.8621
  111OSM   H13S11512   3.494   6.571   9.550 -0.7458  0.7399 -0.9058
  111OSM   H13T11513   3.371   6.450   9.533  0.3189  2.8736  0.9404
  111OSM   C14S11514   3.510   6.465   9.371 -0.3600 -1.0969  0.3433
  111OSM   H14S11515   3.438   6.535   9.324  0.7937  1.2701  1.9093
  111OSM   H14T11516   3.502   6.365   9.324  0.4847 -2.1202  2.2863
  111OSM   C15S11517   3.647   6.527   9.330 -0.2894  0.8270 -0.7396
  111OSM   H15S11518   3.722   6.451   9.360  3.4941  3.3209 -3.0072
  111OSM   H15T11519   3.667   6.625   9.379 -0.2911  0.1979  0.5437
  111OSM   C16S11520   3.665   6.542   9.178 -0.1735 -0.0839 -0.0565
  111OSM   H16S11521   3.676   6.444   9.127 -1.5995 -0.2388 -0.1268
  111OSM   H16T11522   3.762   6.593   9.162 -1.3463  2.3429  0.1466
  111OSM   C17S11523   3.571   6.628   9.096 -0.6883  0.4597  0.3601
  111OSM   H17S11524   3.552   6.715   9.163  2.0702  0.2991  1.5105
  111OSM   H17T11525   3.482   6.565   9.081  0.3954 -1.2007  0.6275
  111OSM   C18S11526   3.640   6.673   8.965  0.3314  0.8926 -0.4599
  111OSM   H18S11527   3.563   6.724   8.903  0.6983  0.5002 -1.2507
  111OSM   H18T11528   3.689   6.590   8.910  1.4813 -0.5713  2.5682
  111OSM   H18U11529   3.717   6.746   8.997  1.6310 -0.2000 -0.9862
  111OSM    C1F11530   3.077   5.680  10.430  0.3549  0.9061 -0.5591
  111OSM     OF11531   2.952   5.688  10.433 -0.6161 -0.6238  0.1573
  111OSM    C2F11532   3.138   5.542  10.406 -0.0593 -0.1280  0.1675
  111OSM    H2F11533   3.158   5.495  10.505  2.9238 -0.3321 -0.4220
  111OSM    H2G11534   3.240   5.536  10.361  0.2117 -4.8930  0.9099
  111OSM    C3F11535   3.045   5.440  10.319  0.5401 -0.2348 -0.1148
  111OSM    H3F11536   2.945   5.436  10.366  0.0433 -0.3342 -1.1699
  111OSM    H3G11537   3.081   5.336  10.327 -0.3756 -0.8147 -2.6988
  111OSM    C4F11538   3.006   5.476  10.174  0.1799 -0.1550 -0.4539
  111OSM    H4F11539   2.941   5.390  10.148 -1.8521  0.5661  1.9197
  111OSM    H4G11540   3.087   5.479  10.097 -1.6329  0.3648 -2.4178
  111OSM    C5F11541   2.914   5.598  10.159  0.7531 -0.9069  0.0789
  111OSM    H5F11542   2.952   5.689  10.209 -2.3859  1.4147 -1.4153
  111OSM    H5G11543   2.819   5.575  10.211  0.4218  2.4060  1.1406
  111OSM    C6F11544   2.879   5.625  10.015  0.1167  0.0665  0.4281
  111OSM    H6F11545   2.810   5.544   9.983 -0.6063  0.4673  0.9529
  111OSM    H6G11546   2.969   5.640   9.951 -0.3740 -0.1657 -0.3304
  111OSM    C7F11547   2.807   5.761  10.009  0.5125 -0.4144 -0.8199
  111OSM    H7F11548   2.853   5.843  10.069 -0.4282  0.4766 -1.2853
  111OSM    H7G11549   2.714   5.726  10.060 -0.0569 -1.1864 -2.3447
  111OSM    C8F11550   2.769   5.804   9.863 -0.2692  0.3920  0.3550
  111OSM    H8F11551   2.700   5.890   9.866 -0.0652  0.6022 -0.5851
  111OSM    H8G11552   2.722   5.712   9.823  2.3500  0.0511 -2.3255
  111OSM    C9F11553   2.889   5.847   9.788  0.2760 -0.0944 -0.1406
  111OSM    H9F11554   2.960   5.907   9.848  0.4275  1.7980 -2.0734
  111OSM   C10F11555   2.923   5.820   9.666 -0.3061 -0.0453  0.4715
  111OSM   H10F11556   3.022   5.855   9.634  0.4190 -2.7093 -0.4910
  111OSM   C11F11557   2.857   5.739   9.554 -0.0651 -0.1685  0.5489
  111OSM   H11F11558   2.776   5.680   9.602 -1.2188  1.6632  0.9381
  111OSM   H11G11559   2.924   5.653   9.531  1.3988  0.4693  2.1792
  111OSM   C12F11560   2.816   5.809   9.427 -0.1160 -0.4340  0.5005
  111OSM   H12F11561   2.906   5.854   9.380 -1.2832 -0.8077 -2.3008
  111OSM   H12G11562   2.733   5.880   9.449  0.9139  0.5378  1.3295
  111OSM   C13F11563   2.759   5.712   9.328 -0.2046 -0.1399 -0.9126
  111OSM   H13F11564   2.654   5.692   9.355 -0.0893  1.2770  0.7685
  111OSM   H13G11565   2.822   5.621   9.335  0.8428  0.6227  0.1039
  111OSM   C14F11566   2.772   5.765   9.181  0.2953 -0.2376  0.1038
  111OSM   H14F11567   2.734   5.868   9.168  1.8496  0.5554  1.4409
  111OSM   H14G11568   2.715   5.699   9.112  2.3254  0.2219 -2.1068
  111OSM   C15F11569   2.918   5.756   9.131 -0.8492  0.4183  0.2514
  111OSM   H15F11570   2.957   5.655   9.156  0.6993  0.4522 -1.7868
  111OSM   H15G11571   2.978   5.827   9.192 -0.2417  0.1058  0.0214
  111OSM   C16F11572   2.935   5.780   8.977  0.1621 -0.6037 -0.2576
  111OSM   H16F11573   2.868   5.712   8.921 -0.1087  0.0226 -0.7102
  111OSM   H16G11574   3.038   5.743   8.955 -0.0917 -2.8944  1.9755
  111OSM   C17F11575   2.899   5.931   8.945 -0.1032 -0.6865 -0.4582
  111OSM   H17F11576   2.951   5.997   9.017 -1.6226 -0.6809  0.6886
  111OSM   H17G11577   2.790   5.947   8.962  0.1634  0.5941  0.1452
  111OSM   C18F11578   2.923   5.959   8.794  0.2941  0.1919  0.3153
  111OSM   H18F11579   2.849   5.909   8.728  1.0483  1.4237 -1.5218
  111OSM   H18G11580   3.020   5.917   8.761  1.2021  2.9186 -0.7735
  111OSM   H18H11581   2.927   6.066   8.764 -1.0533  0.5765  1.4218
  112OSM      N11582   4.332   4.857  11.091  0.0192 -0.4118  0.2032
  112OSM    C1511583   4.379   4.949  11.193  0.6747 -0.8930 -0.5389
  112OSM   H15A11584   4.486   4.934  11.205  0.9662  0.0384 -1.8311
  112OSM   H15B11585   4.336   4.936  11.291  0.6635 -1.4651 -0.6163
  112OSM   H15C11586   4.352   5.052  11.173 -3.3051 -1.5265  0.6249
  112OSM    C1411587   4.375   4.727  11.118 -0.1316  0.0157 -0.0213
  112OSM   H14A11588   4.314   4.675  11.190  0.8798 -1.0493  0.1045
  112OSM   H14B11589   4.478   4.728  11.152 -0.8178  0.2247  2.2083
  112OSM   H14C11590   4.380   4.664  11.030  1.0597  1.6790 -1.2091
  112OSM    C1311591   4.182   4.866  11.088 -0.1082 -0.0371 -0.1343
  112OSM   H13A11592   4.140   4.811  11.005  0.8345 -3.9887  1.7949
  112OSM   H13B11593   4.149   4.968  11.073 -0.1716  0.0111  0.3202
  112OSM   H13C11594   4.141   4.831  11.181 -3.0402  3.2158  0.0162
  112OSM    C1211595   4.376   4.892  10.945 -0.2112 -0.0972  0.1791
  112OSM   H12A11596   4.333   4.985  10.912  1.3180  0.9013  0.8910
  112OSM   H12B11597   4.324   4.816  10.888 -2.0554  0.6258  0.8241
  112OSM    C1111598   4.524   4.905  10.904 -0.2745 -0.5571  0.0798
  112OSM   H11A11599   4.531   4.915  10.794  0.1135 -0.0363  0.1470
  112OSM   H11B11600   4.587   4.816  10.924 -0.2255 -0.5300  0.0441
  112OSM      P11601   4.699   5.016  11.059 -0.5059 -0.5294 -0.2414
  112OSM    O1311602   4.709   5.127  11.148 -0.0300 -0.1760 -0.2209
  112OSM    O1411603   4.718   4.885  11.125  0.0728 -0.1597  0.0452
  112OSM    O1111604   4.805   5.039  10.954 -0.2411  0.6044 -0.1316
  112OSM    O1211605   4.576   5.027  10.964 -0.2932 -0.2899  0.0056
  112OSM    C1S11606   4.845   4.944  10.858 -0.0782  0.3157  0.3982
  112OSM    H1S11607   4.782   4.852  10.863  1.3120 -0.8918 -2.1487
  112OSM    H1T11608   4.945   4.897  10.876 -0.9572 -1.9006 -0.1473
  112OSM     NF11609   4.864   4.895  10.622  0.1105  0.3453 -0.1743
  112OSM    HNF11610   4.957   4.858  10.626  0.2482  0.6414 -0.5948
  112OSM    C2S11611   4.847   5.007  10.712  0.3742 -0.2989 -0.1099
  112OSM    H2S11612   4.751   5.059  10.691  0.7612  0.7079  0.5520
  112OSM    C3S11613   4.950   5.123  10.702  0.1439 -0.2118 -0.7840
  112OSM    H3S11614   5.047   5.071  10.715  0.1058  0.1212  1.0849
  112OSM     O311615   4.935   5.222  10.808 -0.3268  0.0282 -0.0871
  112OSM    HO311616   4.878   5.187  10.877  2.4214 -0.6945  1.9699
  112OSM    C4S11617   4.925   5.187  10.566 -0.3060 -0.7085 -0.6077
  112OSM    H4S11618   4.819   5.194  10.537 -0.0971 -0.3861 -1.3213
  112OSM    C5S11619   5.013   5.225  10.475 -0.6781  0.5343  0.2988
  112OSM    H5S11620   5.120   5.208  10.497 -0.0373  2.8824 -0.6510
  112OSM    C6S11621   4.990   5.299  10.348  0.3507  0.1580  1.0898
  112OSM    H6S11622   5.085   5.298  10.290 -0.3883  1.9179 -0.2074
  112OSM    H6T11623   4.975   5.407  10.370 -0.8298  0.6498 -1.7560
  112OSM    C7S11624   4.878   5.230  10.277  0.2447  0.0015 -0.4599
  112OSM    H7S11625   4.777   5.234  10.324  1.2205 -0.3649  1.8393
  112OSM    H7T11626   4.897   5.121  10.265 -0.4634 -0.5422  2.4431
  112OSM    C8S11627   4.861   5.274  10.131  0.0980 -0.1200  0.1166
  112OSM    H8S11628   4.856   5.384  10.115 -1.7748 -0.2315 -0.2708
  112OSM    H8T11629   4.766   5.224  10.104 -0.0091  0.1759 -0.0622
  112OSM    C9S11630   4.970   5.221  10.038  0.0713 -0.2526  0.5760
  112OSM    H9S11631   5.007   5.121  10.071 -1.4369 -0.7299  0.8881
  112OSM    H9T11632   5.064   5.281  10.034 -0.1428  0.0931  0.6749
  112OSM   C10S11633   4.927   5.207   9.895 -0.2482 -0.5750 -0.0677
  112OSM   H10S11634   4.862   5.295   9.874  2.9523  2.3362  1.3144
  112OSM   H10T11635   4.878   5.108   9.884 -0.1156 -0.7718  0.9437
  112OSM   C11S11636   5.041   5.217   9.795 -0.2472  0.2461 -0.2155
  112OSM   H11S11637   5.127   5.151   9.820 -0.5786 -1.0934 -2.3978
  112OSM   H11T11638   5.082   5.320   9.797 -0.4123  0.3263 -0.9251
  112OSM   C12S11639   4.991   5.202   9.651  0.4041  0.2286 -0.0482
  112OSM   H12S11640   4.914   5.279   9.625  0.9299  0.0440 -2.3694
  112OSM   H12T11641   4.930   5.110   9.648  0.5926  0.1231 -0.6495
  112OSM   C13S11642   5.089   5.203   9.541  0.0220  0.0807  0.0304
  112OSM   H13S11643   5.164   5.123   9.556  1.4908  1.7421  2.1109
  112OSM   H13T11644   5.155   5.292   9.547  3.5899 -2.3718  0.1996
  112OSM   C14S11645   5.029   5.187   9.403 -0.1331 -0.2025 -0.4208
  112OSM   H14S11646   4.942   5.256   9.392  0.4894  0.5374 -0.8029
  112OSM   H14T11647   4.980   5.087   9.404 -2.2596  0.7558 -1.4802
  112OSM   C15S11648   5.131   5.196   9.292 -0.5591  0.6336 -0.0168
  112OSM   H15S11649   5.213   5.123   9.308  1.1562  2.3808 -0.3797
  112OSM   H15T11650   5.192   5.288   9.280  0.2524  0.2925  1.3419
  112OSM   C16S11651   5.085   5.147   9.151  0.2853  0.1591 -0.5787
  112OSM   H16S11652   5.057   5.040   9.152 -1.9691  0.6891 -0.2814
  112OSM   H16T11653   5.177   5.157   9.090  1.2325 -0.8508  0.6261
  112OSM   C17S11654   4.972   5.245   9.109 -0.3065  1.0013  0.6218
  112OSM   H17S11655   5.003   5.348   9.135 -1.6611  1.8788 -1.0304
  112OSM   H17T11656   4.887   5.219   9.176 -1.5544  2.2068 -0.4309
  112OSM   C18S11657   4.938   5.232   8.960  0.6719 -0.4269 -0.3325
  112OSM   H18S11658   5.016   5.281   8.898 -0.7173  0.4088 -1.5091
  112OSM   H18T11659   4.844   5.280   8.923  0.9935 -0.6204 -1.4426
  112OSM   H18U11660   4.929   5.127   8.926 -1.1732  0.1152 -1.6912
  112OSM    C1F11661   4.764   4.818  10.579 -0.6733 -0.9235 -0.9050
  112OSM     OF11662   4.652   4.850  10.607  0.1318 -0.3481 -0.2013
  112OSM    C2F11663   4.797   4.693  10.499  0.3415 -0.6884  0.7090
  112OSM    H2F11664   4.842   4.616  10.566  0.0590  0.9969  2.9408
  112OSM    H2G11665   4.874   4.715  10.422 -0.8793 -0.3314 -0.4500
  112OSM    C3F11666   4.678   4.628  10.425  0.0949  0.2608 -0.5837
  112OSM    H3F11667   4.632   4.705  10.359 -2.9996 -2.7677 -2.2529
  112OSM    H3G11668   4.598   4.600  10.497  1.5557 -3.5145 -0.1912
  112OSM    C4F11669   4.702   4.503  10.340  0.0509 -0.1691  0.9307
  112OSM    H4F11670   4.604   4.453  10.323 -1.0573  1.5195  1.9504
  112OSM    H4G11671   4.767   4.434  10.397 -0.0813 -1.4702 -0.4481
  112OSM    C5F11672   4.761   4.536  10.204 -0.1945  0.6868  0.5993
  112OSM    H5F11673   4.844   4.606  10.224  1.4172 -0.3333 -2.0522
  112OSM    H5G11674   4.688   4.581  10.133 -0.1330  1.3034  0.9236
  112OSM    C6F11675   4.810   4.410  10.135 -0.0538  0.4355  0.2888
  112OSM    H6F11676   4.722   4.351  10.104  0.3785  0.3477 -0.8228
  112OSM    H6G11677   4.864   4.353  10.214  1.1051  1.3607  0.2023
  112OSM    C7F11678   4.910   4.434  10.025  0.8476 -0.3341 -0.3316
  112OSM    H7F11679   4.958   4.337  10.000 -0.3363 -1.0100 -0.0440
  112OSM    H7G11680   4.981   4.505  10.072 -1.4061  2.0735 -0.3145
  112OSM    C8F11681   4.853   4.486   9.892 -0.3378 -0.3809 -0.0833
  112OSM    H8F11682   4.934   4.474   9.817  0.8874 -0.8901  1.2936
  112OSM    H8G11683   4.848   4.597   9.901 -0.1837 -0.1478 -2.2230
  112OSM    C9F11684   4.725   4.426   9.850 -0.0991 -0.3270 -0.5111
  112OSM    H9F11685   4.652   4.415   9.932  0.0616  0.5775 -0.2250
  112OSM   C10F11686   4.695   4.384   9.727  0.1789  0.2836  0.0937
  112OSM   H10F11687   4.591   4.366   9.695 -0.3865  2.8725  0.3150
  112OSM   C11F11688   4.789   4.385   9.609 -0.0382 -0.4571 -0.0980
  112OSM   H11F11689   4.760   4.303   9.540 -0.0992  1.0867 -1.9964
  112OSM   H11G11690   4.895   4.378   9.640 -0.6834 -1.4717  2.0718
  112OSM   C12F11691   4.762   4.514   9.525  1.0381  0.6011 -0.0021
  112OSM   H12F11692   4.765   4.603   9.591  1.7470 -0.0827  0.9034
  112OSM   H12G11693   4.656   4.518   9.491  0.8261  0.7183  0.6656
  112OSM   C13F11694   4.849   4.536   9.405 -0.4678 -0.2369  0.6920
  112OSM   H13F11695   4.946   4.488   9.429 -1.7229 -1.9429  2.7658
  112OSM   H13G11696   4.881   4.639   9.377  1.4184 -1.2452 -1.1318
  112OSM   C14F11697   4.792   4.475   9.273  0.5053  0.5191  0.0176
  112OSM   H14F11698   4.685   4.506   9.278  1.1460  2.9054  0.2731
  112OSM   H14G11699   4.809   4.366   9.280 -0.9417  0.1484 -1.5188
  112OSM   C15F11700   4.856   4.519   9.141 -0.4105 -0.6438  0.0837
  112OSM   H15F11701   4.956   4.471   9.132 -1.2699 -2.4298 -0.2286
  112OSM   H15G11702   4.853   4.630   9.133  2.1484 -0.5106  0.0430
  112OSM   C16F11703   4.780   4.456   9.017 -0.4436  0.8973  0.1383
  112OSM   H16F11704   4.672   4.480   9.023 -0.9202 -1.2505  0.8195
  112OSM   H16G11705   4.798   4.347   9.025  2.0203  1.0713 -1.8164
  112OSM   C17F11706   4.829   4.508   8.886  0.6629  0.4580 -0.4900
  112OSM   H17F11707   4.939   4.495   8.889  0.6220 -0.5880 -2.0741
  112OSM   H17G11708   4.800   4.615   8.884  0.0846  0.3056 -1.8429
  112OSM   C18F11709   4.778   4.443   8.761 -0.1500  0.5365  0.3440
  112OSM   H18F11710   4.805   4.335   8.766  1.5517  0.8924 -0.4387
  112OSM   H18G11711   4.826   4.490   8.672 -0.1242 -0.3544 -0.1206
  112OSM   H18H11712   4.668   4.444   8.743 -0.1007  1.2343  0.0291
  113OSM      N11713   0.676   1.116  11.090 -1.1293 -0.3042  0.2310
  113OSM    C1511714   0.808   1.037  11.084  0.0109  0.0181 -0.1184
  113OSM   H15A11715   0.856   1.044  10.988  0.9402  2.9406  0.4835
  113OSM   H15B11716   0.796   0.933  11.110  0.1170 -0.0559 -0.3628
  113OSM   H15C11717   0.877   1.075  11.157 -0.1735  1.0595 -0.4743
  113OSM    C1411718   0.578   1.031  11.015  0.6756  1.5620 -1.2480
  113OSM   H14A11719   0.477   1.063  11.038  1.2793  3.0717 -0.5514
  113OSM   H14B11720   0.585   0.929  11.049  1.9258  2.0264 -0.0260
  113OSM   H14C11721   0.595   1.027  10.909 -1.5527 -2.1271 -1.6342
  113OSM    C1311722   0.634   1.124  11.238 -0.1004 -0.3642  0.1540
  113OSM   H13A11723   0.706   1.187  11.288  2.7211 -2.1186 -1.4971
  113OSM   H13B11724   0.632   1.021  11.272  0.1364 -0.7195 -0.8734
  113OSM   H13C11725   0.537   1.170  11.254 -0.4192 -0.9612 -0.0265
  113OSM    C1211726   0.689   1.256  11.043  0.6913  0.0721  0.2434
  113OSM   H12A11727   0.773   1.301  11.095  0.0541 -0.3668  1.7133
  113OSM   H12B11728   0.607   1.315  11.083 -0.6067 -1.3990 -0.1811
  113OSM    C1111729   0.697   1.277  10.891 -0.9274 -0.0332  0.1668
  113OSM   H11A11730   0.788   1.219  10.865 -0.8354 -1.2069  2.8034
  113OSM   H11B11731   0.720   1.383  10.866 -0.4567  0.2880  1.8094
  113OSM      P11732   0.455   1.324  10.812 -0.5580 -0.1939 -0.2431
  113OSM    O1311733   0.340   1.249  10.767  0.4074 -0.0992  0.2168
  113OSM    O1411734   0.449   1.396  10.944  0.5104 -1.3820 -0.2041
  113OSM    O1111735   0.491   1.416  10.686  0.0412  0.1079  1.0993
  113OSM    O1211736   0.583   1.226  10.821 -0.1289  0.2856  0.0483
  113OSM    C1S11737   0.554   1.356  10.567 -0.5881 -0.1534 -0.0199
  113OSM    H1S11738   0.626   1.274  10.587  1.0793  1.0099 -1.0189
  113OSM    H1T11739   0.619   1.432  10.520  0.4498 -1.0235 -0.0289
  113OSM     NF11740   0.518   1.261  10.336  0.3172 -0.6512  0.2302
  113OSM    HNF11741   0.538   1.330  10.267  0.8912 -0.5127  0.5286
  113OSM    C2S11742   0.445   1.306  10.457 -0.0093  0.0900  0.1380
  113OSM    H2S11743   0.383   1.222  10.495 -3.2389  1.3808 -1.8366
  113OSM    C3S11744   0.356   1.429  10.422  0.1120  0.9144  0.0842
  113OSM    H3S11745   0.426   1.505  10.382  0.5851 -0.2553 -1.3804
  113OSM     O311746   0.290   1.499  10.529 -0.0957 -0.4459  0.0008
  113OSM    HO311747   0.325   1.455  10.608 -1.5519  2.1152  2.2237
  113OSM    C4S11748   0.265   1.407  10.300 -0.1221  0.2967 -0.0805
  113OSM    H4S11749   0.310   1.463  10.217 -0.2278  4.9180  2.6337
  113OSM    C5S11750   0.142   1.359  10.276  0.2513 -0.2069 -0.2736
  113OSM    H5S11751   0.089   1.315  10.362  1.1998 -3.7965 -1.3720
  113OSM    C6S11752   0.069   1.356  10.145  0.4150  0.3923 -0.1356
  113OSM    H6S11753  -0.040   1.374  10.158 -0.2376 -1.1553 -2.7808
  113OSM    H6T11754   0.078   1.251  10.109 -0.5034 -0.8185  2.8095
  113OSM    C7S11755   0.131   1.452  10.042  0.2387  0.0357 -0.3703
  113OSM    H7S11756   0.233   1.417  10.017  0.5970 -0.1212  1.1756
  113OSM    H7T11757   0.138   1.557  10.079 -2.6997 -0.3126  1.4304
  113OSM    C8S11758   0.054   1.439   9.908  0.2132 -0.0154 -0.1599
  113OSM    H8S11759  -0.053   1.459   9.931  0.4607  0.8467  0.2915
  113OSM    H8T11760   0.055   1.334   9.873  1.2577  0.0150 -0.2315
  113OSM    C9S11761   0.088   1.545   9.805  0.2913 -0.4139  0.2175
  113OSM    H9S11762   0.192   1.547   9.767 -0.4237  1.1018 -1.8009
  113OSM    H9T11763   0.070   1.642   9.855  0.9758 -0.3762  0.4087
  113OSM   C10S11764  -0.004   1.540   9.683 -0.4961  0.0315 -0.5225
  113OSM   H10S11765  -0.109   1.519   9.710 -0.1967 -1.3266 -0.3095
  113OSM   H10T11766   0.027   1.452   9.622  0.2756  0.1363 -0.2936
  113OSM   C11S11767   0.001   1.670   9.602 -0.8244 -0.1381  0.1105
  113OSM   H11S11768   0.106   1.677   9.565 -1.3618 -0.3756 -1.5715
  113OSM   H11T11769  -0.022   1.764   9.656  0.8734  0.4574 -0.1469
  113OSM   C12S11770  -0.094   1.663   9.479  0.1302 -0.1891 -0.0083
  113OSM   H12S11771  -0.197   1.684   9.515  0.1388 -2.1874  1.3604
  113OSM   H12T11772  -0.088   1.560   9.438  2.2068 -0.3597  0.6364
  113OSM   C13S11773  -0.056   1.775   9.378 -0.3296 -0.2974 -0.5063
  113OSM   H13S11774  -0.080   1.874   9.423 -0.4853 -0.9882  0.9600
  113OSM   H13T11775  -0.118   1.752   9.288 -0.3790 -0.2189 -0.4932
  113OSM   C14S11776   0.090   1.766   9.334  0.1546 -0.3962  0.7260
  113OSM   H14S11777   0.108   1.657   9.324 -0.6049 -0.7603  2.8410
  113OSM   H14T11778   0.156   1.810   9.411 -1.2943  2.6117  0.3964
  113OSM   C15S11779   0.113   1.831   9.194  0.5653  0.2957  0.5049
  113OSM   H15S11780   0.079   1.936   9.182 -2.7421 -0.4782  1.8865
  113OSM   H15T11781   0.045   1.781   9.122  0.9307  0.1846  0.2357
  113OSM   C16S11782   0.252   1.809   9.138  0.1654 -0.5053  0.3104
  113OSM   H16S11783   0.244   1.837   9.031  0.4041 -0.8392  0.2039
  113OSM   H16T11784   0.275   1.700   9.143 -1.9293 -0.9583  0.6248
  113OSM   C17S11785   0.351   1.899   9.210  0.5223  0.0290 -0.8257
  113OSM   H17S11786   0.371   1.870   9.315  0.1193  0.5950 -0.5911
  113OSM   H17T11787   0.299   1.997   9.198  1.1862  0.2581 -2.0671
  113OSM   C18S11788   0.478   1.916   9.130 -0.1040  0.3821  0.3170
  113OSM   H18S11789   0.548   1.831   9.140 -0.0908  0.0480 -2.0350
  113OSM   H18T11790   0.541   2.004   9.158  0.3599  0.2134 -0.1757
  113OSM   H18U11791   0.458   1.921   9.020 -0.4905 -0.1161  0.3663
  113OSM    C1F11792   0.588   1.146  10.325  0.6786 -0.1386 -0.0274
  113OSM     OF11793   0.594   1.063  10.418 -0.8643  0.9133 -0.3561
  113OSM    C2F11794   0.661   1.128  10.195  0.9074 -0.1846  0.0130
  113OSM    H2F11795   0.684   1.231  10.162 -1.2616  0.7841  1.2861
  113OSM    H2G11796   0.606   1.063  10.124  0.5444  0.7194 -0.5428
  113OSM    C3F11797   0.789   1.049  10.218  0.6576 -0.6558  0.5881
  113OSM    H3F11798   0.763   0.942  10.228  1.1468 -0.9170 -0.7860
  113OSM    H3G11799   0.840   1.080  10.312  0.3583  1.2501  0.1661
  113OSM    C4F11800   0.897   1.054  10.109 -0.3496  0.1072  0.8369
  113OSM    H4F11801   0.975   0.985  10.147 -1.7622 -0.4051  2.9705
  113OSM    H4G11802   0.959   1.146  10.101 -0.9123  0.3511 -1.3334
  113OSM    C5F11803   0.833   1.000   9.976  0.2851 -0.7276 -0.8081
  113OSM    H5F11804   0.780   1.093   9.947  1.8572  1.0830  1.7349
  113OSM    H5G11805   0.760   0.917   9.991  1.1089 -1.1100  1.4274
  113OSM    C6F11806   0.933   0.968   9.868 -0.4472  0.4117  0.6120
  113OSM    H6F11807   0.955   0.859   9.867 -1.0874  0.2793 -0.2916
  113OSM    H6G11808   1.033   1.010   9.891  0.9908 -1.4823 -1.6899
  113OSM    C7F11809   0.889   1.019   9.730 -0.0211  0.7325 -0.6480
  113OSM    H7F11810   0.887   1.130   9.734  2.9850  0.8635 -0.3760
  113OSM    H7G11811   0.782   0.992   9.714  0.1289 -0.4202  0.1362
  113OSM    C8F11812   0.966   0.966   9.605 -0.3209 -0.0889  0.0238
  113OSM    H8F11813   0.965   0.855   9.605  0.0973 -0.1242  1.8770
  113OSM    H8G11814   1.073   0.992   9.618  0.0219 -0.8515 -1.1461
  113OSM    C9F11815   0.900   1.025   9.486 -0.1050 -0.0769 -0.3442
  113OSM    H9F11816   0.831   1.108   9.505 -0.1926 -0.1338 -0.4133
  113OSM   C10F11817   0.915   0.982   9.360  0.0353 -0.0996  0.5274
  113OSM   H10F11818   0.857   1.017   9.273 -1.3860 -1.1302  1.0160
  113OSM   C11F11819   0.995   0.856   9.317 -0.1296 -0.2892  0.4280
  113OSM   H11F11820   0.919   0.775   9.314 -3.3131  2.4907  0.5383
  113OSM   H11G11821   1.074   0.840   9.394 -1.8378 -1.2528  2.0563
  113OSM   C12F11822   1.051   0.887   9.172  0.2481  0.6022 -0.3963
  113OSM   H12F11823   0.964   0.901   9.106 -0.3556  1.4225  0.5404
  113OSM   H12G11824   1.090   0.790   9.134 -1.5825 -0.1141 -0.5211
  113OSM   C13F11825   1.167   0.990   9.152  0.0940 -0.6037 -0.0046
  113OSM   H13F11826   1.255   0.949   9.097  0.1666  0.2617 -0.5478
  113OSM   H13G11827   1.209   1.011   9.253 -1.1846  1.8516  0.0856
  113OSM   C14F11828   1.129   1.105   9.058  0.4406 -0.3424  0.1236
  113OSM   H14F11829   1.025   1.138   9.081  1.6644  3.1765  1.2370
  113OSM   H14G11830   1.125   1.065   8.955 -1.6564  0.4880 -0.1842
  113OSM   C15F11831   1.215   1.233   9.086  0.4944 -0.3185 -0.4860
  113OSM   H15F11832   1.211   1.252   9.195  0.8317  0.4827 -0.6079
  113OSM   H15G11833   1.182   1.319   9.025  0.4293 -1.9463 -2.8967
  113OSM   C16F11834   1.365   1.206   9.063  0.2675  0.5312 -0.3221
  113OSM   H16F11835   1.380   1.133   8.981  1.7026 -0.3097  0.6445
  113OSM   H16G11836   1.407   1.152   9.150  0.7003 -0.6647 -1.2483
  113OSM   C17F11837   1.457   1.332   9.040 -0.8339 -0.1277  0.1317
  113OSM   H17F11838   1.417   1.376   8.946 -2.3488 -0.1379  0.7445
  113OSM   H17G11839   1.560   1.295   9.018 -0.4091  2.2013 -2.3712
  113OSM   C18F11840   1.453   1.433   9.164 -0.5887  0.0442 -0.0951
  113OSM   H18F11841   1.519   1.520   9.150 -1.5787  0.8492  0.0968
  113OSM   H18G11842   1.493   1.383   9.255  1.0624  0.3593 -0.6207
  113OSM   H18H11843   1.350   1.474   9.171 -0.1987  0.8711  1.1649
  114OSM      N11844   2.407   4.451  11.079  0.2461  0.2825 -0.3022
  114OSM    C1511845   2.287   4.447  10.994  0.4203 -0.7235  0.4980
  114OSM   H15A11846   2.193   4.433  11.047 -0.4582  0.4520 -0.6859
  114OSM   H15B11847   2.300   4.372  10.917 -1.1538  0.3074 -0.8449
  114OSM   H15C11848   2.271   4.540  10.943 -2.6130 -1.2464  0.2649
  114OSM    C1411849   2.494   4.555  11.028  0.3643  0.3054  0.3160
  114OSM   H14A11850   2.451   4.652  11.009  1.4405  0.5963 -0.7166
  114OSM   H14B11851   2.544   4.525  10.937 -1.5809 -0.4272 -0.5670
  114OSM   H14C11852   2.577   4.571  11.095  0.5304 -0.9977  0.4464
  114OSM    C1311853   2.366   4.501  11.220  0.6445  0.2765  0.5089
  114OSM   H13A11854   2.319   4.420  11.274 -2.0682  1.6743  0.3724
  114OSM   H13B11855   2.287   4.574  11.221 -1.3242 -1.7579  0.2036
  114OSM   H13C11856   2.449   4.541  11.277  0.4488 -2.0165  2.5863
  114OSM    C1211857   2.477   4.314  11.097 -0.3941  0.5691 -0.4215
  114OSM   H12A11858   2.423   4.234  11.146  2.1943 -0.0751  1.6352
  114OSM   H12B11859   2.561   4.328  11.164  0.4034 -0.1000 -1.2586
  114OSM    C1111860   2.539   4.248  10.971 -1.1057  0.0584  0.0806
  114OSM   H11A11861   2.463   4.240  10.891 -0.6951  1.7290 -0.5068
  114OSM   H11B11862   2.575   4.146  10.998 -1.5068 -0.0960  0.0428
  114OSM      P11863   2.801   4.285  10.950 -0.2834  0.3932 -0.1859
  114OSM    O1311864   2.886   4.406  10.923 -0.3652 -1.0725 -0.5357
  114OSM    O1411865   2.818   4.230  11.082 -0.5174  0.1795 -0.3741
  114OSM    O1111866   2.844   4.175  10.854  0.2005  0.0324 -0.3602
  114OSM    O1211867   2.651   4.327  10.918 -0.8107 -0.5301 -0.0398
  114OSM    C1S11868   2.779   4.171  10.725 -0.1178 -0.5937 -0.5819
  114OSM    H1S11869   2.751   4.272  10.689 -0.2879 -1.2077 -2.2277
  114OSM    H1T11870   2.688   4.108  10.734 -0.6087  0.3803  3.2708
  114OSM     NF11871   2.830   4.157  10.490  0.5901 -0.1098 -0.0190
  114OSM    HNF11872   2.750   4.112  10.452  0.7200  1.4289 -2.3365
  114OSM    C2S11873   2.872   4.105  10.616 -0.2443 -0.6187 -0.2108
  114OSM    H2S11874   2.974   4.142  10.643  0.0617 -2.6319  1.6325
  114OSM    C3S11875   2.865   3.948  10.642 -0.0880 -0.1795  0.1682
  114OSM    H3S11876   2.765   3.913  10.610  0.9615 -1.3617 -2.0267
  114OSM     O311877   2.893   3.902  10.777  0.2731 -0.0805  0.2571
  114OSM    HO311878   2.894   3.992  10.813 -0.3518  1.1496 -2.5081
  114OSM    C4S11879   2.954   3.877  10.536 -0.2301  0.3368 -0.2020
  114OSM    H4S11880   2.911   3.883  10.435  0.7041 -0.3014 -0.6438
  114OSM    C5S11881   3.073   3.820  10.555 -0.3558 -0.2051  0.3190
  114OSM    H5S11882   3.113   3.808  10.657  1.8104 -2.4108 -0.7005
  114OSM    C6S11883   3.161   3.740  10.463  0.5359  0.5961  1.5803
  114OSM    H6S11884   3.146   3.632  10.487  2.5725 -0.4035 -1.0981
  114OSM    H6T11885   3.267   3.770  10.477  1.2255 -1.8964  2.3078
  114OSM    C7S11886   3.133   3.749  10.311  0.7736  0.2099 -0.3725
  114OSM    H7S11887   3.140   3.854  10.274 -1.1578 -0.2888 -2.3083
  114OSM    H7T11888   3.026   3.727  10.295  1.2083 -3.0681  0.5424
  114OSM    C8S11889   3.217   3.668  10.224 -0.4442  0.3912 -0.6614
  114OSM    H8S11890   3.183   3.563  10.226 -3.0904  1.1680 -1.2816
  114OSM    H8T11891   3.324   3.684  10.251 -0.6170  2.0271 -0.8399
  114OSM    C9S11892   3.193   3.711  10.079  0.1820 -0.5223  0.6321
  114OSM    H9S11893   3.212   3.818  10.055 -1.4650 -0.0882  1.1068
  114OSM    H9T11894   3.084   3.698  10.061  0.4977 -0.6328 -1.4037
  114OSM   C10S11895   3.259   3.629   9.973  0.2146  0.5056  0.0974
  114OSM   H10S11896   3.245   3.521   9.996  0.4115  0.2613 -0.9094
  114OSM   H10T11897   3.367   3.651   9.982  0.4200  0.0366 -1.0935
  114OSM   C11S11898   3.206   3.656   9.834 -0.2031 -0.0807  0.2786
  114OSM   H11S11899   3.206   3.764   9.808  0.5972 -0.6856 -2.6125
  114OSM   H11T11900   3.107   3.607   9.822  0.3720 -1.4201  0.7585
  114OSM   C12S11901   3.287   3.590   9.728  0.2703  0.1213  0.1224
  114OSM   H12S11902   3.297   3.483   9.757 -1.0757  0.4466  1.9933
  114OSM   H12T11903   3.384   3.636   9.703 -0.3354  1.3320 -0.0837
  114OSM   C13S11904   3.206   3.592   9.593  0.2264 -0.1232 -0.2280
  114OSM   H13S11905   3.179   3.696   9.568  1.4643  0.1791 -0.4034
  114OSM   H13T11906   3.112   3.533   9.595 -0.5426  1.0688 -0.4112
  114OSM   C14S11907   3.291   3.544   9.479 -0.2695 -0.4193  1.0835
  114OSM   H14S11908   3.322   3.440   9.504  1.1717 -0.3667 -0.3697
  114OSM   H14T11909   3.380   3.609   9.471 -0.4498 -0.2151  0.7208
  114OSM   C15S11910   3.207   3.522   9.354  0.3747  0.1733 -0.1453
  114OSM   H15S11911   3.113   3.467   9.375 -0.5898  1.5311 -0.7389
  114OSM   H15T11912   3.269   3.446   9.301  1.9547 -1.0108  3.0857
  114OSM   C16S11913   3.191   3.649   9.270 -0.0732  0.2385  0.0167
  114OSM   H16S11914   3.295   3.675   9.241  0.6015 -3.3414 -1.2727
  114OSM   H16T11915   3.140   3.729   9.328 -0.3854  1.3064 -1.6563
  114OSM   C17S11916   3.113   3.621   9.134  0.3421 -0.0990  0.3640
  114OSM   H17S11917   3.020   3.560   9.147  1.2185 -1.1727  1.9301
  114OSM   H17T11918   3.177   3.564   9.063 -2.0045 -0.9901 -1.1679
  114OSM   C18S11919   3.077   3.755   9.061 -0.1432  0.3260 -0.3951
  114OSM   H18S11920   3.019   3.738   8.968 -1.4655  0.4236  0.3873
  114OSM   H18T11921   3.170   3.814   9.056  0.3604 -0.3684  0.4800
  114OSM   H18U11922   3.015   3.813   9.133  1.4317 -0.3405  1.6100
  114OSM    C1F11923   2.861   4.276  10.442  0.6632 -0.3342 -0.6845
  114OSM     OF11924   2.965   4.325  10.473 -0.5753  0.8383 -0.0318
  114OSM    C2F11925   2.752   4.344  10.367 -0.6548 -0.1316  0.3285
  114OSM    H2F11926   2.719   4.426  10.434 -0.6366 -1.6182  2.2549
  114OSM    H2G11927   2.660   4.281  10.360 -0.8999  0.3841 -1.9478
  114OSM    C3F11928   2.791   4.405  10.228 -0.3344 -0.3738  0.7179
  114OSM    H3F11929   2.853   4.327  10.180  1.9334  0.5796  1.9367
  114OSM    H3G11930   2.865   4.487  10.242  1.2593 -1.3393 -1.4826
  114OSM    C4F11931   2.673   4.456  10.147 -0.4845  0.7866  0.0868
  114OSM    H4F11932   2.606   4.521  10.207 -0.6821  2.6205 -1.9865
  114OSM    H4G11933   2.607   4.373  10.113 -1.0259  1.0710  0.4389
  114OSM    C5F11934   2.703   4.549  10.033 -0.2521  0.6004 -0.4247
  114OSM    H5F11935   2.739   4.645  10.077  1.1045  0.0630 -0.3161
  114OSM    H5G11936   2.615   4.564   9.967 -1.0083 -1.6960 -0.0143
  114OSM    C6F11937   2.812   4.492   9.943  0.0591 -0.2875 -0.0066
  114OSM    H6F11938   2.773   4.400   9.893  0.1806 -0.9179  1.0207
  114OSM    H6G11939   2.906   4.466   9.997  0.6274  1.4631 -0.0950
  114OSM    C7F11940   2.857   4.595   9.836 -0.0188 -0.0328  0.1601
  114OSM    H7F11941   2.909   4.544   9.752 -1.3883  2.3882 -2.3256
  114OSM    H7G11942   2.910   4.677   9.889  0.7107 -1.3396  1.5142
  114OSM    C8F11943   2.743   4.672   9.754  0.1516 -0.1599 -0.3403
  114OSM    H8F11944   2.687   4.732   9.829  0.8819 -1.0087  0.9202
  114OSM    H8G11945   2.677   4.597   9.705  1.3684 -0.7175 -1.1856
  114OSM    C9F11946   2.799   4.772   9.653  0.4719  1.1303  0.2673
  114OSM    H9F11947   2.826   4.864   9.706 -1.8369  0.4780  2.7226
  114OSM   C10F11948   2.810   4.772   9.517  0.3635  0.6301  0.2153
  114OSM   H10F11949   2.848   4.865   9.474 -0.0903  0.7638  0.0977
  114OSM   C11F11950   2.770   4.658   9.427  0.3515  0.6786 -0.2310
  114OSM   H11F11951   2.674   4.681   9.376  0.7262  2.7691 -0.0796
  114OSM   H11G11952   2.761   4.567   9.491 -0.2302  0.9151  0.0230
  114OSM   C12F11953   2.879   4.629   9.318  0.1094  0.3436  1.0436
  114OSM   H12F11954   2.865   4.526   9.280  2.9314  0.7668 -1.5250
  114OSM   H12G11955   2.979   4.630   9.366  0.3787  2.1136  0.5262
  114OSM   C13F11956   2.860   4.734   9.202 -0.1170 -0.2153 -0.5647
  114OSM   H13F11957   2.839   4.837   9.237  0.7775  0.0638 -0.8362
  114OSM   H13G11958   2.771   4.713   9.139  0.8030  1.0890 -2.4107
  114OSM   C14F11959   2.984   4.752   9.122 -0.2246  0.1140  0.4738
  114OSM   H14F11960   3.021   4.658   9.075 -0.6300  0.4817 -0.6127
  114OSM   H14G11961   3.065   4.797   9.183  0.2506  2.2356 -1.5816
  114OSM   C15F11962   2.964   4.838   9.001  0.8921  0.1373 -0.3831
  114OSM   H15F11963   2.932   4.939   9.036  0.9045  0.4398 -1.2086
  114OSM   H15G11964   2.874   4.795   8.952  0.2340  1.0659 -0.0192
  114OSM   C16F11965   3.072   4.833   8.891 -0.2978  0.5064 -0.6441
  114OSM   H16F11966   3.132   4.739   8.904  0.2830  1.1825  2.3578
  114OSM   H16G11967   3.144   4.916   8.908  0.2696  0.0837 -0.9408
  114OSM   C17F11968   3.025   4.856   8.746 -0.1579  0.1392 -0.5997
  114OSM   H17F11969   2.990   4.961   8.750 -0.2509  0.0917 -0.0859
  114OSM   H17G11970   2.935   4.794   8.729  1.1058 -2.0093  0.0284
  114OSM   C18F11971   3.124   4.832   8.630  0.2609  0.0985 -0.2419
  114OSM   H18F11972   3.223   4.880   8.646 -1.2283  3.7157 -0.9924
  114OSM   H18G11973   3.074   4.876   8.541 -1.7720 -2.3376 -0.4128
  114OSM   H18H11974   3.131   4.721   8.624  0.8011 -0.0286  1.7723
  115OSM      N11975   6.221   4.375  10.870 -0.3368 -0.2586  0.2587
  115OSM    C1511976   6.266   4.266  10.776  0.4495  0.3351 -0.7219
  115OSM   H15A11977   6.338   4.207  10.831  0.3828 -0.2662 -1.2712
  115OSM   H15B11978   6.311   4.287  10.680  4.6828  0.9276  1.1583
  115OSM   H15C11979   6.184   4.199  10.757  0.2383  0.2065  0.5751
  115OSM    C1411980   6.336   4.466  10.896  0.1902 -1.0239 -0.0167
  115OSM   H14A11981   6.378   4.503  10.804 -0.6561  2.1826  0.7701
  115OSM   H14B11982   6.411   4.422  10.961 -1.1833  0.0758  2.4579
  115OSM   H14C11983   6.307   4.558  10.944 -2.5831 -0.2260 -2.9004
  115OSM    C1311984   6.114   4.458  10.802 -0.8462  0.0483 -0.4815
  115OSM   H13A11985   6.156   4.502  10.712  1.1053 -2.4941 -0.9106
  115OSM   H13B11986   6.088   4.540  10.868  0.5889  0.6194 -0.5981
  115OSM   H13C11987   6.028   4.395  10.783 -0.1314 -1.0221 -0.2513
  115OSM    C1211988   6.175   4.310  10.998  0.2318 -0.0117  0.2477
  115OSM   H12A11989   6.079   4.261  10.987 -0.7921  2.0182 -0.2735
  115OSM   H12B11990   6.162   4.396  11.061 -1.7326 -0.7033  0.8617
  115OSM    C1111991   6.273   4.218  11.075  0.8979 -0.0430  0.3018
  115OSM   H11A11992   6.250   4.213  11.184 -0.5638 -1.9555 -0.0383
  115OSM   H11B11993   6.376   4.255  11.056 -0.3414  3.0962 -1.0294
  115OSM      P11994   6.364   3.984  10.996  0.2806 -0.1204  0.1484
  115OSM    O1311995   6.457   4.033  10.890  0.5742  0.6635 -0.4852
  115OSM    O1411996   6.426   3.940  11.123 -0.4747 -0.0504 -0.5993
  115OSM    O1111997   6.309   3.849  10.944 -0.1214 -0.9274  0.0087
  115OSM    O1211998   6.242   4.085  11.026  0.3682 -0.4427  0.0424
  115OSM    C1S11999   6.196   3.823  10.858 -0.4760  0.1302 -0.5497
  115OSM    H1S12000   6.115   3.896  10.879  0.1554  0.2341  1.8065
  115OSM    H1T12001   6.148   3.724  10.879  1.2170 -0.2562  1.8828
  115OSM     NF12002   6.083   3.830  10.632 -0.9533 -0.0777 -0.4111
  115OSM    HNF12003   6.053   3.749  10.582 -1.3457 -1.2944  1.7075
  115OSM    C2S12004   6.213   3.827  10.704 -0.5970 -1.3838 -0.3150
  115OSM    H2S12005   6.274   3.917  10.679 -2.0024 -0.2087  0.3079
  115OSM    C3S12006   6.305   3.698  10.663  0.2369 -0.1936  0.0964
  115OSM    H3S12007   6.242   3.612  10.692 -2.7621  1.2221 -1.7549
  115OSM     O312008   6.428   3.691  10.742 -1.0107 -0.4744 -0.2813
  115OSM    HO312009   6.419   3.759  10.809 -2.8163 -1.0234  0.0879
  115OSM    C4S12010   6.339   3.691  10.517  0.0394 -0.0898  0.5764
  115OSM    H4S12011   6.415   3.768  10.497 -1.4869  2.2346  3.1556
  115OSM    C5S12012   6.309   3.600  10.421  0.0885  0.3753 -0.8299
  115OSM    H5S12013   6.252   3.516  10.463  0.5159  2.0454  3.6880
  115OSM    C6S12014   6.360   3.605  10.279 -0.3707  0.4996  0.0385
  115OSM    H6S12015   6.469   3.628  10.280 -0.2153 -0.1864  1.1664
  115OSM    H6T12016   6.309   3.680  10.215  0.2645  1.8590  1.0852
  115OSM    C7S12017   6.332   3.473  10.207  0.2590  0.5012  0.2934
  115OSM    H7S12018   6.222   3.481  10.194  0.2413  1.6172  0.9534
  115OSM    H7T12019   6.344   3.378  10.263 -1.9350 -1.8645 -2.8561
  115OSM    C8S12020   6.406   3.468  10.075  0.1507 -0.6096  0.1722
  115OSM    H8S12021   6.516   3.461  10.091  0.6502  0.3856 -2.4119
  115OSM    H8T12022   6.380   3.559  10.018 -0.7269  0.5683  2.3237
  115OSM    C9S12023   6.370   3.347   9.980 -0.0806 -0.1806  0.8199
  115OSM    H9S12024   6.266   3.354   9.942  0.5690 -0.5958 -1.1632
  115OSM    H9T12025   6.377   3.251  10.036  0.0916 -0.9531 -0.4595
  115OSM   C10S12026   6.468   3.329   9.869  0.5457  0.2739 -0.2330
  115OSM   H10S12027   6.465   3.224   9.834 -3.6400 -0.6652  2.1903
  115OSM   H10T12028   6.569   3.349   9.909  0.9320 -0.6896 -0.6937
  115OSM   C11S12029   6.429   3.426   9.756  0.1654 -0.0060  1.0195
  115OSM   H11S12030   6.448   3.529   9.792  1.7391 -0.2686  1.0300
  115OSM   H11T12031   6.321   3.409   9.735  0.0608  1.0487  0.6417
  115OSM   C12S12032   6.498   3.390   9.624  0.8339 -0.1929  0.6166
  115OSM   H12S12033   6.490   3.284   9.594  1.0114  0.3302 -1.4511
  115OSM   H12T12034   6.601   3.430   9.641  0.7854  1.1534 -1.8273
  115OSM   C13S12035   6.426   3.457   9.506  0.5526 -0.0142  0.0301
  115OSM   H13S12036   6.411   3.562   9.539  1.5872  0.2268 -0.2344
  115OSM   H13T12037   6.331   3.400   9.496 -0.0243  0.7207  1.1122
  115OSM   C14S12038   6.505   3.466   9.372  0.1586  0.2837  0.2577
  115OSM   H14S12039   6.533   3.360   9.354 -0.8889  0.1596 -0.6987
  115OSM   H14T12040   6.597   3.528   9.384  1.0608 -0.9288 -0.1766
  115OSM   C15S12041   6.426   3.514   9.244 -0.2722  0.2139 -1.1561
  115OSM   H15S12042   6.406   3.621   9.267 -2.0433 -0.5227  1.0893
  115OSM   H15T12043   6.321   3.478   9.252 -0.1047  0.0102  0.4861
  115OSM   C16S12044   6.490   3.495   9.110 -0.0701 -0.5689  0.1042
  115OSM   H16S12045   6.499   3.389   9.077  1.7175  0.1156 -1.8343
  115OSM   H16T12046   6.588   3.548   9.119 -0.6153  0.4169  0.3830
  115OSM   C17S12047   6.408   3.570   9.003  0.4048 -0.8942 -0.4900
  115OSM   H17S12048   6.391   3.676   9.033 -0.3533 -0.9849 -0.5692
  115OSM   H17T12049   6.309   3.520   8.995  1.3211 -3.0415  0.8992
  115OSM   C18S12050   6.481   3.586   8.870  0.5164  0.6772 -0.3067
  115OSM   H18S12051   6.498   3.488   8.820  0.3195  0.0131  0.8861
  115OSM   H18T12052   6.580   3.629   8.895  0.5798 -0.7901  2.3336
  115OSM   H18U12053   6.425   3.649   8.797 -0.4740 -1.3466 -1.4008
  115OSM    C1F12054   6.015   3.947  10.626 -0.4854  0.5445 -0.2950
  115OSM     OF12055   6.063   4.047  10.678  0.0377 -1.1718  0.4127
  115OSM    C2F12056   5.882   3.940  10.562 -0.0024 -0.0245  0.3790
  115OSM    H2F12057   5.802   3.933  10.639 -0.6247  0.6887 -0.1875
  115OSM    H2G12058   5.888   3.851  10.497  1.0719 -0.2811  0.8094
  115OSM    C3F12059   5.853   4.061  10.470  0.8450 -0.2528 -0.3218
  115OSM    H3F12060   5.931   4.085  10.395  2.2260  1.8610  1.6492
  115OSM    H3G12061   5.854   4.155  10.529 -0.8808  0.0407 -0.7130
  115OSM    C4F12062   5.709   4.051  10.417  0.5749 -0.1952 -0.0472
  115OSM    H4F12063   5.633   4.048  10.497  1.1055  0.4148  0.4936
  115OSM    H4G12064   5.692   3.953  10.368 -1.2300 -0.2081  0.5381
  115OSM    C5F12065   5.670   4.169  10.318  0.1321  0.2425 -0.1152
  115OSM    H5F12066   5.695   4.266  10.367  0.5389 -0.5745  1.3631
  115OSM    H5G12067   5.563   4.156  10.291 -0.4548 -0.5371  2.3478
  115OSM    C6F12068   5.747   4.172  10.182 -0.1393  0.1042 -0.1401
  115OSM    H6F12069   5.856   4.171  10.207 -0.3269  2.8117  1.1524
  115OSM    H6G12070   5.731   4.275  10.145 -0.0198  0.6107  1.1593
  115OSM    C7F12071   5.717   4.060  10.089 -0.0497  0.6939  0.2531
  115OSM    H7F12072   5.609   4.050  10.066  0.2877 -2.5108 -0.3359
  115OSM    H7G12073   5.733   3.972  10.155 -0.1467  0.5275  0.0572
  115OSM    C8F12074   5.812   4.043   9.968 -0.0669 -0.6941 -0.6847
  115OSM    H8F12075   5.790   3.941   9.931  2.2107 -0.9334 -1.5385
  115OSM    H8G12076   5.919   4.041   9.998  0.1204  1.7998 -0.9804
  115OSM    C9F12077   5.795   4.155   9.867  0.0384 -0.6766 -0.4509
  115OSM    H9F12078   5.817   4.254   9.910  1.4615 -2.0790  2.3604
  115OSM   C10F12079   5.757   4.137   9.738  0.6157 -0.2325 -0.0826
  115OSM   H10F12080   5.731   4.226   9.680 -1.7417  0.1810  1.4716
  115OSM   C11F12081   5.723   4.012   9.667 -0.1412  1.0436 -0.3050
  115OSM   H11F12082   5.648   3.956   9.727  0.0793  1.2789  0.1941
  115OSM   H11G12083   5.813   3.948   9.665  2.2320  3.9765  2.6533
  115OSM   C12F12084   5.656   4.028   9.530  0.1530  0.5427  0.0451
  115OSM   H12F12085   5.573   4.100   9.545  0.1732  0.9621 -1.6282
  115OSM   H12G12086   5.626   3.927   9.494  3.2021 -1.6209  2.8814
  115OSM   C13F12087   5.753   4.084   9.418  0.2424  0.2447 -0.2491
  115OSM   H13F12088   5.825   4.010   9.375  1.3699  1.1177  0.0972
  115OSM   H13G12089   5.818   4.166   9.453  0.1062  0.4157 -0.3927
  115OSM   C14F12090   5.671   4.123   9.290  0.1085 -0.4603  0.2140
  115OSM   H14F12091   5.749   4.150   9.215 -0.4890 -0.2582 -0.3384
  115OSM   H14G12092   5.598   4.203   9.314  0.0681 -0.4611  0.0914
  115OSM   C15F12093   5.593   4.009   9.231 -0.3395 -0.4450  0.8438
  115OSM   H15F12094   5.519   3.985   9.309  0.0042  2.3519  2.1722
  115OSM   H15G12095   5.652   3.915   9.231 -3.0382 -2.2596  0.6167
  115OSM   C16F12096   5.525   4.025   9.092 -0.0957  0.0649  0.1026
  115OSM   H16F12097   5.451   4.108   9.101 -1.5631 -0.9891 -1.5795
  115OSM   H16G12098   5.469   3.933   9.066  1.6085 -1.5798  1.9044
  115OSM   C17F12099   5.624   4.061   8.984  0.3819 -0.3923  0.3104
  115OSM   H17F12100   5.698   3.977   8.981  0.5951 -0.1760 -0.6031
  115OSM   H17G12101   5.675   4.157   9.005 -1.2981  1.2910 -2.7403
  115OSM   C18F12102   5.556   4.078   8.843  0.5243  0.0702 -0.1280
  115OSM   H18F12103   5.523   3.975   8.815 -1.1037  0.3437  0.6601
  115OSM   H18G12104   5.624   4.106   8.760  0.8753  0.5678  0.3225
  115OSM   H18H12105   5.461   4.136   8.845  0.1402 -0.4744 -1.3033
  116OSM      N12106   2.395   6.340  11.299 -0.6428 -0.0146 -0.2187
  116OSM    C1512107   2.318   6.241  11.385 -0.1613  1.0600  0.0901
  116OSM   H15A12108   2.225   6.212  11.339 -0.4266  2.2768 -0.1715
  116OSM   H15B12109   2.291   6.291  11.476  2.2419  1.1977  0.8106
  116OSM   H15C12110   2.386   6.158  11.405 -0.6202  0.5196 -0.5477
  116OSM    C1412111   2.348   6.474  11.321  0.5568  0.2063 -0.0303
  116OSM   H14A12112   2.347   6.506  11.424  1.6987  0.7342 -0.1682
  116OSM   H14B12113   2.245   6.479  11.290  1.7572  2.2278 -4.5537
  116OSM   H14C12114   2.394   6.550  11.261  2.6313 -1.4395 -0.6572
  116OSM    C1312115   2.538   6.345  11.343  0.4313  0.2794  0.0025
  116OSM   H13A12116   2.578   6.246  11.332 -0.9568 -0.8451  3.5836
  116OSM   H13B12117   2.545   6.363  11.449 -2.0919  0.2688  0.2393
  116OSM   H13C12118   2.600   6.415  11.288 -0.4033  1.9730  1.1420
  116OSM    C1212119   2.386   6.300  11.148  0.6388 -0.2604 -0.2221
  116OSM   H12A12120   2.423   6.200  11.133  0.4706 -0.3433 -0.0936
  116OSM   H12B12121   2.450   6.368  11.094 -0.1809 -0.2436 -1.2008
  116OSM    C1112122   2.240   6.296  11.091 -0.1880 -0.4624  0.1466
  116OSM   H11A12123   2.263   6.296  10.982 -0.7466 -0.8133  0.0264
  116OSM   H11B12124   2.188   6.391  11.113 -1.6410 -1.3490  0.6659
  116OSM      P12125   2.019   6.147  11.094  0.1510  0.4871 -0.1054
  116OSM    O1312126   1.998   5.998  11.113 -0.0403  0.2017 -0.0057
  116OSM    O1412127   1.932   6.241  11.161 -0.2437 -0.0441 -0.2171
  116OSM    O1112128   2.012   6.187  10.946  0.2173 -0.3155  0.0755
  116OSM    O1212129   2.174   6.176  11.125  0.4317  0.3669  0.0090
  116OSM    C1S12130   2.068   6.122  10.834  0.3408  0.3716 -0.4338
  116OSM    H1S12131   2.026   6.021  10.816  0.3535  0.7358 -2.7640
  116OSM    H1T12132   2.179   6.110  10.833  0.2620 -0.3433 -1.1745
  116OSM     NF12133   2.113   6.132  10.582  0.1015 -0.0007 -0.4606
  116OSM    HNF12134   2.204   6.169  10.565 -0.4337  1.1750 -0.8753
  116OSM    C2S12135   2.043   6.198  10.694 -0.2645  0.3114 -0.1697
  116OSM    H2S12136   1.938   6.207  10.658  0.2595  3.5927 -1.1346
  116OSM    C3S12137   2.088   6.343  10.712 -0.3668  0.0406  0.0338
  116OSM    H3S12138   2.192   6.343  10.751  0.1914  1.9040 -1.3002
  116OSM     O312139   2.009   6.416  10.801 -0.2465 -0.0381 -0.7559
  116OSM    HO312140   1.953   6.347  10.838  0.2344 -0.6598 -1.1612
  116OSM    C4S12141   2.103   6.414  10.577  0.2973 -0.6282  0.5091
  116OSM    H4S12142   2.203   6.409  10.533  0.7367  3.3083  0.7262
  116OSM    C5S12143   2.013   6.494  10.512 -0.1963 -0.1818  0.6367
  116OSM    H5S12144   1.920   6.520  10.565 -0.7403  0.1288 -0.4347
  116OSM    C6S12145   2.019   6.559  10.379 -0.0948 -0.3483  0.1156
  116OSM    H6S12146   2.022   6.665  10.410 -2.2112 -0.8618  2.4109
  116OSM    H6T12147   1.920   6.557  10.329 -0.1650  3.9609 -0.2861
  116OSM    C7S12148   2.133   6.517  10.293 -0.4761  1.0828  0.2950
  116OSM    H7S12149   2.101   6.419  10.253 -1.8510  1.4093  0.5440
  116OSM    H7T12150   2.228   6.505  10.349 -1.4475 -0.0652  1.7721
  116OSM    C8S12151   2.150   6.608  10.174  0.2579  1.3073 -0.7894
  116OSM    H8S12152   2.191   6.705  10.211 -3.2652  2.0000  1.8668
  116OSM    H8T12153   2.051   6.628  10.130 -0.5110 -3.1780 -1.5356
  116OSM    C9S12154   2.237   6.552  10.061 -0.3391 -0.0234 -1.0521
  116OSM    H9S12155   2.332   6.510  10.100  0.6056  1.7757 -1.2980
  116OSM    H9T12156   2.275   6.640  10.005 -0.5696  1.0437  0.4132
  116OSM   C10S12157   2.164   6.456   9.972 -0.5020 -0.8934  0.0124
  116OSM   H10S12158   2.105   6.521   9.903  1.4833  0.7101 -0.2614
  116OSM   H10T12159   2.089   6.399  10.030 -1.1999 -1.5406 -1.4550
  116OSM   C11S12160   2.253   6.365   9.891  0.5515 -0.0287 -0.3564
  116OSM   H11S12161   2.187   6.292   9.839  0.2680 -1.3380  1.7296
  116OSM   H11T12162   2.300   6.297   9.966 -0.5156  0.5451  0.8708
  116OSM   C12S12163   2.360   6.419   9.794 -0.3559  0.2370  0.1918
  116OSM   H12S12164   2.436   6.473   9.856  0.9411 -0.8873 -0.3705
  116OSM   H12T12165   2.317   6.500   9.731 -0.6960 -1.2777 -1.6048
  116OSM   C13S12166   2.433   6.311   9.715  1.1090  0.0431 -0.4449
  116OSM   H13S12167   2.405   6.207   9.740 -1.3937 -0.0850 -3.2377
  116OSM   H13T12168   2.541   6.328   9.739  0.9382 -0.7646  1.0164
  116OSM   C14S12169   2.412   6.322   9.567  0.0410  0.2613 -0.4701
  116OSM   H14S12170   2.407   6.432   9.557  1.6027  0.2612 -1.4370
  116OSM   H14T12171   2.318   6.277   9.526  0.5718  1.0075 -2.6567
  116OSM   C15S12172   2.537   6.263   9.490  0.5718  0.5055 -0.7383
  116OSM   H15S12173   2.553   6.162   9.531 -1.9381  0.3729  0.1299
  116OSM   H15T12174   2.630   6.322   9.501  1.6162 -1.0296 -1.1271
  116OSM   C16S12175   2.507   6.248   9.341  0.2954  0.6346 -0.1277
  116OSM   H16S12176   2.503   6.348   9.293 -1.1805  0.2402 -0.8760
  116OSM   H16T12177   2.410   6.198   9.318  0.4007 -0.3565  1.3949
  116OSM   C17S12178   2.603   6.151   9.263 -0.1846  1.0536  0.0251
  116OSM   H17S12179   2.606   6.052   9.315 -1.3899  1.6233  1.2297
  116OSM   H17T12180   2.709   6.183   9.276  1.1676 -3.0112  0.5526
  116OSM   C18S12181   2.571   6.118   9.119  0.5997 -0.0836  0.4936
  116OSM   H18S12182   2.567   6.210   9.058 -0.4770  1.5606  2.9208
  116OSM   H18T12183   2.468   6.077   9.118  1.1505 -1.5589  0.5600
  116OSM   H18U12184   2.642   6.050   9.067 -0.8374 -0.3294 -1.2094
  116OSM    C1F12185   2.075   6.012  10.535  0.3176 -0.9355 -0.6632
  116OSM     OF12186   1.973   5.953  10.574  0.9118 -0.5003  0.4102
  116OSM    C2F12187   2.177   5.958  10.436  0.1039  0.1172 -0.0738
  116OSM    H2F12188   2.272   5.937  10.490 -0.4879 -0.7231  0.6950
  116OSM    H2G12189   2.194   6.036  10.359  0.0265 -1.9761 -2.3402
  116OSM    C3F12190   2.128   5.822  10.373 -0.0936  0.0249  0.0630
  116OSM    H3F12191   2.049   5.838  10.296  0.3750  0.4727 -0.3292
  116OSM    H3G12192   2.100   5.760  10.461  0.2804  1.9652  1.6527
  116OSM    C4F12193   2.242   5.736  10.307  0.3098 -0.7278 -0.4647
  116OSM    H4F12194   2.311   5.719  10.392 -1.7214  0.6039  1.5468
  116OSM    H4G12195   2.290   5.814  10.244  0.5902 -0.0294  0.5923
  116OSM    C5F12196   2.205   5.614  10.231 -0.3802 -0.0853  0.1207
  116OSM    H5F12197   2.155   5.648  10.138 -1.3991  0.6144  0.8948
  116OSM    H5G12198   2.151   5.540  10.294 -1.3859  0.9606  0.5296
  116OSM    C6F12199   2.328   5.546  10.178 -0.8191 -0.2002 -0.5345
  116OSM    H6F12200   2.363   5.473  10.255  1.0028  0.5779 -0.5725
  116OSM    H6G12201   2.409   5.620  10.161  0.3298 -1.1454  0.6152
  116OSM    C7F12202   2.295   5.475  10.050  0.3161  0.0824 -0.5186
  116OSM    H7F12203   2.234   5.537   9.980 -1.3192 -1.0403 -0.1304
  116OSM    H7G12204   2.223   5.392  10.069  1.0435 -0.6716 -1.0046
  116OSM    C8F12205   2.424   5.427   9.994  0.0419 -0.6956  0.6087
  116OSM    H8F12206   2.469   5.351  10.061  0.4517 -0.2322  0.8687
  116OSM    H8G12207   2.496   5.511   9.988  0.4190 -0.9260  1.6760
  116OSM    C9F12208   2.384   5.369   9.862 -0.1106  0.6695 -0.3511
  116OSM    H9F12209   2.317   5.282   9.860 -2.4967  2.4168 -0.4397
  116OSM   C10F12210   2.405   5.419   9.739 -0.5871  0.3847 -0.5986
  116OSM   H10F12211   2.369   5.361   9.653  0.3686 -1.1752  0.0019
  116OSM   C11F12212   2.492   5.538   9.704  0.0335 -0.0746 -0.6614
  116OSM   H11F12213   2.589   5.504   9.664 -0.1492 -2.3085  0.5982
  116OSM   H11G12214   2.520   5.600   9.792  0.3816 -0.3188 -0.5970
  116OSM   C12F12215   2.437   5.635   9.601 -0.2728  0.6121  0.2962
  116OSM   H12F12216   2.417   5.571   9.512 -1.1629 -0.9277  1.5470
  116OSM   H12G12217   2.509   5.712   9.567 -1.5865  1.8332  0.1464
  116OSM   C13F12218   2.304   5.701   9.641 -0.2414  0.2250  0.5216
  116OSM   H13F12219   2.247   5.627   9.701 -3.2636 -0.0251 -2.3585
  116OSM   H13G12220   2.249   5.703   9.544  0.2236  0.8283  0.2599
  116OSM   C14F12221   2.312   5.842   9.692  0.8631 -0.5474 -0.1477
  116OSM   H14F12222   2.210   5.884   9.703  1.4345  0.6795  0.7249
  116OSM   H14G12223   2.369   5.906   9.622 -1.8099 -0.6009 -2.5332
  116OSM   C15F12224   2.381   5.831   9.830 -0.9239  0.1269 -0.0858
  116OSM   H15F12225   2.490   5.816   9.812 -0.4306  0.0820  2.5863
  116OSM   H15G12226   2.341   5.753   9.899 -0.6463  0.4315  0.4231
  116OSM   C16F12227   2.370   5.959   9.914  0.1903 -0.6558 -0.0874
  116OSM   H16F12228   2.261   5.963   9.938  0.0035 -5.3122  0.8540
  116OSM   H16G12229   2.401   6.049   9.857  0.5270 -0.7714 -0.0862
  116OSM   C17F12230   2.448   5.966  10.040 -0.4135 -0.2465  0.3196
  116OSM   H17F12231   2.558   5.965  10.023 -0.5001  0.4693 -0.3568
  116OSM   H17G12232   2.428   5.870  10.093  1.7516 -0.5110  0.7919
  116OSM   C18F12233   2.413   6.084  10.137  0.4894  0.1471 -0.2431
  116OSM   H18F12234   2.435   6.179  10.084 -3.2877  1.3905  0.0750
  116OSM   H18G12235   2.472   6.066  10.229 -0.3772 -2.3558 -0.1109
  116OSM   H18H12236   2.306   6.082  10.167  1.1804 -0.6233  2.4758
  117OSM      N12237   0.161   0.311  10.921 -0.0796  0.4430  0.9138
  117OSM    C1512238   0.154   0.381  11.056 -0.0738 -0.0956  0.0441
  117OSM   H15A12239   0.056   0.425  11.068 -0.7390 -0.8724 -2.0857
  117OSM   H15B12240   0.220   0.466  11.062 -0.1378  0.0312 -0.9441
  117OSM   H15C12241   0.187   0.316  11.136 -0.4691 -1.1852 -0.6644
  117OSM    C1412242   0.299   0.249  10.904 -0.2827  0.0248 -0.5724
  117OSM   H14A12243   0.337   0.202  10.993  0.5894  1.1674 -0.3244
  117OSM   H14B12244   0.372   0.321  10.872  1.4299 -0.5775  1.7531
  117OSM   H14C12245   0.309   0.181  10.821  0.7797 -0.1038 -0.3509
  117OSM    C1312246   0.050   0.201  10.925  0.1525 -0.2496 -0.1718
  117OSM   H13A12247  -0.044   0.247  10.951  0.7779  0.1204  1.5081
  117OSM   H13B12248   0.076   0.116  10.986 -0.7337  0.6512  1.4964
  117OSM   H13C12249   0.046   0.161  10.824 -0.2468  0.2064 -0.3381
  117OSM    C1212250   0.120   0.401  10.810  0.0206  0.3420 -0.5405
  117OSM   H12A12251   0.033   0.453  10.844  0.1894 -0.5295  1.3474
  117OSM   H12B12252   0.097   0.340  10.724 -0.6374 -0.7634  0.3902
  117OSM    C1112253   0.218   0.511  10.775  0.1144  0.6511  0.0452
  117OSM   H11A12254   0.157   0.577  10.710 -0.8422 -1.4986 -1.3359
  117OSM   H11B12255   0.291   0.459  10.710  0.0966  0.7567 -0.0586
  117OSM      P12256   0.230   0.711  10.947  0.0997 -0.3011  0.3230
  117OSM    O1312257   0.085   0.704  10.942  0.0609  0.9824 -0.2617
  117OSM    O1412258   0.294   0.744  11.076 -0.5415  0.5700 -0.0955
  117OSM    O1112259   0.277   0.819  10.842  0.0565 -0.4222  0.1351
  117OSM    O1212260   0.279   0.579  10.886 -0.3596 -0.0995  0.0912
  117OSM    C1S12261   0.404   0.818  10.769  0.0801  0.1989 -0.1426
  117OSM    H1S12262   0.478   0.740  10.796 -1.2661 -0.8331  0.6919
  117OSM    H1T12263   0.448   0.920  10.775 -2.5624  1.5442 -1.5134
  117OSM     NF12264   0.508   0.818  10.542 -0.0108  0.0587 -0.4220
  117OSM    HNF12265   0.530   0.899  10.489  0.5410 -0.3667 -0.8476
  117OSM    C2S12266   0.384   0.804  10.610  0.6019 -0.4411 -0.3250
  117OSM    H2S12267   0.339   0.705  10.591 -0.9264 -0.1573  1.4982
  117OSM    C3S12268   0.273   0.900  10.553 -0.1007  0.0939 -0.2149
  117OSM    H3S12269   0.280   1.007  10.582 -0.0896 -0.2098  0.9583
  117OSM     O312270   0.141   0.865  10.595  0.3935  0.2419 -0.0265
  117OSM    HO312271   0.161   0.796  10.658 -0.9998  0.9561  1.2439
  117OSM    C4S12272   0.271   0.896  10.401  0.2541 -0.8708  0.2053
  117OSM    H4S12273   0.302   0.800  10.358 -1.2434 -0.6364 -1.5378
  117OSM    C5S12274   0.264   1.001  10.314  0.9100  0.0834 -0.3092
  117OSM    H5S12275   0.238   1.099  10.356 -1.4168 -0.9423  0.8886
  117OSM    C6S12276   0.279   0.987  10.170 -0.9313 -0.5567 -0.0883
  117OSM    H6S12277   0.322   1.077  10.121 -1.4181 -1.1431 -1.6687
  117OSM    H6T12278   0.180   0.972  10.122 -0.8055  1.5717 -1.1345
  117OSM    C7S12279   0.372   0.875  10.108  0.3958  0.3495  0.0848
  117OSM    H7S12280   0.311   0.783  10.119 -1.0508  1.3370  0.6799
  117OSM    H7T12281   0.468   0.856  10.160  0.6893 -0.9167 -0.8649
  117OSM    C8S12282   0.389   0.906   9.956  0.6611 -0.2507  0.1725
  117OSM    H8S12283   0.446   1.002   9.953 -0.7319  0.5793 -1.5392
  117OSM    H8T12284   0.290   0.937   9.916  0.9263  1.9300  1.0172
  117OSM    C9S12285   0.455   0.788   9.881  0.0310 -0.5291  0.0390
  117OSM    H9S12286   0.380   0.707   9.869 -1.1981  0.5668  0.1042
  117OSM    H9T12287   0.546   0.772   9.942 -0.6337  0.4032  1.3337
  117OSM   C10S12288   0.489   0.828   9.735 -0.3821  1.3632  0.1656
  117OSM   H10S12289   0.526   0.932   9.737  1.6169  0.7067 -0.2316
  117OSM   H10T12290   0.397   0.834   9.673  0.4358  1.3460 -1.0865
  117OSM   C11S12291   0.596   0.734   9.682 -0.0415 -0.3173  0.6745
  117OSM   H11S12292   0.584   0.630   9.719 -2.0273 -0.5742 -0.5434
  117OSM   H11T12293   0.695   0.778   9.709 -0.4350  1.6991 -0.9011
  117OSM   C12S12294   0.580   0.731   9.528  0.1509  0.9469 -0.0275
  117OSM   H12S12295   0.621   0.828   9.492  0.3693  0.9969  0.3500
  117OSM   H12T12296   0.478   0.709   9.490  0.5328 -1.5646  0.2410
  117OSM   C13S12297   0.681   0.633   9.455 -0.6335  0.3403  0.4135
  117OSM   H13S12298   0.672   0.528   9.491  0.2882  0.4435  0.9648
  117OSM   H13T12299   0.784   0.670   9.472 -0.8819  0.3718  2.0284
  117OSM   C14S12300   0.644   0.629   9.305 -0.1191 -0.1786  0.0485
  117OSM   H14S12301   0.654   0.729   9.256  0.2866 -0.4984 -0.5368
  117OSM   H14T12302   0.535   0.607   9.308 -0.0415 -0.8050 -1.1663
  117OSM   C15S12303   0.712   0.524   9.219 -0.0344  0.4449  0.6881
  117OSM   H15S12304   0.691   0.418   9.245 -0.3418  0.6136  1.1400
  117OSM   H15T12305   0.822   0.524   9.233  0.0862  0.8840 -0.2305
  117OSM   C16S12306   0.674   0.519   9.069  1.2264 -0.2370  0.1094
  117OSM   H16S12307   0.675   0.620   9.022  0.4142  0.1868  0.9707
  117OSM   H16T12308   0.569   0.485   9.064  0.4702  1.4435  2.7075
  117OSM   C17S12309   0.769   0.423   8.986  0.3283 -0.4894  0.5545
  117OSM   H17S12310   0.703   0.407   8.898  0.1164 -1.6940  0.9120
  117OSM   H17T12311   0.782   0.325   9.036 -0.2590 -1.3817 -0.9655
  117OSM   C18S12312   0.900   0.487   8.943 -0.4417 -1.4137 -0.2997
  117OSM   H18S12313   0.976   0.469   9.022 -1.7872 -0.2432  1.3231
  117OSM   H18T12314   0.888   0.593   8.915 -1.4458 -1.3744  0.2205
  117OSM   H18U12315   0.939   0.445   8.848  1.3866  2.1841 -1.3151
  117OSM    C1F12316   0.605   0.727  10.542 -0.6869 -0.4544 -0.3570
  117OSM     OF12317   0.591   0.622  10.607  0.2636  0.4573 -0.2506
  117OSM    C2F12318   0.736   0.762  10.472 -0.5068 -0.3182  0.4280
  117OSM    H2F12319   0.815   0.714  10.533  1.0826  1.1459 -0.3898
  117OSM    H2G12320   0.748   0.871  10.482 -0.8514 -0.2901  0.5463
  117OSM    C3F12321   0.745   0.679  10.339  0.3070  0.0163  0.3162
  117OSM    H3F12322   0.659   0.704  10.274 -0.5527 -1.0341  0.9998
  117OSM    H3G12323   0.727   0.571  10.360  2.0361 -0.5444 -0.8909
  117OSM    C4F12324   0.873   0.701  10.269  0.8471 -0.2464  0.4411
  117OSM    H4F12325   0.952   0.639  10.317 -0.1259 -0.7894  1.3848
  117OSM    H4G12326   0.923   0.796  10.296  0.4610 -0.4650  2.0340
  117OSM    C5F12327   0.874   0.689  10.116 -0.0279 -0.0830  0.0995
  117OSM    H5F12328   0.965   0.735  10.072 -1.1887  1.2206 -1.0122
  117OSM    H5G12329   0.791   0.755  10.081 -0.1568  0.3986  1.2765
  117OSM    C6F12330   0.855   0.548  10.066 -0.0973  0.6431 -0.3923
  117OSM    H6F12331   0.782   0.494  10.130  1.9286 -0.7220  0.8787
  117OSM    H6G12332   0.944   0.483  10.084  0.1886  0.3188 -2.7233
  117OSM    C7F12333   0.810   0.519   9.919  0.0700 -0.0857 -0.2767
  117OSM    H7F12334   0.711   0.564   9.895  0.2007 -0.0414 -0.7522
  117OSM    H7G12335   0.813   0.411   9.893  0.3066 -0.3033  0.6340
  117OSM    C8F12336   0.894   0.579   9.811  0.6307 -0.3032  0.1310
  117OSM    H8F12337   0.893   0.690   9.814 -0.3029 -0.2400 -1.4633
  117OSM    H8G12338   0.840   0.561   9.716 -0.3998  1.7592  0.2890
  117OSM    C9F12339   1.037   0.539   9.801 -0.4418 -0.3054  0.8088
  117OSM    H9F12340   1.077   0.486   9.888 -0.8405  0.2359  1.3340
  117OSM   C10F12341   1.118   0.561   9.695  0.1216  0.1233  0.0934
  117OSM   H10F12342   1.225   0.544   9.711  0.3023 -1.9404 -2.5917
  117OSM   C11F12343   1.089   0.626   9.566 -0.1483 -0.3599 -0.0923
  117OSM   H11F12344   1.117   0.733   9.580 -3.8093  0.8048 -0.4926
  117OSM   H11G12345   0.981   0.620   9.543  0.0727 -0.1288 -1.2381
  117OSM   C12F12346   1.162   0.570   9.447 -0.4262  0.2890 -0.3724
  117OSM   H12F12347   1.270   0.598   9.453  0.0367 -1.1980 -1.0862
  117OSM   H12G12348   1.136   0.617   9.350  0.6845  1.7363 -0.0153
  117OSM   C13F12349   1.168   0.409   9.434 -0.6380  0.4924 -0.0295
  117OSM   H13F12350   1.061   0.380   9.424 -0.8355  0.1029  2.4670
  117OSM   H13G12351   1.201   0.374   9.534 -0.4017 -0.6831 -0.5048
  117OSM   C14F12352   1.239   0.352   9.314 -0.5150  0.4551 -0.0906
  117OSM   H14F12353   1.343   0.389   9.310 -0.3820  0.0060 -2.4648
  117OSM   H14G12354   1.189   0.376   9.217  2.8034 -5.5648 -3.9320
  117OSM   C15F12355   1.244   0.194   9.306  0.4486 -0.5685  0.1863
  117OSM   H15F12356   1.150   0.147   9.343  1.1173  0.0007  2.8592
  117OSM   H15G12357   1.320   0.161   9.380  0.6920 -1.9505 -0.6548
  117OSM   C16F12358   1.283   0.141   9.169  0.5096  0.2778  0.7475
  117OSM   H16F12359   1.233   0.195   9.086 -1.3450 -2.5701 -0.1067
  117OSM   H16G12360   1.249   0.036   9.168 -1.4202  0.8716  0.2301
  117OSM   C17F12361   1.435   0.140   9.138 -0.0248 -0.4020  0.0939
  117OSM   H17F12362   1.498   0.099   9.220 -0.2591 -0.1574  0.3971
  117OSM   H17G12363   1.466   0.246   9.127  0.4059 -0.4339  0.9684
  117OSM   C18F12364   1.461   0.070   9.008  0.0047  0.2527 -0.6630
  117OSM   H18F12365   1.407   0.128   8.930 -0.7815 -1.5886 -1.5367
  117OSM   H18G12366   1.422  -0.032   9.025  1.1688 -0.2009 -0.6074
  117OSM   H18H12367   1.565   0.067   8.969  0.9317 -0.3929  1.7065
  118OSM      N12368   6.720   1.494  10.927  0.0911 -0.0152 -0.2422
  118OSM    C1512369   6.724   1.549  11.067  0.5365 -0.1703 -0.0264
  118OSM   H15A12370   6.814   1.605  11.088  0.7769 -0.9057  1.0067
  118OSM   H15B12371   6.697   1.481  11.146  0.0151 -0.4213 -0.4111
  118OSM   H15C12372   6.646   1.620  11.090  1.5490  0.1309  2.9094
  118OSM    C1412373   6.811   1.378  10.912  0.5816 -0.3487 -0.0453
  118OSM   H14A12374   6.803   1.330  10.815  0.6389 -0.0614 -0.1938
  118OSM   H14B12375   6.780   1.319  10.997  0.6165  1.6597  1.4456
  118OSM   H14C12376   6.911   1.408  10.937  0.4216  0.4706 -0.3687
  118OSM    C1312377   6.588   1.425  10.911 -0.0811 -0.7504 -0.7112
  118OSM   H13A12378   6.591   1.354  10.830 -1.9215 -1.4407 -0.2201
  118OSM   H13B12379   6.513   1.502  10.899  0.2142 -0.3343  0.0508
  118OSM   H13C12380   6.566   1.370  11.001 -1.2463 -2.6525 -2.0883
  118OSM    C1212381   6.742   1.604  10.830 -0.6521  0.0629 -0.0527
  118OSM   H12A12382   6.711   1.568  10.733 -0.0848  0.3018 -0.3290
  118OSM   H12B12383   6.845   1.636  10.826 -1.3422  2.7719  1.4451
  118OSM    C1112384   6.672   1.743  10.849 -0.1551 -0.2194 -0.8285
  118OSM   H11A12385   6.565   1.716  10.863  0.1543 -0.4172  1.6001
  118OSM   H11B12386   6.696   1.795  10.754  1.2926  0.2491 -0.2419
  118OSM      P12387   6.839   1.905  10.953 -0.6355 -0.3987  0.3223
  118OSM    O1312388   6.836   2.003  11.069 -0.2397 -0.1101 -0.2643
  118OSM    O1412389   6.953   1.809  10.952 -0.2588 -0.4995  0.7321
  118OSM    O1112390   6.813   1.987  10.818 -0.6145 -0.3713  0.3796
  118OSM    O1212391   6.720   1.811  10.960  0.3573 -0.3042 -0.1816
  118OSM    C1S12392   6.914   1.980  10.714  0.4710  0.3568  0.0234
  118OSM    H1S12393   6.909   1.878  10.671  1.2369  0.6712 -0.8211
  118OSM    H1T12394   7.015   2.000  10.757  0.9190 -0.4805 -0.6020
  118OSM     NF12395   6.968   2.067  10.493 -0.5492 -0.3428  0.3297
  118OSM    HNF12396   7.046   2.128  10.502 -1.2514  0.5899  0.2582
  118OSM    C2S12397   6.876   2.087  10.606  0.0380 -0.4520  0.4417
  118OSM    H2S12398   6.771   2.074  10.573  0.1081 -2.8047  0.9837
  118OSM    C3S12399   6.878   2.238  10.655  0.1562 -0.2823  0.5256
  118OSM    H3S12400   6.980   2.265  10.689 -0.8883  1.7119  2.3391
  118OSM     O312401   6.809   2.276  10.772  0.1417 -0.5716 -0.1810
  118OSM    HO312402   6.768   2.195  10.802  0.8202 -0.1441  2.0250
  118OSM    C4S12403   6.854   2.340  10.545  0.2640  0.7220  0.1988
  118OSM    H4S12404   6.930   2.351  10.467 -0.6679 -0.4233 -0.9065
  118OSM    C5S12405   6.752   2.423  10.520 -0.3428 -0.7925 -0.8082
  118OSM    H5S12406   6.673   2.425  10.596  1.1258  0.5073  0.7594
  118OSM    C6S12407   6.758   2.522  10.404  0.1046  1.2955 -0.5881
  118OSM    H6S12408   6.831   2.604  10.423  0.9633  0.4855 -0.2727
  118OSM    H6T12409   6.659   2.568  10.383 -0.9598 -1.8678 -3.3498
  118OSM    C7S12410   6.793   2.461  10.263  0.5305 -0.5832  0.2856
  118OSM    H7S12411   6.731   2.372  10.242 -0.0245 -0.5276  1.5825
  118OSM    H7T12412   6.894   2.417  10.281  0.7836  0.8532  2.9263
  118OSM    C8S12413   6.785   2.559  10.152  0.1165 -0.2678  0.9875
  118OSM    H8S12414   6.829   2.659  10.172  2.1023 -0.4993 -1.6285
  118OSM    H8T12415   6.680   2.592  10.137  1.0240  2.8681  0.8934
  118OSM    C9S12416   6.834   2.514  10.016  0.0683 -0.2214 -0.0402
  118OSM    H9S12417   6.806   2.406  10.016  0.1899 -0.3293  3.1158
  118OSM    H9T12418   6.944   2.516  10.003 -0.0656 -0.8747 -1.4992
  118OSM   C10S12419   6.776   2.599   9.901 -0.8170  0.1161 -0.3027
  118OSM   H10S12420   6.818   2.698   9.929  0.1199 -0.4357  0.3062
  118OSM   H10T12421   6.666   2.594   9.909 -0.8460  0.4383 -0.4728
  118OSM   C11S12422   6.831   2.548   9.769 -0.4228  0.4568  0.2696
  118OSM   H11S12423   6.808   2.440   9.763  0.4133  0.1893  1.6539
  118OSM   H11T12424   6.941   2.552   9.756 -0.4058 -1.9119 -0.8916
  118OSM   C12S12425   6.748   2.614   9.653 -0.0954  0.6398 -0.0233
  118OSM   H12S12426   6.755   2.723   9.674 -1.1519  0.9572 -1.1953
  118OSM   H12T12427   6.646   2.570   9.661  0.1992  0.1143  1.0556
  118OSM   C13S12428   6.815   2.588   9.514  1.3576 -0.8891 -0.4159
  118OSM   H13S12429   6.898   2.659   9.490  0.6026 -0.0434 -0.5950
  118OSM   H13T12430   6.740   2.615   9.436 -0.0335 -0.7887  0.9148
  118OSM   C14S12431   6.858   2.443   9.484 -1.2064 -0.3108 -0.7353
  118OSM   H14S12432   6.778   2.368   9.497 -0.0502 -1.7227 -1.3938
  118OSM   H14T12433   6.945   2.418   9.549 -0.6893  1.9850 -0.4499
  118OSM   C15S12434   6.894   2.424   9.331  0.4409  0.7406 -0.1707
  118OSM   H15S12435   6.991   2.476   9.317  0.9340  0.5494  2.1746
  118OSM   H15T12436   6.811   2.469   9.273 -1.6611 -1.6553  0.7654
  118OSM   C16S12437   6.895   2.268   9.292 -1.0517 -0.0243 -0.3004
  118OSM   H16S12438   6.800   2.225   9.330 -1.4875  0.7285 -0.5315
  118OSM   H16T12439   6.974   2.210   9.345  0.7195  3.1678  0.8663
  118OSM   C17S12440   6.915   2.256   9.142  0.3360 -0.0209  0.2606
  118OSM   H17S12441   6.842   2.325   9.096  0.1081 -0.9102 -0.7345
  118OSM   H17T12442   6.894   2.150   9.115  0.3504 -0.3818  1.5892
  118OSM   C18S12443   7.050   2.289   9.095  0.0669 -0.0816  0.2609
  118OSM   H18S12444   7.067   2.258   8.989 -1.7594  0.0704 -0.0990
  118OSM   H18T12445   7.130   2.231   9.146  2.2254  1.3751 -1.2590
  118OSM   H18U12446   7.067   2.399   9.100  0.3694 -0.0940 -0.3556
  118OSM    C1F12447   6.973   1.961  10.410  0.3242 -0.0008 -0.6402
  118OSM     OF12448   6.901   1.864  10.433 -0.4557 -0.6656 -0.5980
  118OSM    C2F12449   7.063   1.963  10.301  0.5676 -0.2733 -0.2968
  118OSM    H2F12450   7.146   2.033  10.322  1.3411 -1.1531 -0.3478
  118OSM    H2G12451   7.011   2.003  10.211  0.6836  1.0609  0.2157
  118OSM    C3F12452   7.101   1.818  10.267  0.1227  0.7368  0.4454
  118OSM    H3F12453   7.007   1.761  10.251  0.7367 -0.5678  1.3723
  118OSM    H3G12454   7.158   1.771  10.350  0.2110  0.1724  0.0690
  118OSM    C4F12455   7.199   1.826  10.142 -0.4533  0.0265 -0.3201
  118OSM    H4F12456   7.301   1.821  10.183 -0.5461 -1.1252 -0.1982
  118OSM    H4G12457   7.195   1.932  10.108 -0.1983  0.3382  0.5993
  118OSM    C5F12458   7.168   1.741  10.023  0.1937  0.5236  0.3142
  118OSM    H5F12459   7.060   1.763  10.004 -0.3282 -1.4077  0.8334
  118OSM    H5G12460   7.176   1.637  10.062  0.5426  0.3743 -0.1502
  118OSM    C6F12461   7.254   1.769   9.900 -0.0522  0.6319  0.3154
  118OSM    H6F12462   7.361   1.751   9.925  0.5475  1.2138 -1.6726
  118OSM    H6G12463   7.237   1.877   9.882  0.2858  0.8081  1.0049
  118OSM    C7F12464   7.216   1.689   9.777 -0.7416 -0.5007 -0.2732
  118OSM    H7F12465   7.116   1.728   9.748 -0.0124  1.8538  0.1648
  118OSM    H7G12466   7.208   1.581   9.802 -1.0857 -0.5117 -0.4241
  118OSM    C8F12467   7.324   1.693   9.669 -0.0402  0.4413  0.0548
  118OSM    H8F12468   7.418   1.651   9.713  0.4334  1.4082 -0.0008
  118OSM    H8G12469   7.361   1.796   9.648  1.4701  0.0014  0.3889
  118OSM    C9F12470   7.296   1.627   9.530  0.6672 -0.2767 -0.5128
  118OSM    H9F12471   7.192   1.648   9.499  1.2851  2.8272 -0.7835
  118OSM   C10F12472   7.371   1.553   9.445 -0.2337  0.0912  0.0844
  118OSM   H10F12473   7.323   1.522   9.351 -1.0605 -0.1689  0.5863
  118OSM   C11F12474   7.513   1.492   9.457 -0.8571 -0.3963  0.4841
  118OSM   H11F12475   7.501   1.382   9.453 -0.2192 -0.4718  0.5418
  118OSM   H11G12476   7.556   1.518   9.556  0.4781 -1.2355  0.1576
  118OSM   C12F12477   7.625   1.518   9.356  0.6493 -0.4822  0.5951
  118OSM   H12F12478   7.674   1.618   9.366 -0.1462  0.3323 -2.5056
  118OSM   H12G12479   7.575   1.523   9.257 -0.1762 -1.9297  0.9216
  118OSM   C13F12480   7.738   1.409   9.347  0.7088 -0.3134  0.0600
  118OSM   H13F12481   7.798   1.435   9.257 -0.7305 -0.8982 -1.1348
  118OSM   H13G12482   7.694   1.307   9.334  2.3741 -0.8582 -1.9237
  118OSM   C14F12483   7.830   1.408   9.463 -0.3387  0.7644  0.0985
  118OSM   H14F12484   7.785   1.353   9.549  1.6960 -2.2168 -0.5817
  118OSM   H14G12485   7.854   1.514   9.485 -1.2086  0.7993  0.9327
  118OSM   C15F12486   7.965   1.334   9.434 -1.1216  0.6142  0.3460
  118OSM   H15F12487   8.018   1.387   9.351 -0.6355 -0.8326 -0.2947
  118OSM   H15G12488   7.943   1.239   9.380  1.3974  0.2274 -0.1327
  118OSM   C16F12489   8.051   1.329   9.557  0.2246  0.8980 -0.2620
  118OSM   H16F12490   7.988   1.266   9.623  0.4383  2.9998  2.1284
  118OSM   H16G12491   8.072   1.416   9.623  2.9490 -0.6503  1.0796
  118OSM   C17F12492   8.181   1.254   9.547  1.4132 -0.2483  1.2642
  118OSM   H17F12493   8.202   1.232   9.654  0.8791 -1.9924  1.0417
  118OSM   H17G12494   8.251   1.322   9.493 -0.0812  0.4000  0.0677
  118OSM   C18F12495   8.178   1.114   9.473 -0.2749  0.1410 -0.4111
  118OSM   H18F12496   8.096   1.051   9.513  0.9738 -1.8134 -0.7812
  118OSM   H18G12497   8.272   1.058   9.492 -0.2075  0.8823  1.6486
  118OSM   H18H12498   8.162   1.131   9.364  1.4864  2.8884 -0.3466
  119OSM      N12499   2.538   0.715  11.176 -0.4795  0.6307 -0.5073
  119OSM    C1512500   2.458   0.616  11.261  0.1377  0.1807 -0.4023
  119OSM   H15A12501   2.491   0.628  11.363  1.0142  1.1401 -0.7839
  119OSM   H15B12502   2.471   0.515  11.227  1.3673 -0.0701  0.7461
  119OSM   H15C12503   2.354   0.645  11.255 -0.2668 -1.3145 -1.0930
  119OSM    C1412504   2.513   0.849  11.230 -0.2870 -0.1692 -0.0234
  119OSM   H14A12505   2.412   0.888  11.220  0.1160  1.4579  1.7052
  119OSM   H14B12506   2.573   0.923  11.178 -0.4337 -0.9794 -1.4055
  119OSM   H14C12507   2.529   0.851  11.337  0.5472 -2.8997 -0.0391
  119OSM    C1312508   2.680   0.680  11.201 -0.8114  1.0715 -0.6660
  119OSM   H13A12509   2.681   0.572  11.198 -3.0730  0.9531  0.5324
  119OSM   H13B12510   2.696   0.721  11.299 -0.3110  1.2631 -0.8290
  119OSM   H13C12511   2.757   0.719  11.137  2.5985  0.7236  2.8788
  119OSM    C1212512   2.507   0.705  11.034 -0.6573 -0.1841 -0.4847
  119OSM   H12A12513   2.554   0.787  10.981 -1.8044 -1.4018 -3.6677
  119OSM   H12B12514   2.400   0.703  11.021 -0.8011  0.7209  0.4299
  119OSM    C1112515   2.547   0.583  10.961 -0.7114  0.2193 -0.3933
  119OSM   H11A12516   2.656   0.564  10.971 -0.9481 -1.6594 -1.1112
  119OSM   H11B12517   2.521   0.589  10.853  1.0941 -0.4765 -0.9026
  119OSM      P12518   2.539   0.328  11.046  0.5595 -0.5285 -0.1084
  119OSM    O1312519   2.657   0.343  11.132 -0.1393  0.4693 -0.0522
  119OSM    O1412520   2.425   0.262  11.106  0.1772 -0.0612 -0.3726
  119OSM    O1112521   2.591   0.258  10.918 -0.1820 -0.3398 -0.0269
  119OSM    O1212522   2.477   0.472  11.006 -0.2067 -0.1690 -0.7571
  119OSM    C1S12523   2.536   0.270  10.789 -0.6350 -0.0440  0.1586
  119OSM    H1S12524   2.553   0.371  10.745 -0.3769 -0.7145 -1.3461
  119OSM    H1T12525   2.427   0.251  10.791 -0.4109 -1.6875 -1.0763
  119OSM     NF12526   2.558   0.186  10.547 -0.2506 -0.1788 -0.5532
  119OSM    HNF12527   2.469   0.150  10.523 -0.2407 -0.8986  0.4093
  119OSM    C2S12528   2.599   0.167  10.688  0.6991 -0.3246 -0.2602
  119OSM    H2S12529   2.709   0.183  10.695  0.3892  1.7807  0.2494
  119OSM    C3S12530   2.545   0.032  10.730  0.1848  0.8342  0.1045
  119OSM    H3S12531   2.436   0.045  10.718 -0.0616 -0.8279  0.3041
  119OSM     O312532   2.564  -0.002  10.868 -0.1575 -0.2972 -0.0593
  119OSM    HO312533   2.608   0.078  10.898  1.6503  0.0380 -3.1064
  119OSM    C4S12534   2.602  -0.082  10.644 -0.0849  0.0590 -0.1449
  119OSM    H4S12535   2.703  -0.112  10.675  0.6008  1.8166 -0.5644
  119OSM    C5S12536   2.535  -0.158  10.555 -0.2542  0.5458 -0.2203
  119OSM    H5S12537   2.426  -0.153  10.543 -0.5252 -0.5894  1.3818
  119OSM    C6S12538   2.605  -0.266  10.477  0.3556  0.4333  0.3399
  119OSM    H6S12539   2.559  -0.362  10.506 -0.8812  0.5181 -1.1876
  119OSM    H6T12540   2.716  -0.275  10.486  0.3136 -1.9649 -0.8155
  119OSM    C7S12541   2.577  -0.267  10.327 -0.1540  0.3591 -0.3099
  119OSM    H7S12542   2.477  -0.302  10.294  0.0905  1.4820 -2.4625
  119OSM    H7T12543   2.647  -0.340  10.281 -0.3103 -0.2711  0.4420
  119OSM    C8S12544   2.589  -0.132  10.255  0.7624 -0.2837  0.2218
  119OSM    H8S12545   2.650  -0.056  10.309  0.3834 -1.1603  1.9731
  119OSM    H8T12546   2.494  -0.077  10.239  1.6451  1.1415 -0.3937
  119OSM    C9S12547   2.658  -0.148  10.114 -0.2647  0.2518 -0.3798
  119OSM    H9S12548   2.599  -0.208  10.040  1.2951 -1.0550 -0.6113
  119OSM    H9T12549   2.740  -0.218  10.138 -1.2851  0.0856  3.1377
  119OSM   C10S12550   2.704  -0.019  10.051  0.5918 -0.5098  0.4042
  119OSM   H10S12551   2.750   0.047  10.127  0.7900 -1.3640  1.0467
  119OSM   H10T12552   2.614   0.036  10.017  0.3650 -0.2244  1.4478
  119OSM   C11S12553   2.809  -0.031   9.938  0.3040 -0.3012 -0.8392
  119OSM   H11S12554   2.905  -0.067   9.982  1.6158 -0.7640 -3.8349
  119OSM   H11T12555   2.844   0.066   9.896 -0.2462  0.7003  0.9279
  119OSM   C12S12556   2.755  -0.111   9.822  0.1369 -0.0072 -0.7564
  119OSM   H12S12557   2.647  -0.086   9.812  0.5590  2.2251 -0.3988
  119OSM   H12T12558   2.764  -0.220   9.836  0.4206 -0.0441 -1.2056
  119OSM   C13S12559   2.819  -0.086   9.682  1.0660 -0.0977  0.2329
  119OSM   H13S12560   2.926  -0.117   9.685  1.0832 -0.1165 -0.4907
  119OSM   H13T12561   2.807   0.022   9.658 -2.0101 -0.4831 -0.3479
  119OSM   C14S12562   2.744  -0.172   9.573 -0.2616  0.3359 -0.0459
  119OSM   H14S12563   2.637  -0.158   9.599  0.0880 -0.4591  2.0029
  119OSM   H14T12564   2.771  -0.279   9.587  0.4668  0.7671  2.2946
  119OSM   C15S12565   2.774  -0.119   9.439  0.3306 -0.1653  0.2514
  119OSM   H15S12566   2.883  -0.116   9.420  0.7213 -3.2669  1.4182
  119OSM   H15T12567   2.732  -0.016   9.435  1.2966  0.1830 -1.7155
  119OSM   C16S12568   2.717  -0.207   9.325 -0.3026  0.0028  0.0580
  119OSM   H16S12569   2.606  -0.210   9.335 -0.2418  0.5276  0.9536
  119OSM   H16T12570   2.763  -0.308   9.333  0.7023  0.3507 -0.9959
  119OSM   C17S12571   2.762  -0.158   9.182 -0.5302 -0.0097 -0.1437
  119OSM   H17S12572   2.873  -0.162   9.179 -0.5663 -1.7022  0.1808
  119OSM   H17T12573   2.731  -0.051   9.183 -2.0254 -0.3470  3.0578
  119OSM   C18S12574   2.710  -0.225   9.053  0.2198 -0.6584 -0.6272
  119OSM   H18S12575   2.599  -0.230   9.059  0.3117 -1.7834  0.3068
  119OSM   H18T12576   2.747  -0.329   9.050  1.6010 -0.1659 -1.7744
  119OSM   H18U12577   2.744  -0.178   8.959  3.0839 -2.4992 -0.6118
  119OSM    C1F12578   2.605   0.287  10.472  0.4812 -0.7062  0.3408
  119OSM     OF12579   2.670   0.381  10.513  0.6201 -0.2814 -0.0460
  119OSM    C2F12580   2.551   0.280  10.329 -0.0828 -0.0249 -0.0038
  119OSM    H2F12581   2.444   0.251  10.332 -0.1412  0.1822 -0.0607
  119OSM    H2G12582   2.596   0.196  10.271  1.9742  1.4008 -0.5735
  119OSM    C3F12583   2.572   0.413  10.253  0.5286 -0.2665  0.2880
  119OSM    H3F12584   2.679   0.436  10.235  0.5946 -0.2814  0.6434
  119OSM    H3G12585   2.531   0.495  10.315  0.5811 -0.7238  0.9454
  119OSM    C4F12586   2.482   0.417  10.128  0.5889  0.4024  0.1432
  119OSM    H4F12587   2.504   0.507  10.066  3.4355  1.4574  2.4402
  119OSM    H4G12588   2.380   0.437  10.167  0.4082 -0.6320  0.2151
  119OSM    C5F12589   2.491   0.284  10.040  0.5383 -0.9592  0.3516
  119OSM    H5F12590   2.443   0.204  10.101 -0.3109  1.0219  2.4275
  119OSM    H5G12591   2.601   0.274  10.028  0.7863  0.6794  1.0906
  119OSM    C6F12592   2.422   0.296   9.902  0.4107 -0.6744 -0.9556
  119OSM    H6F12593   2.424   0.401   9.866 -1.2948  0.9526  3.0765
  119OSM    H6G12594   2.315   0.265   9.907  0.0012  0.8858  1.9439
  119OSM    C7F12595   2.485   0.195   9.802 -0.6393 -0.0746 -0.4303
  119OSM    H7F12596   2.459   0.092   9.835 -1.0188 -0.0386 -0.6154
  119OSM    H7G12597   2.595   0.199   9.816 -0.8199 -0.1844  1.1517
  119OSM    C8F12598   2.435   0.216   9.661 -0.7115  0.6477  0.4726
  119OSM    H8F12599   2.325   0.209   9.679 -0.6347 -1.3980  0.3511
  119OSM    H8G12600   2.458   0.129   9.596  0.7008  1.9692 -0.8861
  119OSM    C9F12601   2.466   0.353   9.611 -0.4077 -0.1677  0.5783
  119OSM    H9F12602   2.432   0.440   9.669 -0.9664 -0.9590  1.4662
  119OSM   C10F12603   2.527   0.366   9.491  0.0331  1.1796  0.2114
  119OSM   H10F12604   2.541   0.467   9.451  3.0742  0.4560 -0.8604
  119OSM   C11F12605   2.569   0.256   9.393  0.7632  0.1580  0.7755
  119OSM   H11F12606   2.521   0.156   9.399 -0.8146  0.3047 -4.5372
  119OSM   H11G12607   2.679   0.237   9.402  0.8803  0.6979  0.5221
  119OSM   C12F12608   2.551   0.314   9.247 -0.3090  0.6191 -0.3560
  119OSM   H12F12609   2.620   0.396   9.217  1.1567 -0.1841  0.6690
  119OSM   H12G12610   2.455   0.369   9.251 -0.9307 -0.3823 -1.0532
  119OSM   C13F12611   2.535   0.212   9.133 -0.8230 -0.1269  0.0288
  119OSM   H13F12612   2.480   0.127   9.178 -2.6220  1.2673  0.5781
  119OSM   H13G12613   2.632   0.176   9.092  0.2809  3.4648 -0.9862
  119OSM   C14F12614   2.465   0.281   9.017  0.4004  1.1533 -0.6479
  119OSM   H14F12615   2.454   0.390   9.029 -0.2745  0.9113  1.2820
  119OSM   H14G12616   2.361   0.247   9.034  0.2611  0.6558 -2.2862
  119OSM   C15F12617   2.514   0.244   8.885  0.5280  1.1105  1.1436
  119OSM   H15F12618   2.503   0.133   8.880 -1.9661  1.2392  2.5508
  119OSM   H15G12619   2.618   0.282   8.878 -0.0903  2.5288 -1.4910
  119OSM   C16F12620   2.444   0.315   8.770 -0.3614  0.0614  0.0340
  119OSM   H16F12621   2.490   0.271   8.680  0.4646 -2.8657  1.7500
  119OSM   H16G12622   2.451   0.425   8.782  0.8709 -0.2694  3.6196
  119OSM   C17F12623   2.301   0.278   8.758 -0.2491 -0.4735  0.1044
  119OSM   H17F12624   2.239   0.277   8.850  0.2283 -3.5741  0.5194
  119OSM   H17G12625   2.294   0.171   8.727 -0.5771  0.3553 -3.1180
  119OSM   C18F12626   2.228   0.373   8.655 -0.1422 -0.1463 -0.0752
  119OSM   H18F12627   2.204   0.473   8.697 -2.7889 -0.1562 -1.4013
  119OSM   H18G12628   2.133   0.325   8.625  0.3236 -1.6971  0.7972
  119OSM   H18H12629   2.298   0.381   8.569  0.7499 -0.1827  0.6294
  120OSM      N12630   0.915   4.950  10.400 -0.0230 -0.2838 -0.0971
  120OSM    C1512631   0.836   5.035  10.491 -0.2641 -0.4938 -0.2367
  120OSM   H15A12632   0.737   4.992  10.494 -0.4875 -0.1927 -2.0889
  120OSM   H15B12633   0.832   5.140  10.463  0.0666  0.2026  2.0902
  120OSM   H15C12634   0.875   5.039  10.592 -1.1185  1.5220  0.0565
  120OSM    C1412635   0.848   4.969  10.273 -0.2006 -0.7428  0.4239
  120OSM   H14A12636   0.897   4.928  10.186  1.5202  2.1179 -0.0973
  120OSM   H14B12637   0.836   5.075  10.257  0.8079 -0.4431  1.4710
  120OSM   H14C12638   0.748   4.928  10.275 -0.1692 -0.8958 -0.6001
  120OSM    C1312639   1.063   4.989  10.392  0.0899 -0.9025 -0.1788
  120OSM   H13A12640   1.110   4.973  10.488 -0.8012 -2.2776  0.0458
  120OSM   H13B12641   1.085   5.090  10.361  1.6978 -1.0027  0.5172
  120OSM   H13C12642   1.114   4.938  10.312  0.4112 -0.7512 -0.0723
  120OSM    C1212643   0.904   4.811  10.453 -0.0046 -0.0049  0.5827
  120OSM   H12A12644   0.914   4.807  10.560 -1.4752 -0.5272  0.7244
  120OSM   H12B12645   0.979   4.745  10.410  0.4350  1.4530 -1.0043
  120OSM    C1112646   0.773   4.736  10.432 -0.0333 -0.5047  0.6197
  120OSM   H11A12647   0.778   4.627  10.454  0.4073 -1.1116 -2.1106
  120OSM   H11B12648   0.757   4.734  10.322  2.2992  0.1479  0.1989
  120OSM      P12649   0.543   4.737  10.560 -0.0319  0.1370 -0.2067
  120OSM    O1312650   0.562   4.708  10.700  0.3366  0.6033  0.3638
  120OSM    O1412651   0.417   4.808  10.526 -0.6427 -0.5568 -0.1145
  120OSM    O1112652   0.543   4.600  10.490  0.6371  0.0543  0.1953
  120OSM    O1212653   0.670   4.806  10.506 -0.9441 -0.1780 -0.2856
  120OSM    C1S12654   0.461   4.587  10.370  0.4783  0.1485  0.3222
  120OSM    H1S12655   0.497   4.654  10.290  0.9981  0.2086  0.6056
  120OSM    H1T12656   0.354   4.615  10.384  0.9801  2.6915 -0.4017
  120OSM     NF12657   0.411   4.432  10.176  0.4905  0.4353 -0.1528
  120OSM    HNF12658   0.329   4.375  10.176  0.6379  0.1700  1.7979
  120OSM    C2S12659   0.481   4.437  10.303  0.5408 -0.5124  0.3095
  120OSM    H2S12660   0.588   4.437  10.272 -0.2558  0.1052 -2.7817
  120OSM    C3S12661   0.431   4.331  10.400  0.2060  0.0401 -0.3048
  120OSM    H3S12662   0.321   4.341  10.413 -0.0053 -0.7723 -1.3914
  120OSM     O312663   0.489   4.346  10.530 -0.6375 -0.1492 -0.1719
  120OSM    HO312664   0.518   4.437  10.521  0.1634 -0.5770 -3.3140
  120OSM    C4S12665   0.464   4.192  10.361 -0.3559 -0.4383 -0.1219
  120OSM    H4S12666   0.572   4.182  10.380 -0.2154  0.1154 -0.5908
  120OSM    C5S12667   0.396   4.100  10.299  0.0366  0.1303  0.3755
  120OSM    H5S12668   0.291   4.121  10.276 -0.1280  1.4055  2.1120
  120OSM    C6S12669   0.442   3.967  10.269 -0.1521  0.2350  1.0242
  120OSM    H6S12670   0.373   3.894  10.316 -0.4891 -0.3521 -0.3208
  120OSM    H6T12671   0.543   3.936  10.302  0.8272  1.9811 -0.1676
  120OSM    C7S12672   0.447   3.922  10.118 -0.4371  0.2805  0.8582
  120OSM    H7S12673   0.457   3.811  10.114 -0.7137  0.2783 -2.7191
  120OSM    H7T12674   0.537   3.960  10.066 -0.8938 -0.0927 -0.2447
  120OSM    C8S12675   0.311   3.946  10.054  0.0262 -0.3864  0.0900
  120OSM    H8S12676   0.290   4.054  10.049 -1.0155 -0.6211 -1.5115
  120OSM    H8T12677   0.230   3.891  10.107  0.8797 -0.7015  1.1050
  120OSM    C9S12678   0.304   3.903   9.905 -0.6445 -0.2032 -0.6523
  120OSM    H9S12679   0.195   3.910   9.883 -1.4217 -0.5768  2.6132
  120OSM    H9T12680   0.330   3.798   9.880 -2.7644 -0.8609 -0.3707
  120OSM   C10S12681   0.384   4.001   9.815 -0.4569  0.2723 -0.5135
  120OSM   H10S12682   0.478   4.036   9.864 -1.5749  0.0922  1.8606
  120OSM   H10T12683   0.324   4.092   9.797  0.0276  0.1371 -3.3863
  120OSM   C11S12684   0.425   3.953   9.676 -0.1441 -0.5563 -0.3048
  120OSM   H11S12685   0.339   3.903   9.627 -1.5718  1.3636  0.1294
  120OSM   H11T12686   0.507   3.879   9.687 -2.6577 -3.6239 -0.5371
  120OSM   C12S12687   0.473   4.063   9.574 -0.3200 -0.4719  0.7031
  120OSM   H12S12688   0.563   4.115   9.613  0.4897 -0.3281 -1.2432
  120OSM   H12T12689   0.400   4.144   9.554 -0.6512 -1.3839 -2.5166
  120OSM   C13S12690   0.495   4.000   9.430 -0.3181  0.7354  0.1165
  120OSM   H13S12691   0.575   3.922   9.429 -0.7134  0.3179 -1.2478
  120OSM   H13T12692   0.516   4.072   9.348 -0.3907  0.5147 -0.0969
  120OSM   C14S12693   0.367   3.920   9.385  0.5192  0.2346 -0.1238
  120OSM   H14S12694   0.280   3.989   9.373  0.5774  0.2041 -0.7535
  120OSM   H14T12695   0.343   3.831   9.447  0.0366 -0.1798 -0.8931
  120OSM   C15S12696   0.382   3.852   9.252 -0.2696 -0.2878  0.2628
  120OSM   H15S12697   0.285   3.806   9.221  0.2373  0.2045 -2.2383
  120OSM   H15T12698   0.457   3.770   9.251  1.5968  1.3549  0.4853
  120OSM   C16S12699   0.411   3.943   9.138  0.0544 -0.3150 -0.0507
  120OSM   H16S12700   0.499   4.003   9.168 -1.3857  1.1130  1.5742
  120OSM   H16T12701   0.330   4.019   9.134  1.0376  0.7843  0.4672
  120OSM   C17S12702   0.419   3.866   9.008  0.0450  0.5881  0.0709
  120OSM   H17S12703   0.332   3.798   8.998 -0.1140  0.5629  1.5218
  120OSM   H17T12704   0.512   3.806   9.018  0.8818  1.7044 -0.7063
  120OSM   C18S12705   0.436   3.947   8.880  0.2038  0.5803  0.6914
  120OSM   H18S12706   0.482   3.892   8.795  1.3518  2.8923 -0.2865
  120OSM   H18T12707   0.504   4.035   8.889  2.3068 -0.8351 -0.3634
  120OSM   H18U12708   0.333   3.987   8.866 -0.5586 -1.5195  0.0284
  120OSM    C1F12709   0.439   4.504  10.065  0.2858  0.9024 -0.1486
  120OSM     OF12710   0.520   4.591  10.070 -0.0210 -0.0812  0.2518
  120OSM    C2F12711   0.369   4.464   9.941  0.1306  0.4675 -0.4543
  120OSM    H2F12712   0.268   4.510   9.939 -0.7236 -0.9393  3.2394
  120OSM    H2G12713   0.361   4.353   9.932  0.1252  0.4920 -0.7681
  120OSM    C3F12714   0.454   4.520   9.818  0.3574  0.1871 -0.9566
  120OSM    H3F12715   0.560   4.487   9.824  0.2790 -0.2106 -1.6357
  120OSM    H3G12716   0.462   4.630   9.825  3.1595  0.0579 -0.5886
  120OSM    C4F12717   0.408   4.458   9.689  0.0755 -0.2550  0.9714
  120OSM    H4F12718   0.306   4.497   9.667  0.0947 -0.7426 -0.0244
  120OSM    H4G12719   0.401   4.348   9.698 -1.5284 -0.2326  0.3466
  120OSM    C5F12720   0.505   4.501   9.571 -0.5595  0.2307  0.1720
  120OSM    H5F12721   0.610   4.473   9.592 -1.1747 -0.6964  2.2519
  120OSM    H5G12722   0.499   4.612   9.572 -1.2869  0.1953  0.3886
  120OSM    C6F12723   0.473   4.460   9.423 -0.0846  0.1382  0.8824
  120OSM    H6F12724   0.371   4.488   9.388  0.6374  0.7559 -0.8280
  120OSM    H6G12725   0.477   4.349   9.422 -1.0249  0.0344 -2.0994
  120OSM    C7F12726   0.575   4.529   9.324  0.1650 -0.2192 -0.6094
  120OSM    H7F12727   0.667   4.469   9.340  0.0788  0.0686  1.2591
  120OSM    H7G12728   0.583   4.628   9.374  1.8163 -1.9294  2.8983
  120OSM    C8F12729   0.542   4.521   9.174  0.9682 -0.5536  0.0935
  120OSM    H8F12730   0.445   4.570   9.154  0.7414 -0.9297  0.2726
  120OSM    H8G12731   0.523   4.414   9.150  2.9170 -1.2548  1.3971
  120OSM    C9F12732   0.651   4.578   9.091  0.1820  0.0062 -0.4092
  120OSM    H9F12733   0.744   4.519   9.091 -0.5437 -1.2680  2.0371
  120OSM   C10F12734   0.657   4.697   9.028  0.3556  0.3732 -0.1900
  120OSM   H10F12735   0.752   4.716   8.976  1.8387 -0.6533  1.9780
  120OSM   C11F12736   0.540   4.796   9.013  0.0644 -0.5316 -0.1419
  120OSM   H11F12737   0.577   4.885   8.959  0.9082  0.5629  2.1114
  120OSM   H11G12738   0.497   4.820   9.113  0.2613  1.1345 -0.4309
  120OSM   C12F12739   0.445   4.730   8.912  0.3381  0.0733 -0.3090
  120OSM   H12F12740   0.423   4.621   8.923  0.6918  0.0663  0.4549
  120OSM   H12G12741   0.498   4.734   8.815 -0.1699 -1.5294 -0.6801
  120OSM   C13F12742   0.314   4.810   8.884 -0.8291 -0.2276  0.0767
  120OSM   H13F12743   0.241   4.799   8.967 -2.3308  0.7542 -1.0846
  120OSM   H13G12744   0.266   4.763   8.796 -1.1383 -0.3815  0.3261
  120OSM   C14F12745   0.324   4.959   8.844  0.3021  0.1720  0.1441
  120OSM   H14F12746   0.362   5.017   8.931 -0.4411 -1.7565  1.8237
  120OSM   H14G12747   0.228   5.006   8.815  1.2920  1.4855 -1.2099
  120OSM   C15F12748   0.416   4.990   8.723 -0.0595  0.4234  0.6407
  120OSM   H15F12749   0.403   4.921   8.637  0.4543  0.4852  0.5111
  120OSM   H15G12750   0.521   4.975   8.757 -0.5758  0.4757  2.3266
  120OSM   C16F12751   0.415   5.127   8.647  0.3194  0.4458 -0.3687
  120OSM   H16F12752   0.501   5.139   8.579  0.0628  1.7455 -0.4953
  120OSM   H16G12753   0.416   5.215   8.715 -1.4521 -0.2485  0.6109
  120OSM   C17F12754   0.290   5.130   8.551  0.5096 -1.0241  0.2193
  120OSM   H17F12755   0.200   5.117   8.614  0.2083 -0.9368 -0.1849
  120OSM   H17G12756   0.296   5.051   8.473 -0.0318 -1.9788  1.1285
  120OSM   C18F12757   0.285   5.266   8.482  0.5512  0.2225  0.6413
  120OSM   H18F12758   0.368   5.267   8.407  1.5387 -0.4262  1.7025
  120OSM   H18G12759   0.297   5.347   8.557  0.9676 -0.1693  0.9974
  120OSM   H18H12760   0.186   5.268   8.431  0.8480 -1.8217 -0.1165
  121OSM      N12761   5.891   0.606  11.111  0.2286  0.4263  0.2644
  121OSM    C1512762   5.833   0.536  11.225  0.0784  0.0710  0.5298
  121OSM   H15A12763   5.793   0.438  11.201 -2.2326  1.1980 -0.5852
  121OSM   H15B12764   5.750   0.593  11.264  0.5248  0.0312  1.5783
  121OSM   H15C12765   5.912   0.528  11.299  1.6307  0.1807 -1.0636
  121OSM    C1412766   6.007   0.526  11.060 -0.1609  0.1880  0.1278
  121OSM   H14A12767   5.970   0.431  11.024 -1.7286 -0.6136  3.5106
  121OSM   H14B12768   6.082   0.505  11.135  0.0672 -1.3411 -0.5098
  121OSM   H14C12769   6.059   0.571  10.976 -1.1406  0.3435 -0.3999
  121OSM    C1312770   5.795   0.619  11.003 -0.3053 -0.3362  1.1072
  121OSM   H13A12771   5.753   0.527  10.964  2.3626 -0.5608 -1.5896
  121OSM   H13B12772   5.845   0.668  10.921 -0.0610 -2.0918  0.1556
  121OSM   H13C12773   5.717   0.688  11.032 -0.8675 -0.8823  0.9157
  121OSM    C1212774   5.941   0.744  11.152  0.8283 -0.1426 -0.8013
  121OSM   H12A12775   6.010   0.731  11.234  1.0919 -1.5719 -1.2102
  121OSM   H12B12776   5.861   0.792  11.207  1.2460 -0.2581 -0.0781
  121OSM    C1112777   5.985   0.844  11.045 -0.5185 -0.1725 -0.2090
  121OSM   H11A12778   6.069   0.796  10.992 -1.4402 -0.9723 -0.9813
  121OSM   H11B12779   6.032   0.934  11.091  0.2144 -0.2578 -0.7795
  121OSM      P12780   5.769   0.998  10.981 -0.2422 -0.0475  0.6019
  121OSM    O1312781   5.655   0.971  10.893  0.4631 -0.1631 -0.2415
  121OSM    O1412782   5.744   0.998  11.126  0.0266  0.3683 -0.0583
  121OSM    O1112783   5.850   1.133  10.956  0.3085 -0.3844  0.0509
  121OSM    O1212784   5.881   0.887  10.955  0.0143  0.7980  0.2467
  121OSM    C1S12785   5.929   1.148  10.831  0.3168  0.9119 -0.6980
  121OSM    H1S12786   5.947   1.045  10.792 -1.2967  0.5441 -0.5333
  121OSM    H1T12787   6.030   1.189  10.854  0.6373 -1.6670  3.5398
  121OSM     NF12788   5.902   1.193  10.590 -0.6763 -0.2486  0.5872
  121OSM    HNF12789   5.943   1.275  10.552 -0.4838 -0.0736  1.1682
  121OSM    C2S12790   5.842   1.211  10.722  0.6522 -0.2043  0.0480
  121OSM    H2S12791   5.746   1.156  10.719  0.0177  0.9128 -2.0131
  121OSM    C3S12792   5.802   1.358  10.756  0.0744 -0.2256  0.1617
  121OSM    H3S12793   5.896   1.417  10.758 -0.7297  1.0600  1.0715
  121OSM     O312794   5.745   1.386  10.883  0.1817 -0.0579 -0.1206
  121OSM    HO312795   5.760   1.301  10.924 -0.4525  0.3110  0.9043
  121OSM    C4S12796   5.697   1.405  10.656  0.5216 -0.6182  0.4459
  121OSM    H4S12797   5.611   1.338  10.636 -0.1500  0.0845  0.8995
  121OSM    C5S12798   5.707   1.519  10.590  0.1369  0.1710  0.0346
  121OSM    H5S12799   5.793   1.581  10.617  1.0579 -1.2648  0.5233
  121OSM    C6S12800   5.615   1.588  10.494 -0.1439 -0.4351 -0.5444
  121OSM    H6S12801   5.671   1.653  10.424  1.8799 -0.2223  1.1742
  121OSM    H6T12802   5.546   1.652  10.553 -0.1324 -1.1490  0.2625
  121OSM    C7S12803   5.530   1.482  10.416  0.0126  0.2577  0.4083
  121OSM    H7S12804   5.462   1.538  10.349 -0.7621  0.1490  1.0830
  121OSM    H7T12805   5.474   1.424  10.492  0.2271 -1.3451 -0.6185
  121OSM    C8S12806   5.610   1.384  10.324 -0.8192 -0.1741  0.1269
  121OSM    H8S12807   5.581   1.284  10.361 -0.5965 -0.6858 -1.0455
  121OSM    H8T12808   5.719   1.396  10.337 -0.9391  0.4845  0.6005
  121OSM    C9S12809   5.575   1.405  10.177  0.1757  0.1016  0.9173
  121OSM    H9S12810   5.590   1.510  10.144 -0.9620 -0.5118 -1.8360
  121OSM    H9T12811   5.466   1.402  10.157  0.1747  0.8501  0.8000
  121OSM   C10S12812   5.651   1.316  10.078  0.5912  0.3434 -0.1838
  121OSM   H10S12813   5.618   1.218  10.118 -0.3038  0.9896  0.7147
  121OSM   H10T12814   5.761   1.322  10.087  0.5378 -0.5181  1.5455
  121OSM   C11S12815   5.604   1.326   9.932  0.4836  0.6912  0.1155
  121OSM   H11S12816   5.496   1.303   9.936  0.4948  0.7380  0.7876
  121OSM   H11T12817   5.657   1.246   9.877 -0.0147 -0.8566  1.8133
  121OSM   C12S12818   5.641   1.463   9.866  0.9313  0.0963 -0.1658
  121OSM   H12S12819   5.735   1.506   9.908  1.1503  1.7798 -2.2294
  121OSM   H12T12820   5.552   1.522   9.895 -0.5551 -1.8900 -0.4515
  121OSM   C13S12821   5.638   1.452   9.708 -0.0504  0.2533  0.7286
  121OSM   H13S12822   5.584   1.364   9.668  2.3504 -0.4641 -1.2403
  121OSM   H13T12823   5.738   1.421   9.671  0.5460  0.5738  2.0273
  121OSM   C14S12824   5.601   1.590   9.643  0.2900 -0.4395  0.7317
  121OSM   H14S12825   5.685   1.661   9.661  0.4293  0.2315 -2.0253
  121OSM   H14T12826   5.503   1.604   9.692 -0.7505 -0.4111 -1.2329
  121OSM   C15S12827   5.592   1.575   9.490  0.2595 -0.3505  0.3578
  121OSM   H15S12828   5.530   1.660   9.454  1.1988  1.0715  1.9802
  121OSM   H15T12829   5.539   1.485   9.452  0.1623  0.2190 -0.9076
  121OSM   C16S12830   5.738   1.583   9.425  0.5770  0.2955 -0.1148
  121OSM   H16S12831   5.797   1.491   9.444 -2.6392 -2.0925 -0.7236
  121OSM   H16T12832   5.797   1.666   9.469 -0.1041  0.5244  0.3908
  121OSM   C17S12833   5.721   1.593   9.272 -0.2155 -0.2679  0.5725
  121OSM   H17S12834   5.829   1.591   9.246 -0.2217 -1.6185  0.5681
  121OSM   H17T12835   5.683   1.692   9.238 -1.3189 -1.3891 -1.6204
  121OSM   C18S12836   5.642   1.484   9.205  0.9190  0.8078 -0.6366
  121OSM   H18S12837   5.654   1.385   9.254  0.8560  1.0721 -0.0786
  121OSM   H18T12838   5.674   1.481   9.098 -0.3449 -0.0563 -1.0252
  121OSM   H18U12839   5.533   1.505   9.209  1.4076  3.3191  0.9621
  121OSM    C1F12840   5.917   1.075  10.530  0.4466 -0.0691 -0.3555
  121OSM     OF12841   5.872   0.969  10.582  0.0221 -0.1407 -0.2363
  121OSM    C2F12842   5.980   1.072  10.396  0.3870  0.1869 -0.7225
  121OSM    H2F12843   6.058   0.993  10.384 -1.6988 -1.7695 -2.2755
  121OSM    H2G12844   6.027   1.172  10.385 -0.7830  0.9326  0.8266
  121OSM    C3F12845   5.883   1.052  10.286 -0.3535 -0.2576 -0.5222
  121OSM    H3F12846   5.808   1.134  10.283  2.2095  2.2771  0.3176
  121OSM    H3G12847   5.827   0.960  10.314  0.8134 -0.6788  0.4891
  121OSM    C4F12848   5.950   1.035  10.150 -0.3871  0.0027  0.4250
  121OSM    H4F12849   5.875   1.021  10.069  0.8442 -1.4026 -0.5165
  121OSM    H4G12850   6.021   0.950  10.155 -0.4516 -0.0563  0.3431
  121OSM    C5F12851   6.021   1.162  10.101  0.6019 -0.2049  0.1995
  121OSM    H5F12852   6.105   1.173  10.172 -0.1435  1.0817  0.8999
  121OSM    H5G12853   5.964   1.257  10.112  4.1595  2.1502 -0.0807
  121OSM    C6F12854   6.078   1.144   9.962  0.2122 -0.8462 -0.4559
  121OSM    H6F12855   6.122   1.042   9.949  0.3298 -0.6672 -1.5516
  121OSM    H6G12856   6.169   1.207   9.951 -0.3419  0.4417  1.7165
  121OSM    C7F12857   5.978   1.184   9.850  0.5078  0.0473  0.0496
  121OSM    H7F12858   5.933   1.285   9.863  0.7473  0.0664  0.7720
  121OSM    H7G12859   5.894   1.112   9.859 -1.0260  1.8609  0.8168
  121OSM    C8F12860   6.036   1.165   9.708 -0.3174 -0.2205  0.5435
  121OSM    H8F12861   6.067   1.059   9.697 -0.8528 -0.2489 -0.8746
  121OSM    H8G12862   6.128   1.225   9.721  0.4172 -0.3450 -3.0626
  121OSM    C9F12863   5.944   1.207   9.594 -0.5434  0.9754  0.1718
  121OSM    H9F12864   5.840   1.218   9.628 -0.3874  0.9117  0.6821
  121OSM   C10F12865   5.986   1.242   9.471 -0.7196 -0.0462 -0.4797
  121OSM   H10F12866   5.921   1.265   9.386  0.2549 -0.0694 -1.2396
  121OSM   C11F12867   6.134   1.235   9.431  0.1331  0.8416 -0.2568
  121OSM   H11F12868   6.159   1.127   9.442 -1.3861  0.1500 -2.7383
  121OSM   H11G12869   6.196   1.307   9.488  1.1755 -0.3668  0.1855
  121OSM   C12F12870   6.144   1.269   9.283  0.2148  0.2838 -0.0017
  121OSM   H12F12871   6.134   1.376   9.256 -1.8668  0.1781  0.1830
  121OSM   H12G12872   6.052   1.226   9.238 -0.8341  1.0091  1.3577
  121OSM   C13F12873   6.265   1.206   9.220 -0.4606  0.3175 -0.1789
  121OSM   H13F12874   6.261   1.099   9.251  0.2009  0.9824  2.4249
  121OSM   H13G12875   6.361   1.251   9.252  0.5411 -2.1199  0.4880
  121OSM   C14F12876   6.265   1.219   9.067  0.1662 -0.3239  0.8465
  121OSM   H14F12877   6.260   1.325   9.034 -0.5890 -1.4534 -3.2857
  121OSM   H14G12878   6.182   1.160   9.023  0.4450 -0.9729  1.1799
  121OSM   C15F12879   6.398   1.176   8.997  0.4409  0.4216 -0.2292
  121OSM   H15F12880   6.433   1.084   9.049  0.4934  1.3173  1.3794
  121OSM   H15G12881   6.473   1.255   9.018  1.9125 -0.9253 -0.2775
  121OSM   C16F12882   6.398   1.157   8.846 -0.1184 -0.1663  0.3572
  121OSM   H16F12883   6.503   1.155   8.810  0.1623 -0.5889  1.1481
  121OSM   H16G12884   6.360   1.242   8.786 -0.2257 -1.1445 -1.0113
  121OSM   C17F12885   6.310   1.044   8.801 -0.4582  0.9049 -0.0448
  121OSM   H17F12886   6.212   1.076   8.842 -0.7304  3.0453 -2.1926
  121OSM   H17G12887   6.342   0.953   8.857  2.0123  1.4079 -0.5091
  121OSM   C18F12888   6.289   1.015   8.653 -0.0620 -0.9665  0.3262
  121OSM   H18F12889   6.240   1.103   8.607  0.2726 -0.9379  0.0197
  121OSM   H18G12890   6.236   0.921   8.627 -1.2204 -0.4159  0.6346
  121OSM   H18H12891   6.389   0.997   8.607  0.5221 -0.4707  1.3584
  122OSM      N12892   0.540   6.031  11.039  0.5647 -0.1830  0.3346
  122OSM    C1512893   0.509   6.067  11.180  0.5027  0.1025  0.4236
  122OSM   H15A12894   0.494   6.174  11.177  1.1899  0.2754  1.9824
  122OSM   H15B12895   0.593   6.053  11.246  0.5908  0.1389  0.3203
  122OSM   H15C12896   0.433   6.003  11.220  1.2538 -0.8096  0.4271
  122OSM    C1412897   0.419   6.057  10.950 -0.3399 -0.8880  0.5084
  122OSM   H14A12898   0.439   6.037  10.846 -0.8421 -0.4461  0.3171
  122OSM   H14B12899   0.384   6.159  10.957  0.1084 -0.7649  0.9812
  122OSM   H14C12900   0.329   6.005  10.981 -0.8046  0.1917  1.0331
  122OSM    C1312901   0.654   6.115  11.002 -0.0535  0.0038 -0.3426
  122OSM   H13A12902   0.741   6.113  11.065  0.4337  0.6907 -0.9737
  122OSM   H13B12903   0.626   6.219  10.999  0.8171  0.2369 -1.3401
  122OSM   H13C12904   0.700   6.081  10.910  1.6729 -1.4386  0.9927
  122OSM    C1212905   0.576   5.881  11.033  0.5075 -0.5844  0.2220
  122OSM   H12A12906   0.491   5.829  11.075 -1.0857  0.8534 -1.0995
  122OSM   H12B12907   0.673   5.873  11.079  0.7170 -0.8751 -0.2631
  122OSM    C1112908   0.579   5.819  10.893  0.3205  0.5919  0.1434
  122OSM   H11A12909   0.479   5.814  10.844  0.2148  0.8689  0.3265
  122OSM   H11B12910   0.616   5.715  10.910 -0.9994  0.3902  2.1455
  122OSM      P12911   0.810   5.830  10.763 -0.5876 -0.1271  0.3158
  122OSM    O1312912   0.890   5.942  10.719 -0.1080 -0.1317 -0.5017
  122OSM    O1412913   0.875   5.742  10.867  0.1157  0.0587 -0.3901
  122OSM    O1112914   0.780   5.742  10.640 -0.0201 -0.0014  0.1662
  122OSM    O1212915   0.674   5.888  10.812  0.2889 -0.4720 -0.2113
  122OSM    C1S12916   0.668   5.722  10.558 -0.2892  0.4269 -0.2371
  122OSM    H1S12917   0.581   5.770  10.607  1.1020  1.4381  1.3392
  122OSM    H1T12918   0.645   5.614  10.556 -2.5415  0.8722 -1.3718
  122OSM     NF12919   0.559   5.766  10.348  0.1438 -0.1743 -1.0194
  122OSM    HNF12920   0.526   5.693  10.289 -1.2417  1.4405 -2.3142
  122OSM    C2S12921   0.681   5.755  10.410 -0.0559 -0.2169 -0.5525
  122OSM    H2S12922   0.722   5.859  10.407 -1.0249  0.2868  1.7427
  122OSM    C3S12923   0.777   5.657  10.331  0.4073 -0.6718  0.4679
  122OSM    H3S12924   0.723   5.560  10.320  0.0995 -0.3413 -1.1007
  122OSM     O312925   0.894   5.634  10.405 -0.0773 -0.5762 -0.1446
  122OSM    HO312926   0.872   5.691  10.479  1.1494  0.3875 -0.4998
  122OSM    C4S12927   0.810   5.710  10.196  0.3492 -0.0843  0.2065
  122OSM    H4S12928   0.781   5.639  10.118  0.0029  0.4919 -0.2012
  122OSM    C5S12929   0.876   5.823  10.169 -0.5001  0.6299 -0.2586
  122OSM    H5S12930   0.897   5.878  10.263  0.1854 -1.6963  1.0200
  122OSM    C6S12931   0.916   5.884  10.042 -0.2569 -0.1768 -0.5623
  122OSM    H6S12932   1.025   5.902  10.051 -0.6115  2.6699 -0.8624
  122OSM    H6T12933   0.868   5.982  10.020 -0.0940 -0.2198 -1.1231
  122OSM    C7S12934   0.904   5.787   9.920  0.5841  0.6147 -0.4311
  122OSM    H7S12935   0.795   5.776   9.902  0.2065  3.0217  0.0203
  122OSM    H7T12936   0.951   5.693   9.957  1.8636  1.6544  0.6808
  122OSM    C8S12937   0.992   5.837   9.803 -0.2109  0.1619 -0.1421
  122OSM    H8S12938   1.083   5.887   9.844 -0.8351  2.3675 -1.2519
  122OSM    H8T12939   0.940   5.920   9.750 -0.4735  0.1701  0.1272
  122OSM    C9S12940   1.034   5.732   9.707  0.8021  0.0208 -0.1890
  122OSM    H9S12941   0.949   5.697   9.644  0.7722  3.6913 -2.4881
  122OSM    H9T12942   1.073   5.647   9.767  0.0531 -0.3332 -0.1958
  122OSM   C10S12943   1.143   5.777   9.607  0.8168  0.6118 -0.6130
  122OSM   H10S12944   1.239   5.800   9.659  0.2763 -0.3112  0.8634
  122OSM   H10T12945   1.102   5.859   9.544  0.0917  0.3440 -0.5024
  122OSM   C11S12946   1.178   5.679   9.495  1.1799  0.2463 -0.1288
  122OSM   H11S12947   1.195   5.576   9.532  0.2318 -0.7150 -2.2278
  122OSM   H11T12948   1.276   5.704   9.451  1.4037 -1.0486 -0.4065
  122OSM   C12S12949   1.088   5.685   9.371 -0.1006  0.0667  0.4247
  122OSM   H12S12950   0.985   5.667   9.407 -0.9007  0.9419 -1.3043
  122OSM   H12T12951   1.127   5.606   9.303 -0.1246  0.7509 -0.4120
  122OSM   C13S12952   1.110   5.811   9.275 -0.6107 -0.5655 -0.2022
  122OSM   H13S12953   1.216   5.821   9.242 -1.4108 -1.5510 -3.4811
  122OSM   H13T12954   1.076   5.894   9.339 -0.0399 -0.8250  0.4547
  122OSM   C14S12955   1.026   5.791   9.147 -0.3190  0.4520 -0.0470
  122OSM   H14S12956   0.920   5.812   9.176  0.0333  2.9827 -0.3456
  122OSM   H14T12957   1.036   5.684   9.119 -0.1267  0.0905  1.2980
  122OSM   C15S12958   1.053   5.892   9.040  0.4419  1.2328  0.3732
  122OSM   H15S12959   1.151   5.878   8.990  1.2185 -0.8663  2.3179
  122OSM   H15T12960   1.050   5.993   9.087  0.6282  0.1825  2.7711
  122OSM   C16S12961   0.943   5.896   8.924  0.9006 -0.2128  0.0504
  122OSM   H16S12962   0.841   5.896   8.969  0.1472 -5.6900 -0.9144
  122OSM   H16T12963   0.942   5.800   8.868 -0.2731 -0.2382  0.0910
  122OSM   C17S12964   0.954   6.008   8.820  0.1960 -0.1108 -0.4404
  122OSM   H17S12965   0.967   6.105   8.873 -0.1099 -0.0343 -0.5054
  122OSM   H17T12966   0.867   6.004   8.752  1.3005 -0.1044 -1.9040
  122OSM   C18S12967   1.077   5.992   8.731  0.7860 -0.8879  0.2364
  122OSM   H18S12968   1.179   5.979   8.775  0.9073  0.9536  0.5749
  122OSM   H18T12969   1.073   6.079   8.663  0.4395  0.0542  1.4366
  122OSM   H18U12970   1.060   5.904   8.665 -1.5102 -0.9648  0.8447
  122OSM    C1F12971   0.472   5.864  10.372  0.1162  0.3956  0.6930
  122OSM     OF12972   0.493   5.965  10.432  0.2688 -0.5655  0.0326
  122OSM    C2F12973   0.332   5.837  10.318  0.2142  0.5333  0.1848
  122OSM    H2F12974   0.271   5.806  10.405  1.5408  0.1141  0.9880
  122OSM    H2G12975   0.333   5.758  10.240 -2.1946 -0.2546  0.8656
  122OSM    C3F12976   0.276   5.966  10.255 -0.3310 -0.3906  0.8523
  122OSM    H3F12977   0.261   6.051  10.324 -0.1426  2.8196 -2.7384
  122OSM    H3G12978   0.175   5.946  10.214 -1.5359  2.1727  2.3438
  122OSM    C4F12979   0.362   6.018  10.127  0.6470 -0.0268 -0.1482
  122OSM    H4F12980   0.463   6.047  10.163  0.2612 -1.1253  2.0212
  122OSM    H4G12981   0.310   6.100  10.074  1.6403 -0.0522 -1.2093
  122OSM    C5F12982   0.395   5.899  10.026  0.4984 -0.0898 -0.0310
  122OSM    H5F12983   0.304   5.847   9.989  0.1865  1.8348 -2.1164
  122OSM    H5G12984   0.463   5.833  10.085 -0.1488 -0.0529  0.7768
  122OSM    C6F12985   0.483   5.953   9.917  0.8858  0.1124  0.5150
  122OSM    H6F12986   0.584   5.980   9.955  1.8789 -0.0933 -1.8584
  122OSM    H6G12987   0.437   6.048   9.882  3.1907  0.7017 -1.1369
  122OSM    C7F12988   0.499   5.854   9.800  0.3227 -0.2594 -0.1193
  122OSM    H7F12989   0.404   5.835   9.745  0.2479  1.6883 -0.7327
  122OSM    H7G12990   0.528   5.754   9.838  1.6709 -0.7457 -2.2544
  122OSM    C8F12991   0.608   5.885   9.689  0.0756  0.4071  0.2585
  122OSM    H8F12992   0.630   5.789   9.638 -0.9156  0.7005 -0.7530
  122OSM    H8G12993   0.698   5.911   9.749 -0.9323  0.0629  1.9799
  122OSM    C9F12994   0.582   5.996   9.596  0.5237 -0.1791 -0.3666
  122OSM    H9F12995   0.545   6.084   9.651 -2.1763 -0.8878 -0.9156
  122OSM   C10F12996   0.612   6.019   9.469 -0.1956  0.1023 -0.1257
  122OSM   H10F12997   0.587   6.115   9.422  1.3356  1.0402  0.8576
  122OSM   C11F12998   0.680   5.916   9.378 -0.5321 -0.6866  0.3454
  122OSM   H11F12999   0.702   5.817   9.425  2.1804 -1.2285 -1.7635
  122OSM   H11G13000   0.773   5.961   9.336  0.9657 -2.2287  1.8399
  122OSM   C12F13001   0.589   5.875   9.259  0.5414  0.3354 -0.0911
  122OSM   H12F13002   0.490   5.836   9.293  1.1072 -1.8366 -0.7440
  122OSM   H12G13003   0.628   5.781   9.215  0.7930  0.2145  0.3802
  122OSM   C13F13004   0.555   5.987   9.155 -0.1897 -0.2218 -0.3586
  122OSM   H13F13005   0.647   6.047   9.140 -1.5155  2.1249  0.3092
  122OSM   H13G13006   0.485   6.063   9.196  1.3726  1.6053 -0.9419
  122OSM   C14F13007   0.490   5.943   9.027  0.4109  0.3251  0.1222
  122OSM   H14F13008   0.430   6.028   8.988 -1.8400 -1.4256 -0.4931
  122OSM   H14G13009   0.407   5.870   9.039 -2.2328  2.7438 -1.9917
  122OSM   C15F13010   0.591   5.895   8.933  0.4046  0.2476  0.1142
  122OSM   H15F13011   0.638   5.802   8.972  1.5340  1.7002  2.4610
  122OSM   H15G13012   0.669   5.972   8.915 -0.3081  0.7622 -0.8925
  122OSM   C16F13013   0.520   5.877   8.796 -0.1284 -0.0012 -0.1784
  122OSM   H16F13014   0.465   5.972   8.779 -1.3087 -0.8504 -1.3276
  122OSM   H16G13015   0.446   5.798   8.819 -0.9050  1.3545  2.5100
  122OSM   C17F13016   0.605   5.845   8.676  0.4719 -0.2699 -0.0499
  122OSM   H17F13017   0.685   5.773   8.705 -0.8221 -2.5615 -1.8458
  122OSM   H17G13018   0.657   5.937   8.642 -0.2517 -0.9593 -3.4020
  122OSM   C18F13019   0.530   5.787   8.559  1.0003 -0.1356 -0.5421
  122OSM   H18F13020   0.499   5.682   8.580 -0.1476 -0.3982 -3.1882
  122OSM   H18G13021   0.591   5.776   8.467  1.4124  0.0174 -0.2871
  122OSM   H18H13022   0.442   5.851   8.537  0.9207  0.7207  1.9466
  123OSM      N13023   4.824   4.247   5.881  0.0996 -0.2917  0.5656
  123OSM    C1513024   4.975   4.225   5.886 -0.3082 -0.5478  0.1013
  123OSM   H15A13025   5.019   4.322   5.906 -0.2465 -0.8171  1.3316
  123OSM   H15B13026   5.016   4.181   5.796  1.0306  0.4405  0.1894
  123OSM   H15C13027   4.997   4.164   5.972  1.7570  0.8583  0.6565
  123OSM    C1413028   4.798   4.332   5.753  0.1365 -0.5196 -0.7009
  123OSM   H14A13029   4.829   4.279   5.664 -0.8319 -0.6229 -0.9870
  123OSM   H14B13030   4.862   4.419   5.754  0.2637 -0.5454 -2.5876
  123OSM   H14C13031   4.694   4.359   5.750 -0.6811 -2.7798  2.4607
  123OSM    C1313032   4.758   4.116   5.870 -0.8586  0.4985  0.1978
  123OSM   H13A13033   4.801   4.055   5.949 -1.8092  2.2401  2.1391
  123OSM   H13B13034   4.772   4.076   5.770 -0.9971 -2.9034  1.3994
  123OSM   H13C13035   4.652   4.129   5.881 -0.5691  2.0588  1.5260
  123OSM    C1213036   4.784   4.326   6.001 -0.1449 -0.3667 -0.0493
  123OSM   H12A13037   4.677   4.321   6.016  0.0992  0.4407  2.4326
  123OSM   H12B13038   4.804   4.432   5.989 -1.5152  0.2163  2.2010
  123OSM    C1113039   4.834   4.286   6.143 -0.1416  0.1827 -0.6226
  123OSM   H11A13040   4.811   4.364   6.219 -0.0917  0.1833 -0.6074
  123OSM   H11B13041   4.945   4.277   6.144 -0.1409  0.2271  0.2773
  123OSM      P13042   4.630   4.133   6.222  0.1158  0.4025  0.1490
  123OSM    O1313043   4.532   4.172   6.119 -0.3436 -0.5342  0.6526
  123OSM    O1413044   4.611   3.998   6.276 -0.2803  0.6242  0.0513
  123OSM    O1113045   4.603   4.232   6.339  1.4158 -0.2444  0.5818
  123OSM    O1213046   4.782   4.156   6.184  0.6529 -0.3724  0.2213
  123OSM    C1S13047   4.687   4.235   6.452  0.0335 -0.2511  0.1413
  123OSM    H1S13048   4.790   4.270   6.430  0.6136 -1.4999  0.7813
  123OSM    H1T13049   4.707   4.133   6.490  1.7409 -0.3473 -0.9307
  123OSM     NF13050   4.731   4.363   6.661 -0.1448  0.1208  0.5362
  123OSM    HNF13051   4.745   4.302   6.740  0.5859 -1.2921 -0.6325
  123OSM    C2S13052   4.629   4.318   6.569  0.6946  0.0932 -0.2101
  123OSM    H2S13053   4.588   4.413   6.528 -0.6995 -0.6504 -0.6083
  123OSM    C3S13054   4.517   4.229   6.629  0.5589 -0.4335 -0.5723
  123OSM    H3S13055   4.565   4.138   6.670  1.0475  0.3502  0.6405
  123OSM     O313056   4.410   4.191   6.540 -0.4608 -0.1203 -0.0274
  123OSM    HO313057   4.433   4.236   6.458  2.3483 -2.0439 -0.4327
  123OSM    C4S13058   4.442   4.299   6.739 -0.3385  0.5194  0.0304
  123OSM    H4S13059   4.386   4.389   6.711 -0.9151  0.5549  1.2344
  123OSM    C5S13060   4.445   4.267   6.866 -0.6568 -0.0428  0.1266
  123OSM    H5S13061   4.517   4.192   6.902  0.7537  0.7870 -0.9020
  123OSM    C6S13062   4.376   4.349   6.972 -0.4970 -0.1283 -0.0980
  123OSM    H6S13063   4.305   4.286   7.030  0.6248  0.2273  1.7439
  123OSM    H6T13064   4.332   4.449   6.947 -0.2216  0.5792  2.0146
  123OSM    C7S13065   4.482   4.389   7.078  0.1002  0.9111  0.3681
  123OSM    H7S13066   4.567   4.449   7.039  0.4907 -0.0536 -0.3082
  123OSM    H7T13067   4.520   4.293   7.118 -0.4005  0.6467  0.2237
  123OSM    C8S13068   4.424   4.462   7.196  0.0348 -0.4491 -0.9997
  123OSM    H8S13069   4.349   4.396   7.245  0.2868 -0.6390 -0.8670
  123OSM    H8T13070   4.374   4.557   7.167 -1.4671  0.4341  3.6494
  123OSM    C9S13071   4.535   4.499   7.294 -0.3020 -0.1108 -0.0343
  123OSM    H9S13072   4.616   4.552   7.241  0.6943 -1.6764 -0.1246
  123OSM    H9T13073   4.593   4.415   7.338  1.8231 -0.1340 -2.6299
  123OSM   C10S13074   4.473   4.591   7.406  0.0318  0.8393  0.6261
  123OSM   H10S13075   4.386   4.538   7.450 -2.3252  2.5344 -1.7292
  123OSM   H10T13076   4.450   4.687   7.357  1.0053  1.6482  1.6976
  123OSM   C11S13077   4.558   4.615   7.531  0.4890 -0.2151 -0.5643
  123OSM   H11S13078   4.645   4.679   7.505  1.2164 -1.0253 -0.1567
  123OSM   H11T13079   4.593   4.519   7.574 -0.6502 -0.2157  0.4235
  123OSM   C12S13080   4.471   4.689   7.636 -0.0975 -0.3587  0.0004
  123OSM   H12S13081   4.396   4.615   7.671  0.1619  0.1602  1.7337
  123OSM   H12T13082   4.428   4.785   7.599 -0.3804 -0.2517  0.5991
  123OSM   C13S13083   4.548   4.726   7.764  0.4985 -0.4376 -0.2955
  123OSM   H13S13084   4.627   4.800   7.740  0.8210 -0.2351  1.2916
  123OSM   H13T13085   4.600   4.640   7.811  0.3305 -0.3093  0.1297
  123OSM   C14S13086   4.448   4.786   7.861  0.0167  0.3094  0.0359
  123OSM   H14S13087   4.358   4.723   7.878  1.0032 -0.6555  2.0066
  123OSM   H14T13088   4.422   4.885   7.818  0.5839  0.0217 -1.0164
  123OSM   C15S13089   4.512   4.815   8.002  0.5883 -0.2499 -0.0153
  123OSM   H15S13090   4.433   4.864   8.063 -0.5557 -2.0223  0.0017
  123OSM   H15T13091   4.594   4.889   7.991  0.4426 -0.2952 -1.5008
  123OSM   C16S13092   4.542   4.688   8.087 -0.2902  1.2607  1.1402
  123OSM   H16S13093   4.602   4.614   8.029 -2.2583  0.7345 -0.3740
  123OSM   H16T13094   4.447   4.633   8.102 -0.5225  0.9822 -0.9559
  123OSM   C17S13095   4.612   4.721   8.219 -0.5418 -0.1887  0.6216
  123OSM   H17S13096   4.569   4.821   8.242 -1.0405 -0.3227  0.3012
  123OSM   H17T13097   4.721   4.732   8.203 -0.2244  0.0582  2.6120
  123OSM   C18S13098   4.576   4.629   8.325 -0.2248  0.7932 -0.4341
  123OSM   H18S13099   4.472   4.632   8.365  0.1798  0.5874  0.6679
  123OSM   H18T13100   4.639   4.627   8.417 -1.9374  0.0018  0.8055
  123OSM   H18U13101   4.596   4.525   8.290  0.6156 -0.3561  2.9772
  123OSM    C1F13102   4.816   4.465   6.641 -0.5670  0.0574  0.4182
  123OSM     OF13103   4.805   4.529   6.541  0.1080 -0.2087 -0.1467
  123OSM    C2F13104   4.926   4.487   6.737 -0.3826 -0.4002  0.1119
  123OSM    H2F13105   4.976   4.584   6.720  0.0171 -0.3525  1.4565
  123OSM    H2G13106   4.987   4.394   6.729  0.1085  0.0445 -1.8103
  123OSM    C3F13107   4.864   4.505   6.881 -0.6952  0.5198 -0.4028
  123OSM    H3F13108   4.812   4.424   6.936 -1.3293  0.1445 -1.5224
  123OSM    H3G13109   4.786   4.583   6.869 -0.3370  1.1252  1.0388
  123OSM    C4F13110   4.959   4.580   6.983  0.4232 -0.3455  0.8537
  123OSM    H4F13111   4.988   4.682   6.948 -3.1639  0.2403 -0.8301
  123OSM    H4G13112   5.055   4.525   6.971  0.1641 -1.1342  2.2540
  123OSM    C5F13113   4.896   4.580   7.121 -1.2620  0.4661 -0.8916
  123OSM    H5F13114   4.871   4.474   7.141  1.2291  0.4235  2.8422
  123OSM    H5G13115   4.805   4.642   7.134 -1.4095  0.3198 -1.2147
  123OSM    C6F13116   4.996   4.600   7.242 -0.0599  0.1686 -0.1264
  123OSM    H6F13117   5.027   4.706   7.240 -1.2758  0.5638  1.0055
  123OSM    H6G13118   5.086   4.537   7.223 -0.7161 -0.5176 -1.0624
  123OSM    C7F13119   4.945   4.553   7.382 -0.8100 -0.0379 -0.0491
  123OSM    H7F13120   4.944   4.442   7.383 -2.9556 -0.0788  2.1680
  123OSM    H7G13121   4.839   4.584   7.377 -0.8637 -0.2969 -0.5410
  123OSM    C8F13122   5.030   4.616   7.496 -0.0716 -0.0231 -0.2279
  123OSM    H8F13123   4.976   4.705   7.536  0.9723 -0.8610  3.3893
  123OSM    H8G13124   5.127   4.644   7.450  1.6172 -0.9281  2.5426
  123OSM    C9F13125   5.060   4.516   7.604  0.2069 -0.7664  0.3040
  123OSM    H9F13126   5.132   4.439   7.573 -0.3373 -0.9121 -0.6242
  123OSM   C10F13127   5.015   4.518   7.737  0.2938  0.2536 -0.1108
  123OSM   H10F13128   5.054   4.438   7.803  0.7908 -1.4380 -2.3234
  123OSM   C11F13129   4.931   4.630   7.792 -0.8078 -0.0941  0.0118
  123OSM   H11F13130   4.835   4.587   7.828  0.7329 -2.2927  1.7645
  123OSM   H11G13131   4.903   4.714   7.725 -0.9773  0.6789  1.0284
  123OSM   C12F13132   4.989   4.721   7.904 -0.2474  0.3279 -0.4495
  123OSM   H12F13133   5.076   4.772   7.859 -0.9607  0.7463 -1.3982
  123OSM   H12G13134   5.027   4.652   7.983 -0.2538  0.4687 -0.3220
  123OSM   C13F13135   4.889   4.822   7.968 -0.4915 -0.4791  0.0419
  123OSM   H13F13136   4.812   4.766   8.025 -0.4706  0.9406  1.5108
  123OSM   H13G13137   4.850   4.865   7.873  2.0205  0.5945 -0.5965
  123OSM   C14F13138   4.956   4.930   8.052  0.3629 -0.3608  0.2111
  123OSM   H14F13139   4.868   4.993   8.075 -1.6839 -2.9584 -0.0083
  123OSM   H14G13140   5.031   4.986   7.992  0.5066 -0.4463  0.3088
  123OSM   C15F13141   5.026   4.869   8.176 -0.6655  0.2521 -0.3783
  123OSM   H15F13142   5.109   4.802   8.145 -1.5477 -1.2956  0.5362
  123OSM   H15G13143   4.955   4.807   8.233  0.6214 -1.3473 -0.4504
  123OSM   C16F13144   5.081   4.991   8.262 -0.1121  0.3966  1.1187
  123OSM   H16F13145   5.002   5.067   8.276 -0.1411  0.5655  0.1167
  123OSM   H16G13146   5.159   5.058   8.220 -0.6465  1.1548  1.3173
  123OSM   C17F13147   5.140   4.948   8.391 -0.0603 -0.4556 -0.1747
  123OSM   H17F13148   5.228   4.882   8.377  0.0722 -0.4135  0.4241
  123OSM   H17G13149   5.058   4.894   8.443 -1.7286 -0.2910 -2.4609
  123OSM   C18F13150   5.178   5.073   8.478  0.6202  0.8374  0.1525
  123OSM   H18F13151   5.240   5.156   8.439 -0.2405  0.6914 -1.6781
  123OSM   H18G13152   5.209   5.043   8.580 -2.1333 -0.1116  0.7937
  123OSM   H18H13153   5.082   5.124   8.500  0.5686  0.6796  0.2904
  124OSM      N13154   1.727   2.073   6.126 -0.4294  0.3790 -0.1245
  124OSM    C1513155   1.826   1.974   6.073 -0.4658 -0.0595  0.3008
  124OSM   H15A13156   1.771   1.901   6.014  0.3183  0.7069 -1.4572
  124OSM   H15B13157   1.873   1.928   6.158 -0.8083 -0.0965  0.4727
  124OSM   H15C13158   1.902   2.026   6.016 -0.0104 -0.7045  0.3068
  124OSM    C1413159   1.789   2.179   6.212 -0.0355  0.4156 -0.4894
  124OSM   H14A13160   1.831   2.141   6.304  1.3801 -0.4752 -1.4483
  124OSM   H14B13161   1.728   2.266   6.229 -1.2744 -0.5330  0.0801
  124OSM   H14C13162   1.881   2.210   6.163  2.3780 -2.0282  2.0751
  124OSM    C1313163   1.653   2.129   6.013  0.5612 -0.2693 -0.2190
  124OSM   H13A13164   1.580   2.202   6.046 -1.4015 -2.0132 -0.5146
  124OSM   H13B13165   1.603   2.059   5.948  1.1970 -1.4723  0.5559
  124OSM   H13C13166   1.716   2.179   5.941  0.6760  0.9573  0.7072
  124OSM    C1213167   1.624   1.995   6.202  0.9345 -0.5084  0.4919
  124OSM   H12A13168   1.560   1.928   6.147 -1.2732  0.4929  1.7023
  124OSM   H12B13169   1.551   2.064   6.240  0.7195 -0.4086 -0.0852
  124OSM    C1113170   1.674   1.903   6.319  0.2665  0.5165  0.2981
  124OSM   H11A13171   1.588   1.869   6.381 -0.6492 -0.9873 -1.7175
  124OSM   H11B13172   1.732   1.971   6.385  1.7637  0.1704 -0.6383
  124OSM      P13173   1.660   1.659   6.239  0.0309  0.2158  0.1245
  124OSM    O1313174   1.541   1.698   6.158  0.0346  0.0282 -0.0698
  124OSM    O1413175   1.758   1.563   6.178 -0.7464 -0.1562  0.0275
  124OSM    O1113176   1.615   1.615   6.384 -0.5679  0.0486 -0.1440
  124OSM    O1213177   1.745   1.788   6.267  0.2687 -0.2830 -0.3588
  124OSM    C1S13178   1.722   1.591   6.476  0.1241  0.4028 -0.1494
  124OSM    H1S13179   1.794   1.676   6.474 -0.4695  0.9095 -2.4329
  124OSM    H1T13180   1.770   1.493   6.455 -3.1689 -1.2900 -0.3439
  124OSM     NF13181   1.787   1.579   6.707 -0.1632  0.2073  0.0728
  124OSM    HNF13182   1.804   1.494   6.757  2.0090 -0.6606 -1.8872
  124OSM    C2S13183   1.675   1.600   6.618  0.0884  0.3751  0.6366
  124OSM    H2S13184   1.635   1.701   6.637  0.0944  0.4451  0.2738
  124OSM    C3S13185   1.556   1.498   6.642 -0.2007 -0.7891 -0.3279
  124OSM    H3S13186   1.608   1.407   6.604  1.7738  0.4405 -0.6737
  124OSM     O313187   1.442   1.524   6.572  0.4840  0.4892  0.2747
  124OSM    HO313188   1.478   1.577   6.500 -0.5277  0.0881 -0.5692
  124OSM    C4S13189   1.518   1.467   6.787  0.9920  0.8686 -0.2100
  124OSM    H4S13190   1.490   1.555   6.847 -1.2852  0.5266 -0.6675
  124OSM    C5S13191   1.520   1.344   6.849 -0.3379 -0.0031 -0.2563
  124OSM    H5S13192   1.524   1.251   6.790  0.8964  0.2361 -0.5759
  124OSM    C6S13193   1.471   1.324   6.987  0.2187  0.2703 -0.7904
  124OSM    H6S13194   1.404   1.407   7.018  0.6562  0.7587 -1.1386
  124OSM    H6T13195   1.554   1.321   7.061  0.4927  1.1218 -1.0534
  124OSM    C7S13196   1.381   1.198   7.012  1.0989  0.3329  1.1862
  124OSM    H7S13197   1.445   1.118   6.970 -1.3187 -0.9730 -0.1813
  124OSM    H7T13198   1.291   1.200   6.948  1.9561  1.4972 -0.0389
  124OSM    C8S13199   1.355   1.153   7.160  0.3357  0.0017  0.5745
  124OSM    H8S13200   1.414   1.229   7.216  1.7084  0.3136 -1.1851
  124OSM    H8T13201   1.409   1.057   7.168  1.6132  0.6319 -0.2068
  124OSM    C9S13202   1.209   1.136   7.203 -0.6185 -0.4501 -0.1246
  124OSM    H9S13203   1.174   1.034   7.177  0.4259 -1.1626  1.1748
  124OSM    H9T13204   1.143   1.212   7.156 -0.4673 -0.7031 -0.7632
  124OSM   C10S13205   1.214   1.161   7.358  0.5885  0.0181 -0.5594
  124OSM   H10S13206   1.207   1.270   7.380 -1.1340 -0.3793  1.1211
  124OSM   H10T13207   1.304   1.111   7.400  0.7737  1.5690  0.9888
  124OSM   C11S13208   1.096   1.094   7.426 -0.0399  0.4933  0.4305
  124OSM   H11S13209   1.077   1.005   7.363  0.1399  2.6007 -2.8263
  124OSM   H11T13210   0.999   1.149   7.425  0.1662  1.0706  3.4089
  124OSM   C12S13211   1.133   1.042   7.564  0.1506  0.4582 -0.5872
  124OSM   H12S13212   1.216   0.969   7.553 -1.7233 -1.8942  0.0141
  124OSM   H12T13213   1.043   0.989   7.601 -0.8662  1.6665 -1.2331
  124OSM   C13S13214   1.183   1.149   7.657 -0.3178 -0.1962  0.1490
  124OSM   H13S13215   1.097   1.214   7.681 -1.5980 -1.6801 -0.2956
  124OSM   H13T13216   1.265   1.208   7.611  2.4659 -2.4050  1.9271
  124OSM   C14S13217   1.245   1.095   7.780  0.4089  0.3629 -0.0707
  124OSM   H14S13218   1.311   1.008   7.757  0.6848  0.4713  0.2887
  124OSM   H14T13219   1.163   1.073   7.851 -0.6828  0.0551 -1.3827
  124OSM   C15S13220   1.325   1.200   7.859 -0.0970  0.7789  0.9739
  124OSM   H15S13221   1.260   1.287   7.883 -0.5408  0.6209  0.3686
  124OSM   H15T13222   1.402   1.236   7.787 -1.0133 -0.8469 -0.8966
  124OSM   C16S13223   1.391   1.145   7.984 -0.2768 -0.0311  0.4154
  124OSM   H16S13224   1.455   1.058   7.957 -0.6905 -0.0283 -0.6003
  124OSM   H16T13225   1.304   1.107   8.040 -1.1211 -0.9071 -1.4031
  124OSM   C17S13226   1.474   1.247   8.067 -0.3287 -0.5893  1.1915
  124OSM   H17S13227   1.398   1.327   8.075 -0.4999 -0.1788 -2.4927
  124OSM   H17T13228   1.553   1.293   8.004 -1.7648  0.2075 -0.1021
  124OSM   C18S13229   1.537   1.196   8.196 -0.4817 -0.8018 -0.4370
  124OSM   H18S13230   1.469   1.178   8.281 -0.6962  1.2935 -0.1392
  124OSM   H18T13231   1.612   1.273   8.223  0.6588 -2.2637  0.7676
  124OSM   H18U13232   1.595   1.101   8.183  1.5910  0.1998  0.9977
  124OSM    C1F13233   1.880   1.675   6.724  0.0944  0.2166  0.7298
  124OSM     OF13234   1.894   1.767   6.651  0.2398 -0.6379 -0.3326
  124OSM    C2F13235   1.971   1.651   6.843  0.8566 -0.0527  0.0509
  124OSM    H2F13236   2.074   1.681   6.812  0.7297  1.5535  1.1379
  124OSM    H2G13237   1.979   1.543   6.867 -0.6207 -0.2851 -0.3998
  124OSM    C3F13238   1.949   1.727   6.967  0.0650  0.6622 -0.6679
  124OSM    H3F13239   1.966   1.834   6.942  1.1665  0.9416  1.1378
  124OSM    H3G13240   2.026   1.701   7.042 -0.6603  1.2945  0.3180
  124OSM    C4F13241   1.810   1.717   7.026 -0.1407 -0.5901 -0.4278
  124OSM    H4F13242   1.794   1.619   7.076 -2.9439 -1.7456 -3.1875
  124OSM    H4G13243   1.741   1.729   6.940 -0.5108  2.8811  0.2047
  124OSM    C5F13244   1.759   1.831   7.126 -0.5809 -0.5149  0.2885
  124OSM    H5F13245   1.797   1.928   7.088  0.0383 -0.5847  0.7092
  124OSM    H5G13246   1.796   1.824   7.230 -0.6257  1.0103  0.4371
  124OSM    C6F13247   1.607   1.828   7.136  0.3287  0.1437  0.9292
  124OSM    H6F13248   1.568   1.846   7.033 -1.0625  0.7968  1.5514
  124OSM    H6G13249   1.565   1.908   7.199  0.7859 -0.6899  2.3321
  124OSM    C7F13250   1.553   1.689   7.184  0.0674 -0.2006  1.2769
  124OSM    H7F13251   1.638   1.625   7.216 -2.0660 -3.1816  1.3766
  124OSM    H7G13252   1.505   1.626   7.106 -1.7387  0.5524  1.7262
  124OSM    C8F13253   1.465   1.686   7.310  0.1524 -1.4915  1.0673
  124OSM    H8F13254   1.377   1.750   7.287  1.3015 -0.2661 -0.1425
  124OSM    H8G13255   1.523   1.741   7.387 -0.0217  2.3938 -1.2915
  124OSM    C9F13256   1.409   1.554   7.340 -0.0146 -0.5830 -0.6415
  124OSM    H9F13257   1.388   1.498   7.247  2.8344 -2.6219 -0.2213
  124OSM   C10F13258   1.384   1.502   7.460  0.8476  0.4953 -0.2575
  124OSM   H10F13259   1.345   1.399   7.465 -1.4777  1.2120 -1.8901
  124OSM   C11F13260   1.404   1.562   7.595 -0.1454 -0.3697  0.4404
  124OSM   H11F13261   1.472   1.649   7.582  0.6477 -1.0959 -0.3656
  124OSM   H11G13262   1.455   1.488   7.660 -0.5327 -1.1249 -0.1024
  124OSM   C12F13263   1.269   1.610   7.657 -0.8603  0.7267 -0.1175
  124OSM   H12F13264   1.223   1.516   7.694 -0.2162  0.8288  1.0041
  124OSM   H12G13265   1.214   1.659   7.575 -1.5658 -0.1211 -0.1711
  124OSM   C13F13266   1.271   1.693   7.790  1.4532 -0.7383  0.6142
  124OSM   H13F13267   1.168   1.710   7.827  1.7100  2.1857  0.2586
  124OSM   H13G13268   1.312   1.793   7.762  1.3514 -0.4767  1.3909
  124OSM   C14F13269   1.349   1.621   7.899  0.0079 -0.3698 -0.5539
  124OSM   H14F13270   1.459   1.633   7.884  0.3634 -2.0876  0.4234
  124OSM   H14G13271   1.327   1.513   7.888  0.8688 -0.6526  0.3438
  124OSM   C15F13272   1.315   1.668   8.040 -0.2105 -0.2520 -0.4545
  124OSM   H15F13273   1.205   1.668   8.056 -0.0950 -1.6933  0.6054
  124OSM   H15G13274   1.343   1.773   8.061 -1.1620 -0.3130  1.3478
  124OSM   C16F13275   1.357   1.593   8.168 -0.3190  0.3241  0.1147
  124OSM   H16F13276   1.327   1.487   8.160 -0.5195  0.2764  1.2973
  124OSM   H16G13277   1.306   1.639   8.256  0.5788  1.2476  0.1728
  124OSM   C17F13278   1.511   1.604   8.197  0.2619 -0.2555 -0.4794
  124OSM   H17F13279   1.525   1.712   8.177  0.4831 -0.0284  0.8112
  124OSM   H17G13280   1.579   1.544   8.133 -1.9160 -3.4623 -0.0140
  124OSM   C18F13281   1.547   1.582   8.347  0.2230  0.6046 -0.1069
  124OSM   H18F13282   1.485   1.653   8.406  1.1706  1.6057 -0.2784
  124OSM   H18G13283   1.657   1.599   8.353  0.3282  0.4110 -1.2295
  124OSM   H18H13284   1.523   1.478   8.377 -1.9776  0.2249 -2.8390
  125OSM      N13285   0.897   4.011   6.074  0.2409 -0.3396  0.0207
  125OSM    C1513286   0.860   3.861   6.089 -0.0827 -0.3097  0.5826
  125OSM   H15A13287   0.786   3.835   6.015  0.2113 -0.0656  0.1945
  125OSM   H15B13288   0.821   3.821   6.181  0.7526  0.4919  1.3049
  125OSM   H15C13289   0.953   3.809   6.071  0.2388  0.2805  0.5059
  125OSM    C1413290   1.002   4.035   6.169 -0.1309  1.0519  0.1846
  125OSM   H14A13291   1.092   3.986   6.136  2.3938  4.7517  0.9621
  125OSM   H14B13292   0.993   3.999   6.270 -1.0756  0.8149  0.0279
  125OSM   H14C13293   1.036   4.138   6.165 -0.0936  1.0026 -1.7143
  125OSM    C1313294   0.946   4.026   5.934 -0.2836 -0.3483  0.7596
  125OSM   H13A13295   0.965   4.125   5.897  0.1507 -1.6300 -2.7991
  125OSM   H13B13296   0.900   3.968   5.856 -1.3137  0.9152  0.4098
  125OSM   H13C13297   1.049   3.992   5.929  1.2395  3.8755 -0.3473
  125OSM    C1213298   0.776   4.094   6.103  0.7739 -0.1035  0.0090
  125OSM   H12A13299   0.733   4.083   6.201 -0.4863  0.8342 -0.4121
  125OSM   H12B13300   0.700   4.061   6.033  0.4667 -2.8075  1.4777
  125OSM    C1113301   0.798   4.246   6.094  0.7551 -0.8844 -0.0242
  125OSM   H11A13302   0.703   4.302   6.083  1.4062  0.2306 -0.1090
  125OSM   H11B13303   0.858   4.277   6.006 -1.8488 -0.0317 -1.6007
  125OSM      P13304   0.766   4.316   6.340  0.0673 -0.0873  0.1457
  125OSM    O1313305   0.725   4.456   6.322  0.3488  0.4597 -0.0083
  125OSM    O1413306   0.660   4.217   6.339  0.1472  0.3288  0.8486
  125OSM    O1113307   0.853   4.292   6.460  0.3955 -0.1749  0.0385
  125OSM    O1213308   0.864   4.289   6.218  0.3422 -0.2150  1.0727
  125OSM    C1S13309   0.983   4.340   6.481  0.1363  0.3011  0.8346
  125OSM    H1S13310   0.994   4.448   6.456  0.8782  0.0248 -0.0579
  125OSM    H1T13311   1.066   4.285   6.432  0.5420  0.2981  1.5021
  125OSM     NF13312   1.146   4.402   6.667 -0.8663 -0.0707 -0.1145
  125OSM    HNF13313   1.227   4.344   6.672 -0.7593 -0.0465 -1.2327
  125OSM    C2S13314   1.021   4.337   6.635  0.5731 -0.3199  0.0515
  125OSM    H2S13315   0.948   4.389   6.701  0.2918 -0.7281  0.0695
  125OSM    C3S13316   1.007   4.193   6.681 -0.8275  0.1083 -0.4506
  125OSM    H3S13317   1.082   4.139   6.619  2.0829  1.6022  1.5237
  125OSM     O313318   0.889   4.127   6.646  0.2848  0.3916  0.4295
  125OSM    HO313319   0.864   4.182   6.572  0.7334  3.6586  2.5353
  125OSM    C4S13320   1.032   4.170   6.830  0.5380 -0.5842 -0.0414
  125OSM    H4S13321   0.972   4.243   6.886 -0.1944  0.8457 -2.5558
  125OSM    C5S13322   1.119   4.100   6.901 -0.2002 -0.7515  0.2694
  125OSM    H5S13323   1.185   4.027   6.852  1.2235  0.3297  0.4775
  125OSM    C6S13324   1.125   4.099   7.047  0.3890 -0.1521 -0.2408
  125OSM    H6S13325   1.226   4.066   7.081 -1.3074 -2.8831  2.7027
  125OSM    H6T13326   1.062   4.016   7.085 -1.5997  0.8100 -1.3101
  125OSM    C7S13327   1.094   4.233   7.113 -0.7780 -0.4612  0.0976
  125OSM    H7S13328   0.984   4.244   7.111 -0.5746  1.7784 -0.7217
  125OSM    H7T13329   1.143   4.318   7.061  1.0165 -1.0281  0.7613
  125OSM    C8S13330   1.158   4.230   7.251 -0.4525 -0.4238 -0.2257
  125OSM    H8S13331   1.117   4.324   7.293  0.8446  0.0385  0.0349
  125OSM    H8T13332   1.268   4.245   7.251 -0.5861  0.6752 -1.1330
  125OSM    C9S13333   1.109   4.111   7.340 -0.2419  0.1145  0.0403
  125OSM    H9S13334   1.147   4.019   7.291 -0.2562 -0.0757  0.3804
  125OSM    H9T13335   0.998   4.108   7.338 -0.3495  0.3967 -4.4069
  125OSM   C10S13336   1.170   4.101   7.485  0.0056  0.0269 -0.2643
  125OSM   H10S13337   1.279   4.118   7.477 -0.0491  1.3404  1.3300
  125OSM   H10T13338   1.143   4.000   7.523  0.1874  0.1410  0.1736
  125OSM   C11S13339   1.120   4.206   7.584 -0.4940  0.3968  0.0439
  125OSM   H11S13340   1.015   4.197   7.619 -0.5653 -1.5476 -0.5210
  125OSM   H11T13341   1.120   4.310   7.545 -1.0418  0.8722  1.2529
  125OSM   C12S13342   1.201   4.216   7.715 -0.5540 -0.2145  0.1931
  125OSM   H12S13343   1.173   4.311   7.765  1.2523  0.2084  0.4887
  125OSM   H12T13344   1.307   4.214   7.682 -1.0218  0.2346 -1.4332
  125OSM   C13S13345   1.183   4.104   7.811 -0.0556 -0.4065  0.4859
  125OSM   H13S13346   1.221   4.015   7.758 -0.4345 -0.0837 -0.3437
  125OSM   H13T13347   1.074   4.087   7.825 -0.1770 -1.3954 -1.4844
  125OSM   C14S13348   1.248   4.126   7.948  0.2885  0.7231 -0.0129
  125OSM   H14S13349   1.218   4.218   8.002 -1.4613 -0.1121  0.4952
  125OSM   H14T13350   1.357   4.143   7.931  0.1295  2.7000  0.6516
  125OSM   C15S13351   1.240   3.999   8.046  0.1612  0.6367 -0.2597
  125OSM   H15S13352   1.272   3.904   7.999 -2.7762 -2.2720  3.0837
  125OSM   H15T13353   1.137   3.984   8.084 -0.2585  1.3095 -1.1082
  125OSM   C16S13354   1.323   4.012   8.174 -0.2933  0.1552  0.0886
  125OSM   H16S13355   1.430   4.037   8.154  0.5099 -0.1686  3.2999
  125OSM   H16T13356   1.324   3.910   8.220 -2.4693  0.3247  0.6017
  125OSM   C17S13357   1.271   4.114   8.279 -0.0836 -0.3443 -0.0137
  125OSM   H17S13358   1.288   4.219   8.249 -0.5539  0.2152  1.5682
  125OSM   H17T13359   1.334   4.093   8.369  0.3898 -0.2626 -0.3242
  125OSM   C18S13360   1.124   4.096   8.307 -0.3037 -0.2189 -0.4760
  125OSM   H18S13361   1.089   4.159   8.392  0.4697 -2.1476  1.3650
  125OSM   H18T13362   1.111   3.990   8.340  1.8379  0.6684  4.0240
  125OSM   H18U13363   1.059   4.126   8.223 -2.4083  1.2082  1.5186
  125OSM    C1F13364   1.175   4.530   6.672 -0.4053 -0.2915  0.0843
  125OSM     OF13365   1.086   4.615   6.659  0.0864 -0.3678  0.0388
  125OSM    C2F13366   1.326   4.567   6.691  0.3619 -0.2827  0.4830
  125OSM    H2F13367   1.356   4.609   6.593  0.0972 -2.3200 -0.5341
  125OSM    H2G13368   1.380   4.472   6.712  1.9160  0.7625  1.3896
  125OSM    C3F13369   1.350   4.665   6.807  0.0637 -0.1892  0.4545
  125OSM    H3F13370   1.290   4.758   6.794  0.9366  0.3048 -0.0989
  125OSM    H3G13371   1.456   4.695   6.804  0.1144 -0.3660  0.4506
  125OSM    C4F13372   1.317   4.601   6.947  0.1286  0.6123 -0.0523
  125OSM    H4F13373   1.376   4.508   6.963 -2.4489 -1.1351  0.0478
  125OSM    H4G13374   1.209   4.583   6.967  0.1634  1.6957  1.2739
  125OSM    C5F13375   1.354   4.685   7.070 -0.4683 -0.1349 -0.2209
  125OSM    H5F13376   1.337   4.790   7.038  0.7130  0.6955  1.7125
  125OSM    H5G13377   1.459   4.668   7.104 -1.3700  1.3245  3.8419
  125OSM    C6F13378   1.278   4.646   7.198 -0.3962 -1.0922 -0.5739
  125OSM    H6F13379   1.328   4.556   7.237 -0.6544 -1.2782 -0.6678
  125OSM    H6G13380   1.170   4.625   7.180 -1.3793  3.0660 -0.5890
  125OSM    C7F13381   1.291   4.760   7.295  0.2340  0.5309 -0.4574
  125OSM    H7F13382   1.245   4.852   7.253 -3.0926 -0.6660  0.2521
  125OSM    H7G13383   1.397   4.782   7.321 -0.6255  0.7374  3.5724
  125OSM    C8F13384   1.208   4.725   7.423 -0.2279 -0.8320 -0.2418
  125OSM    H8F13385   1.104   4.717   7.384 -0.2060  0.7760 -0.6892
  125OSM    H8G13386   1.207   4.818   7.485  0.2767  0.4953 -2.1401
  125OSM    C9F13387   1.248   4.597   7.492  0.4852 -0.1266 -0.2014
  125OSM    H9F13388   1.205   4.514   7.433  1.2218  0.2472 -1.2897
  125OSM   C10F13389   1.296   4.567   7.610 -0.9253  0.0678 -0.1356
  125OSM   H10F13390   1.312   4.461   7.636  0.2275  0.1870 -0.2722
  125OSM   C11F13391   1.340   4.670   7.711 -0.0897 -0.1171 -0.6959
  125OSM   H11F13392   1.340   4.775   7.675  1.8675  1.9337  4.3394
  125OSM   H11G13393   1.447   4.650   7.735  0.9240  1.1862 -3.6485
  125OSM   C12F13394   1.258   4.682   7.844  0.0726  0.2427 -0.4341
  125OSM   H12F13395   1.279   4.585   7.894  1.3196 -0.1501 -1.6513
  125OSM   H12G13396   1.152   4.696   7.813 -0.1421 -2.1478 -0.9230
  125OSM   C13F13397   1.285   4.801   7.931 -0.1220 -0.1649  0.0841
  125OSM   H13F13398   1.211   4.820   8.011  2.2851  3.7200  1.6432
  125OSM   H13G13399   1.280   4.891   7.866 -2.7558 -0.8878 -0.8388
  125OSM   C14F13400   1.425   4.794   7.992 -0.6836  0.5426  0.2659
  125OSM   H14F13401   1.504   4.816   7.917  0.9489 -2.6631  0.8651
  125OSM   H14G13402   1.435   4.684   8.009  2.1399  0.3010 -2.1104
  125OSM   C15F13403   1.434   4.872   8.123  0.3821  0.6950 -0.3205
  125OSM   H15F13404   1.346   4.838   8.181  2.9615 -1.8564  2.4188
  125OSM   H15G13405   1.434   4.982   8.105 -2.5828  0.6097 -1.2880
  125OSM   C16F13406   1.542   4.817   8.219  0.5041 -0.4929 -0.0776
  125OSM   H16F13407   1.540   4.706   8.213  0.8827 -0.5213  0.3266
  125OSM   H16G13408   1.517   4.834   8.326  1.8248 -0.0726  0.1771
  125OSM   C17F13409   1.684   4.873   8.198  0.2205 -0.2829  0.0376
  125OSM   H17F13410   1.714   4.853   8.093  1.2459  0.1097  0.2484
  125OSM   H17G13411   1.761   4.821   8.258  0.4256  1.2891  1.2054
  125OSM   C18F13412   1.691   5.021   8.234  0.0095  0.5277  0.5212
  125OSM   H18F13413   1.658   5.048   8.337 -1.4474 -0.4436  0.3349
  125OSM   H18G13414   1.606   5.069   8.182 -0.9419 -1.5088  0.1181
  125OSM   H18H13415   1.788   5.066   8.201  0.3520  0.0515  0.8656
  126OSM      N13416   5.988   2.946   6.369 -0.7347  0.6383 -0.4006
  126OSM    C1513417   5.870   2.882   6.427 -0.3979  0.7893 -0.4777
  126OSM   H15A13418   5.803   2.867   6.344 -0.1555 -0.7636 -0.4229
  126OSM   H15B13419   5.819   2.935   6.505 -3.9530 -0.0319 -2.0670
  126OSM   H15C13420   5.901   2.789   6.475 -0.5901 -0.2803 -2.3361
  126OSM    C1413421   6.076   2.967   6.489 -0.2441 -0.7460  0.2490
  126OSM   H14A13422   6.171   3.007   6.456  0.6404 -1.5991  1.6359
  126OSM   H14B13423   6.099   2.884   6.554  2.8338  1.4675  2.2802
  126OSM   H14C13424   6.033   3.045   6.549  0.9668 -0.1264  0.3466
  126OSM    C1313425   6.053   2.851   6.271 -0.5244  0.3199 -0.0403
  126OSM   H13A13426   6.129   2.907   6.219 -1.4180 -0.3897 -2.2333
  126OSM   H13B13427   5.982   2.823   6.194  1.4661 -1.8797 -1.2095
  126OSM   H13C13428   6.100   2.760   6.305  2.0624  1.1553 -1.0839
  126OSM    C1213429   5.946   3.074   6.295 -0.0293 -0.2293  0.4949
  126OSM   H12A13430   5.868   3.061   6.222  0.2856 -0.0257  0.1236
  126OSM   H12B13431   6.038   3.107   6.249  1.4570 -1.5882  2.3153
  126OSM    C1113432   5.890   3.190   6.386  0.2064  0.7653  0.0931
  126OSM   H11A13433   5.812   3.134   6.442  1.1806  0.1609  0.8793
  126OSM   H11B13434   5.845   3.272   6.327 -0.0275  0.3557 -0.3052
  126OSM      P13435   5.938   3.326   6.598  0.3252  0.1162  0.7160
  126OSM    O1313436   6.041   3.427   6.634  0.0589  0.6533  0.2590
  126OSM    O1413437   5.801   3.379   6.581  0.2046 -0.1179 -0.6721
  126OSM    O1113438   5.942   3.207   6.698 -0.4691  0.5599 -0.3032
  126OSM    O1213439   5.989   3.253   6.469 -0.0863  0.1237 -0.2529
  126OSM    C1S13440   6.039   3.208   6.806 -0.4152  0.0083 -0.2698
  126OSM    H1S13441   6.060   3.310   6.843 -0.0249  0.2745 -1.2018
  126OSM    H1T13442   6.127   3.149   6.773 -0.7199 -0.5037 -0.1935
  126OSM     NF13443   6.069   3.169   7.044  0.1693 -0.3092  0.2497
  126OSM    HNF13444   6.161   3.130   7.050  0.1694 -0.1918  1.4314
  126OSM    C2S13445   5.986   3.131   6.929 -0.1803 -0.3241 -0.2221
  126OSM    H2S13446   5.878   3.157   6.938 -0.1006  0.2135 -0.7327
  126OSM    C3S13447   5.975   2.983   6.891 -0.7350 -0.0441 -0.2354
  126OSM    H3S13448   6.076   2.943   6.868 -0.3799  0.4217  0.4797
  126OSM     O313449   5.902   2.954   6.771  0.4027  0.5806  0.5280
  126OSM    HO313450   5.906   3.038   6.724  0.3567  0.3295  0.0715
  126OSM    C4S13451   5.923   2.911   7.015  0.6032  0.9190  0.9726
  126OSM    H4S13452   6.006   2.892   7.085  0.5336 -0.1953  0.7733
  126OSM    C5S13453   5.797   2.869   7.039  0.9084 -0.1859 -0.7088
  126OSM    H5S13454   5.716   2.882   6.966  0.9834  0.8274 -0.6202
  126OSM    C6S13455   5.752   2.803   7.172 -0.8406  0.2710 -0.5348
  126OSM    H6S13456   5.711   2.701   7.156 -1.1869  0.0687  1.3626
  126OSM    H6T13457   5.672   2.870   7.210 -0.9527 -0.3429  0.3442
  126OSM    C7S13458   5.862   2.808   7.283  0.4147 -0.1227  0.1194
  126OSM    H7S13459   5.886   2.917   7.288  1.5301 -0.3470 -0.0678
  126OSM    H7T13460   5.957   2.760   7.251  0.1474 -0.5768 -0.0038
  126OSM    C8S13461   5.823   2.747   7.422  0.8066  0.1943 -0.1815
  126OSM    H8S13462   5.798   2.641   7.396  0.7830 -0.1947  1.3481
  126OSM    H8T13463   5.734   2.799   7.464  0.9883  0.6855 -0.3955
  126OSM    C9S13464   5.931   2.748   7.533  0.3243 -0.3800 -0.2825
  126OSM    H9S13465   5.962   2.853   7.544 -1.9310  0.2666  0.5141
  126OSM    H9T13466   6.017   2.683   7.505  0.1635 -1.6071  1.8462
  126OSM   C10S13467   5.867   2.710   7.666 -0.3200  0.5032 -0.5675
  126OSM   H10S13468   5.862   2.599   7.678  2.0123  0.5361  1.5482
  126OSM   H10T13469   5.766   2.754   7.668 -0.0971  0.9852  0.4150
  126OSM   C11S13470   5.955   2.761   7.785  0.1147  0.1036  0.3174
  126OSM   H11S13471   5.985   2.866   7.768 -1.1511  0.5371  0.6775
  126OSM   H11T13472   6.053   2.711   7.765  0.2494  0.3700  0.3145
  126OSM   C12S13473   5.909   2.727   7.928 -0.1899  0.1208  0.3708
  126OSM   H12S13474   5.884   2.618   7.928 -0.1144  0.0866  1.8983
  126OSM   H12T13475   5.813   2.780   7.939 -0.5788 -0.5922  0.4527
  126OSM   C13S13476   6.004   2.749   8.044  0.2690  0.3444  0.1191
  126OSM   H13S13477   6.030   2.856   8.054  0.6387  0.2281  0.4298
  126OSM   H13T13478   6.100   2.702   8.013 -0.3469 -1.0293  0.2223
  126OSM   C14S13479   5.944   2.719   8.181 -0.2680 -0.5229 -0.3349
  126OSM   H14S13480   5.912   2.613   8.191 -0.3814 -0.4511  0.1066
  126OSM   H14T13481   5.847   2.774   8.185  0.2840  0.4439  0.0390
  126OSM   C15S13482   6.009   2.776   8.312  0.3590 -0.4923  0.4721
  126OSM   H15S13483   6.117   2.750   8.310  0.0150 -2.0430  0.5616
  126OSM   H15T13484   5.969   2.729   8.404 -1.1628 -0.6075 -0.2191
  126OSM   C16S13485   5.983   2.925   8.330 -0.0959  0.3234  0.1077
  126OSM   H16S13486   5.873   2.934   8.340 -0.3281 -2.6066  1.0700
  126OSM   H16T13487   6.013   2.973   8.234  1.0541  2.4222  1.4410
  126OSM   C17S13488   6.061   3.004   8.443  0.5580 -0.0004  0.3440
  126OSM   H17S13489   6.098   2.922   8.508  1.6692  1.2195  1.2929
  126OSM   H17T13490   5.987   3.072   8.489 -1.3357 -2.2198  0.8003
  126OSM   C18S13491   6.179   3.086   8.400  0.0839 -0.1643 -0.5043
  126OSM   H18S13492   6.238   3.104   8.493 -3.7766  1.1571  1.9445
  126OSM   H18T13493   6.144   3.183   8.358  1.0083  0.0853 -0.7148
  126OSM   H18U13494   6.232   3.035   8.317  0.3360  3.0569 -2.4925
  126OSM    C1F13495   6.047   3.283   7.107 -0.5768 -1.2661 -1.0398
  126OSM     OF13496   5.953   3.349   7.067  0.0588 -0.0006  0.3461
  126OSM    C2F13497   6.144   3.328   7.220  0.2716  0.1755  0.9178
  126OSM    H2F13498   6.223   3.392   7.175 -1.4139  1.4909 -0.3047
  126OSM    H2G13499   6.190   3.238   7.265  0.2503 -1.0717 -1.4265
  126OSM    C3F13500   6.079   3.424   7.320 -0.7466 -0.6162 -0.2137
  126OSM    H3F13501   5.980   3.391   7.358  0.2559 -0.3390  2.9127
  126OSM    H3G13502   6.052   3.518   7.266 -0.7334 -1.3615 -1.5446
  126OSM    C4F13503   6.181   3.447   7.441  0.0351  0.3761 -0.2438
  126OSM    H4F13504   6.284   3.469   7.405  0.3833  0.5833  0.8499
  126OSM    H4G13505   6.186   3.345   7.485  0.3137  1.3141  2.0071
  126OSM    C5F13506   6.139   3.541   7.557 -0.2089 -0.1766 -0.5266
  126OSM    H5F13507   6.159   3.649   7.537  2.9920 -0.2867  1.4314
  126OSM    H5G13508   6.194   3.525   7.652 -1.9432 -1.6327  0.2909
  126OSM    C6F13509   5.985   3.543   7.597 -0.0086 -0.0937 -0.6519
  126OSM    H6F13510   5.954   3.447   7.643  1.6601  0.1816  1.1643
  126OSM    H6G13511   5.926   3.558   7.504 -1.2003  0.5938  0.1854
  126OSM    C7F13512   5.935   3.644   7.696 -0.8215  0.2031  0.1234
  126OSM    H7F13513   5.837   3.689   7.667 -1.0326 -0.4809 -0.2440
  126OSM    H7G13514   6.007   3.728   7.696  1.0801 -1.3348 -0.8988
  126OSM    C8F13515   5.920   3.591   7.838  0.3132  0.9123  0.2498
  126OSM    H8F13516   6.016   3.552   7.879 -0.8026 -1.3693  0.8593
  126OSM    H8G13517   5.854   3.501   7.840  0.6784  0.6281 -0.3255
  126OSM    C9F13518   5.862   3.693   7.938 -0.8944  0.4222 -0.0602
  126OSM    H9F13519   5.753   3.683   7.950 -0.9804  1.2848 -0.0784
  126OSM   C10F13520   5.925   3.794   7.992 -0.1854 -0.1097  0.3471
  126OSM   H10F13521   5.860   3.860   8.052 -0.2398 -0.7940  1.0718
  126OSM   C11F13522   6.075   3.845   7.975 -0.2130  0.1468  0.9687
  126OSM   H11F13523   6.091   3.953   7.954  0.9108  0.2647  2.2583
  126OSM   H11G13524   6.137   3.786   7.905  2.2634  1.4367  1.9713
  126OSM   C12F13525   6.162   3.808   8.103 -0.2309 -0.0907  0.1561
  126OSM   H12F13526   6.267   3.800   8.068 -0.4113 -1.8603 -0.0338
  126OSM   H12G13527   6.126   3.707   8.132 -0.0379 -0.3551 -0.5137
  126OSM   C13F13528   6.140   3.907   8.219 -0.4154 -0.1175  0.1567
  126OSM   H13F13529   6.034   3.907   8.252 -0.6118 -0.9245 -0.4263
  126OSM   H13G13530   6.163   4.013   8.196 -0.4633  0.0530  0.8773
  126OSM   C14F13531   6.214   3.854   8.341  0.1182  0.3594 -0.4231
  126OSM   H14F13532   6.230   3.930   8.420  0.5975 -0.3282  0.1470
  126OSM   H14G13533   6.315   3.830   8.300 -0.1668 -0.4655 -0.6617
  126OSM   C15F13534   6.155   3.732   8.411  0.1670 -0.3844  0.2597
  126OSM   H15F13535   6.144   3.643   8.344 -0.4713 -0.3959  0.3768
  126OSM   H15G13536   6.050   3.762   8.431  1.2740  3.4359  1.1596
  126OSM   C16F13537   6.219   3.695   8.545  0.6570  0.1069  0.2530
  126OSM   H16F13538   6.181   3.754   8.631  0.3186 -1.0166  0.8995
  126OSM   H16G13539   6.323   3.733   8.539  0.1138  1.7229  0.6222
  126OSM   C17F13540   6.202   3.548   8.577  0.1091  0.5505 -0.0366
  126OSM   H17F13541   6.094   3.524   8.571 -0.0769  1.1785  0.7062
  126OSM   H17G13542   6.227   3.530   8.684 -2.2934 -1.1208  0.3302
  126OSM   C18F13543   6.280   3.441   8.493  0.0080 -0.7148 -0.6964
  126OSM   H18F13544   6.284   3.342   8.545 -0.6586 -3.3303 -5.0738
  126OSM   H18G13545   6.385   3.469   8.469 -0.7246  1.4273 -1.6695
  126OSM   H18H13546   6.240   3.414   8.393  2.5895 -1.7117 -1.5468
  127OSM      N13547   6.179   1.897   5.831 -0.3166 -0.2247  0.4275
  127OSM    C1513548   6.042   1.909   5.778 -0.3343 -0.0051 -0.1724
  127OSM   H15A13549   5.966   1.945   5.846 -0.8428 -2.7274  0.8198
  127OSM   H15B13550   6.004   1.813   5.748 -2.1795  0.5719  0.2022
  127OSM   H15C13551   6.051   1.967   5.688  0.9977  0.8848  0.5091
  127OSM    C1413552   6.274   1.857   5.719  0.3805 -0.7173  0.0419
  127OSM   H14A13553   6.378   1.878   5.737 -0.0562  1.2530  0.5368
  127OSM   H14B13554   6.240   1.917   5.635 -0.6464 -1.3862 -0.0475
  127OSM   H14C13555   6.263   1.753   5.695 -1.8600 -0.0251 -2.5164
  127OSM    C1313556   6.215   2.042   5.866  0.5178  0.4472  0.0117
  127OSM   H13A13557   6.157   2.079   5.948  0.5222  0.2034  0.1265
  127OSM   H13B13558   6.197   2.112   5.786 -2.0393 -0.4708 -0.3015
  127OSM   H13C13559   6.314   2.047   5.908 -0.1429  1.5696  1.5014
  127OSM    C1213560   6.199   1.805   5.943 -0.5327 -0.1756  0.1620
  127OSM   H12A13561   6.297   1.815   5.986 -0.8748  0.2399  0.8642
  127OSM   H12B13562   6.203   1.706   5.899 -0.8044 -0.3565  0.5389
  127OSM    C1113563   6.105   1.797   6.062  0.5435  0.5808 -0.0265
  127OSM   H11A13564   6.125   1.700   6.113 -0.2216 -0.6485 -1.9746
  127OSM   H11B13565   5.999   1.796   6.027  0.5261 -0.6217  0.0015
  127OSM      P13566   6.250   1.926   6.237  0.0724 -0.4190  0.3422
  127OSM    O1313567   6.363   1.860   6.176 -0.2617 -0.2207  0.1013
  127OSM    O1413568   6.269   2.071   6.269  0.2319 -0.6536 -0.5040
  127OSM    O1113569   6.219   1.835   6.357  0.9333  0.1230  0.0425
  127OSM    O1213570   6.121   1.908   6.144  0.5271 -0.1122 -0.0776
  127OSM    C1S13571   6.154   1.872   6.472  0.3713 -0.5718  0.1061
  127OSM    H1S13572   6.057   1.817   6.469 -0.5853  1.0537  0.1377
  127OSM    H1T13573   6.132   1.980   6.484  0.8522 -0.3341 -0.9954
  127OSM     NF13574   6.171   1.900   6.725 -0.0936  0.0930 -0.5113
  127OSM    HNF13575   6.217   1.973   6.775  0.5080 -0.3514 -0.4024
  127OSM    C2S13576   6.237   1.840   6.604 -0.1047  0.1191 -0.7487
  127OSM    H2S13577   6.241   1.730   6.620 -0.0449  0.2834  0.5224
  127OSM    C3S13578   6.389   1.894   6.586  0.0332 -0.0275 -0.0028
  127OSM    H3S13579   6.391   1.993   6.535 -1.6227  0.4833  0.8356
  127OSM     O313580   6.458   1.809   6.494  0.7862  0.2844 -0.3051
  127OSM    HO313581   6.390   1.748   6.463  0.6469 -0.4085  1.2937
  127OSM    C4S13582   6.456   1.903   6.715 -0.2766  0.5864 -0.1818
  127OSM    H4S13583   6.436   1.996   6.770  0.6356 -0.3101  1.7853
  127OSM    C5S13584   6.528   1.803   6.771 -0.1421 -1.0812  1.2151
  127OSM    H5S13585   6.541   1.707   6.720 -0.1408 -0.0200 -0.9083
  127OSM    C6S13586   6.597   1.815   6.903  0.1344  0.3209 -0.0781
  127OSM    H6S13587   6.698   1.769   6.892 -0.4558 -1.3238  0.9695
  127OSM    H6T13588   6.531   1.755   6.970  1.0511  0.3919  0.9205
  127OSM    C7S13589   6.612   1.948   6.974  0.3182  0.5570 -0.2780
  127OSM    H7S13590   6.511   1.984   7.001  0.2918  0.0678  0.2725
  127OSM    H7T13591   6.655   2.018   6.898  0.4355 -0.5276 -1.2434
  127OSM    C8S13592   6.695   1.940   7.099 -0.2905  0.2840 -0.8842
  127OSM    H8S13593   6.803   1.926   7.079  0.5597 -0.7403  3.4014
  127OSM    H8T13594   6.670   1.853   7.164 -1.3356  1.3023  0.1312
  127OSM    C9S13595   6.677   2.073   7.178 -1.1100  0.2754  0.6415
  127OSM    H9S13596   6.570   2.089   7.203 -1.6458  0.0705 -1.3089
  127OSM    H9T13597   6.700   2.156   7.108 -0.1849 -1.0796 -0.7176
  127OSM   C10S13598   6.745   2.086   7.312  0.1327 -0.0166 -0.1078
  127OSM   H10S13599   6.852   2.088   7.282  0.4633  1.9309  1.0452
  127OSM   H10T13600   6.734   1.994   7.373 -1.5397 -1.5739 -2.5488
  127OSM   C11S13601   6.714   2.207   7.398  0.7839 -0.4628  0.1476
  127OSM   H11S13602   6.610   2.196   7.436  0.3086 -2.9762 -1.6413
  127OSM   H11T13603   6.706   2.297   7.334 -0.4121 -0.4380  0.3034
  127OSM   C12S13604   6.813   2.238   7.513 -0.2166 -0.7572 -0.2791
  127OSM   H12S13605   6.850   2.142   7.556  2.3911  0.7512  1.0552
  127OSM   H12T13606   6.765   2.291   7.597  1.5335 -1.0910  0.9674
  127OSM   C13S13607   6.932   2.326   7.470  1.0856  0.6641 -0.1079
  127OSM   H13S13608   6.893   2.426   7.440 -2.3965 -0.0378  1.5583
  127OSM   H13T13609   6.990   2.301   7.378  2.1968  1.3021  0.4023
  127OSM   C14S13610   7.029   2.348   7.585  0.7240  0.3550 -0.4377
  127OSM   H14S13611   7.138   2.358   7.563  0.4637  6.6865 -0.7134
  127OSM   H14T13612   7.032   2.258   7.650 -2.5511  0.5392  0.1536
  127OSM   C15S13613   6.984   2.480   7.656 -0.2824 -0.0169 -0.0031
  127OSM   H15S13614   6.879   2.472   7.693 -1.2924  1.4341 -2.3014
  127OSM   H15T13615   6.973   2.570   7.592 -0.5287 -0.0438  0.0014
  127OSM   C16S13616   7.086   2.513   7.774 -0.3232  0.5261  0.5491
  127OSM   H16S13617   7.186   2.524   7.726 -1.0034 -1.0051 -1.3381
  127OSM   H16T13618   7.091   2.428   7.845  2.6785  1.6751  1.9190
  127OSM   C17S13619   7.060   2.645   7.842 -0.4184 -0.0719  0.3956
  127OSM   H17S13620   7.110   2.645   7.941  0.6056  1.5567 -0.0904
  127OSM   H17T13621   6.951   2.649   7.864 -0.6027 -0.0982 -0.4541
  127OSM   C18S13622   7.112   2.757   7.757  0.2838  0.3513 -0.1225
  127OSM   H18S13623   7.221   2.742   7.773 -0.3697 -3.2158  2.0809
  127OSM   H18T13624   7.083   2.859   7.790 -1.0727 -0.5903  1.7718
  127OSM   H18U13625   7.078   2.745   7.652  1.5942 -1.6149 -0.3706
  127OSM    C1F13626   6.056   1.871   6.772  0.4370  0.4239  0.5214
  127OSM     OF13627   5.983   1.796   6.709 -0.7770  0.1899 -0.0806
  127OSM    C2F13628   6.026   1.915   6.908  0.7786  0.5033 -0.7318
  127OSM    H2F13629   5.968   2.009   6.899  0.2816  0.4020  0.9828
  127OSM    H2G13630   6.123   1.935   6.958 -0.9043  1.6274  2.3557
  127OSM    C3F13631   5.949   1.815   7.002 -0.0473  0.0295  0.4190
  127OSM    H3F13632   6.009   1.723   7.019 -1.1376 -1.0836 -1.4921
  127OSM    H3G13633   5.853   1.794   6.950 -0.0263  2.3568 -0.6672
  127OSM    C4F13634   5.903   1.856   7.140 -0.1740  0.2663 -0.8259
  127OSM    H4F13635   5.819   1.799   7.186  0.3168  0.0625 -0.1628
  127OSM    H4G13636   5.879   1.964   7.126 -1.3990  0.2151  0.6537
  127OSM    C5F13637   6.008   1.858   7.256 -0.3355  0.9021  0.5608
  127OSM    H5F13638   6.034   1.752   7.275  0.7946  1.5369  3.0952
  127OSM    H5G13639   5.963   1.910   7.344  1.2706  2.7029  0.3852
  127OSM    C6F13640   6.136   1.931   7.228  0.1179  0.0294 -0.0564
  127OSM    H6F13641   6.105   2.024   7.176 -1.5073  1.1135  2.6468
  127OSM    H6G13642   6.209   1.865   7.175  1.6749  1.3263  0.3974
  127OSM    C7F13643   6.226   1.976   7.347 -0.5198  0.1141 -0.8196
  127OSM    H7F13644   6.161   2.007   7.432 -2.6090 -0.3504 -2.1789
  127OSM    H7G13645   6.296   2.057   7.316  1.1884 -0.1432  2.0767
  127OSM    C8F13646   6.326   1.871   7.399  0.0297  0.1549 -0.2727
  127OSM    H8F13647   6.405   1.855   7.323  0.7382  2.7715 -0.1613
  127OSM    H8G13648   6.267   1.777   7.396 -0.1091  0.2296  0.0804
  127OSM    C9F13649   6.382   1.909   7.532 -0.3243  1.3088 -0.1359
  127OSM    H9F13650   6.467   1.978   7.518  0.8626 -0.5236 -2.4949
  127OSM   C10F13651   6.345   1.862   7.654  0.1554  0.2723  0.3285
  127OSM   H10F13652   6.390   1.904   7.745 -0.0155 -0.0592  0.5682
  127OSM   C11F13653   6.247   1.757   7.694  0.0416  0.6367 -0.7068
  127OSM   H11F13654   6.217   1.697   7.605 -0.8760 -0.6995  0.4712
  127OSM   H11G13655   6.160   1.809   7.739  0.0000  1.2776 -1.4982
  127OSM   C12F13656   6.296   1.651   7.797 -0.2496 -0.4514 -0.2985
  127OSM   H12F13657   6.378   1.587   7.758  0.4103  0.6410 -0.7677
  127OSM   H12G13658   6.224   1.569   7.812 -0.8721  0.2487  0.6849
  127OSM   C13F13659   6.332   1.713   7.940 -0.4500  0.7910 -0.1036
  127OSM   H13F13660   6.397   1.803   7.935  0.1196  0.4855  1.4853
  127OSM   H13G13661   6.386   1.634   7.997  0.4862  2.4540  1.4001
  127OSM   C14F13662   6.208   1.746   8.028  0.7103  0.1011  0.8215
  127OSM   H14F13663   6.141   1.658   8.039 -0.0089  0.5010 -0.1525
  127OSM   H14G13664   6.148   1.818   7.968 -0.4446 -1.7339 -0.3270
  127OSM   C15F13665   6.241   1.811   8.166  0.2991 -0.2735  0.8169
  127OSM   H15F13666   6.147   1.863   8.193 -0.3482  0.0343 -1.7434
  127OSM   H15G13667   6.324   1.883   8.150  1.5776 -1.7887  0.3944
  127OSM   C16F13668   6.280   1.712   8.275 -0.2740  0.0281  0.2705
  127OSM   H16F13669   6.363   1.653   8.230 -0.2351 -0.3309  0.7914
  127OSM   H16G13670   6.200   1.639   8.299 -0.3446  0.3687  1.0994
  127OSM   C17F13671   6.330   1.772   8.407  0.1067 -0.2502 -0.3042
  127OSM   H17F13672   6.237   1.802   8.460  0.4908 -0.0660  0.2669
  127OSM   H17G13673   6.388   1.864   8.387 -1.0471  0.7716  0.8286
  127OSM   C18F13674   6.394   1.668   8.489  0.9163 -0.1971  0.6519
  127OSM   H18F13675   6.322   1.584   8.486  0.0715  0.4635  1.6227
  127OSM   H18G13676   6.411   1.709   8.592  0.9455 -0.8526  0.9093
  127OSM   H18H13677   6.493   1.644   8.445  1.7412  0.0836  2.2739
  128OSM      N13678   2.948   4.690   6.316  0.0683  0.5688  0.3637
  128OSM    C1513679   2.961   4.581   6.416  0.6774  0.0650  0.3411
  128OSM   H15A13680   2.871   4.561   6.472 -1.1992  1.7783 -1.8673
  128OSM   H15B13681   3.048   4.589   6.479  0.3758  1.7059  0.5832
  128OSM   H15C13682   2.980   4.492   6.358 -2.4132 -0.4420 -0.0467
  128OSM    C1413683   2.930   4.818   6.392  0.0200 -0.4110  1.0630
  128OSM   H14A13684   2.885   4.896   6.332 -0.5700 -3.0849 -2.2632
  128OSM   H14B13685   3.027   4.853   6.423  1.1206 -4.1670  2.3277
  128OSM   H14C13686   2.865   4.804   6.477 -1.5962  2.0844  0.3543
  128OSM    C1313687   3.060   4.708   6.229  0.2237 -0.2505  0.3702
  128OSM   H13A13688   3.147   4.741   6.284 -0.6267 -1.5939  2.6381
  128OSM   H13B13689   3.040   4.783   6.154 -0.3993 -0.6547  0.1188
  128OSM   H13C13690   3.094   4.619   6.177  3.8621  0.0274  1.9667
  128OSM    C1213691   2.823   4.664   6.233 -0.7517 -0.0559 -0.9000
  128OSM   H12A13692   2.802   4.733   6.153 -0.8073  1.0474  0.0519
  128OSM   H12B13693   2.742   4.697   6.296  0.6979  1.5577  0.1772
  128OSM    C1113694   2.820   4.514   6.186  0.8442 -0.1850  0.1642
  128OSM   H11A13695   2.921   4.477   6.155  0.4217  0.2730 -1.8835
  128OSM   H11B13696   2.756   4.510   6.096 -0.6351 -2.4958  1.2176
  128OSM      P13697   2.609   4.436   6.329 -0.0099  0.3869 -0.1169
  128OSM    O1313698   2.585   4.565   6.395  0.2872  0.0899 -0.0691
  128OSM    O1413699   2.519   4.411   6.214 -0.3672 -0.4725 -0.1222
  128OSM    O1113700   2.597   4.316   6.433 -0.0118  0.1536 -0.2157
  128OSM    O1213701   2.762   4.425   6.283  0.5665 -0.1763  0.1117
  128OSM    C1S13702   2.690   4.304   6.547 -0.2309 -0.4180  0.1335
  128OSM    H1S13703   2.792   4.337   6.521 -0.4046  0.1607  0.1808
  128OSM    H1T13704   2.695   4.196   6.576  0.9786 -0.3022  0.3983
  128OSM     NF13705   2.744   4.362   6.766 -1.0154 -0.9351 -0.6795
  128OSM    HNF13706   2.734   4.302   6.845  1.7685  0.0906  0.5460
  128OSM    C2S13707   2.639   4.377   6.673 -0.3566  0.2281  0.0547
  128OSM    H2S13708   2.622   4.484   6.647  0.0691  0.9760  2.5338
  128OSM    C3S13709   2.499   4.314   6.712  1.1154  0.6979 -0.4384
  128OSM    H3S13710   2.506   4.203   6.716  1.1344  0.6534 -1.4206
  128OSM     O313711   2.402   4.337   6.612  0.7415 -0.3105  0.2869
  128OSM    HO313712   2.455   4.335   6.532  0.8814 -1.9305  0.3926
  128OSM    C4S13713   2.452   4.354   6.849 -0.2197 -0.1377  0.0345
  128OSM    H4S13714   2.473   4.285   6.932  0.7756 -1.9516 -1.6296
  128OSM    C5S13715   2.401   4.471   6.889  0.6432 -0.2936 -0.2018
  128OSM    H5S13716   2.387   4.542   6.807  2.2571 -0.8861 -1.0277
  128OSM    C6S13717   2.360   4.515   7.026 -0.3700 -0.3653 -0.1625
  128OSM    H6S13718   2.349   4.626   7.026 -2.1823 -0.4834 -2.2100
  128OSM    H6T13719   2.439   4.488   7.100  0.3074 -1.3243 -1.1921
  128OSM    C7S13720   2.228   4.457   7.077 -0.2584  0.3922 -0.6809
  128OSM    H7S13721   2.236   4.350   7.105  1.0496  1.2249  2.5654
  128OSM    H7T13722   2.153   4.469   6.996 -1.5467 -0.7759  0.2939
  128OSM    C8S13723   2.185   4.524   7.209 -0.1286  0.6598 -0.0258
  128OSM    H8S13724   2.077   4.501   7.220 -0.3208  1.4483 -0.2204
  128OSM    H8T13725   2.204   4.634   7.213  1.2077  0.4464  3.6503
  128OSM    C9S13726   2.261   4.461   7.328  0.6798  0.2012  0.3767
  128OSM    H9S13727   2.370   4.476   7.310  0.6105 -0.5682 -0.8927
  128OSM    H9T13728   2.237   4.352   7.334 -1.2469  0.5778  0.2158
  128OSM   C10S13729   2.221   4.514   7.465  0.6166  0.3901  0.2351
  128OSM   H10S13730   2.110   4.502   7.471  0.8072 -2.0848 -0.2499
  128OSM   H10T13731   2.241   4.623   7.460 -0.7504  0.8312  2.8408
  128OSM   C11S13732   2.291   4.444   7.579 -0.3077 -0.2121 -0.2904
  128OSM   H11S13733   2.396   4.479   7.573 -0.2241 -0.3402  0.3556
  128OSM   H11T13734   2.269   4.335   7.575  0.4614 -0.3707 -0.3663
  128OSM   C12S13735   2.242   4.482   7.718  0.5883  0.2239  0.1294
  128OSM   H12S13736   2.147   4.430   7.745  0.4680  0.9737  1.2415
  128OSM   H12T13737   2.212   4.589   7.724  0.5368  0.1585  1.3570
  128OSM   C13S13738   2.346   4.428   7.823 -0.4771 -0.9372 -0.1690
  128OSM   H13S13739   2.447   4.466   7.801 -1.1786  0.3810 -1.2432
  128OSM   H13T13740   2.363   4.318   7.821 -0.0901 -0.8750 -0.3268
  128OSM   C14S13741   2.313   4.458   7.973  0.4906  0.5301  0.0919
  128OSM   H14S13742   2.371   4.382   8.030  0.8701 -0.8039 -1.9652
  128OSM   H14T13743   2.208   4.425   7.988  0.6194 -0.0758 -0.2741
  128OSM   C15S13744   2.342   4.599   8.021 -0.2558 -0.3651  0.6827
  128OSM   H15S13745   2.283   4.676   7.965  3.0431  0.5316 -1.8674
  128OSM   H15T13746   2.451   4.616   8.019 -0.1688 -0.9149 -0.0115
  128OSM   C16S13747   2.310   4.620   8.174 -0.3345  0.1901 -0.6223
  128OSM   H16S13748   2.366   4.708   8.212 -0.6342  1.3042 -2.6311
  128OSM   H16T13749   2.372   4.544   8.227  1.6223  3.0590  1.4926
  128OSM   C17S13750   2.167   4.628   8.220 -0.0066 -0.5852  0.9169
  128OSM   H17S13751   2.097   4.549   8.186 -4.6017  3.0782  0.7775
  128OSM   H17T13752   2.130   4.723   8.175 -0.4959 -1.4133 -0.4905
  128OSM   C18S13753   2.169   4.631   8.373  0.8875 -0.2408  0.2593
  128OSM   H18S13754   2.255   4.691   8.412  0.7690  0.4470 -0.5005
  128OSM   H18T13755   2.157   4.533   8.425 -0.9615 -0.7367 -1.0058
  128OSM   H18U13756   2.087   4.701   8.400  0.6235 -0.2747 -0.4380
  128OSM    C1F13757   2.849   4.447   6.766 -0.3515  0.0467  1.0338
  128OSM     OF13758   2.847   4.532   6.682 -0.4525  0.5788 -0.8441
  128OSM    C2F13759   2.957   4.429   6.865  0.7297  0.1598  0.4415
  128OSM    H2F13760   3.016   4.341   6.830 -1.4334 -0.4938 -1.8440
  128OSM    H2G13761   2.905   4.401   6.960  0.3278 -0.6412 -0.0035
  128OSM    C3F13762   3.057   4.548   6.889  0.7026 -0.6751  0.6452
  128OSM    H3F13763   3.003   4.641   6.918 -0.9395 -1.3867 -0.0038
  128OSM    H3G13764   3.126   4.564   6.803  0.2219 -1.5549  0.0729
  128OSM    C4F13765   3.147   4.510   7.008  0.5728 -0.2131  0.2634
  128OSM    H4F13766   3.207   4.602   7.026 -2.0933  2.3954 -2.9683
  128OSM    H4G13767   3.216   4.431   6.972  0.9979 -0.2116  1.0391
  128OSM    C5F13768   3.071   4.475   7.135 -0.1901  0.0186  0.0434
  128OSM    H5F13769   3.041   4.368   7.134  0.6525 -0.2302  0.1748
  128OSM    H5G13770   2.985   4.541   7.157 -0.0655  0.4992 -0.8562
  128OSM    C6F13771   3.155   4.475   7.268  0.6796 -0.2457  0.1072
  128OSM    H6F13772   3.252   4.425   7.249  0.9578  0.9367 -1.9313
  128OSM    H6G13773   3.089   4.413   7.332  0.4468 -0.5691 -0.4318
  128OSM    C7F13774   3.170   4.616   7.325 -0.2842 -0.3403  0.1958
  128OSM    H7F13775   3.083   4.684   7.308 -0.3517 -0.5890 -0.4902
  128OSM    H7G13776   3.243   4.666   7.258  0.1661 -2.4365 -0.9454
  128OSM    C8F13777   3.214   4.614   7.472  0.2250 -0.2609  0.5834
  128OSM    H8F13778   3.243   4.720   7.493 -1.5006  0.2714  0.4271
  128OSM    H8G13779   3.310   4.558   7.468  0.8161  0.7691 -1.6430
  128OSM    C9F13780   3.102   4.568   7.565  0.1621  0.1151  0.6538
  128OSM    H9F13781   3.009   4.538   7.514  0.1611 -1.0205  1.3000
  128OSM   C10F13782   3.110   4.550   7.693 -0.1570 -0.1897 -0.0943
  128OSM   H10F13783   3.020   4.514   7.746  0.4305 -0.7271  0.5611
  128OSM   C11F13784   3.234   4.569   7.780  0.3446  0.2738 -0.1947
  128OSM   H11F13785   3.325   4.553   7.718  1.1224 -0.3080  1.0679
  128OSM   H11G13786   3.238   4.478   7.844  0.8303  0.0990 -0.4671
  128OSM   C12F13787   3.244   4.694   7.876 -0.0840  0.1141  0.1497
  128OSM   H12F13788   3.227   4.777   7.805  0.1080 -0.6898 -0.8643
  128OSM   H12G13789   3.347   4.683   7.918 -0.3357  0.2499  0.8128
  128OSM   C13F13790   3.145   4.694   7.983 -0.4832 -0.4413  0.3499
  128OSM   H13F13791   3.048   4.687   7.930 -1.2878  3.4101  1.0354
  128OSM   H13G13792   3.135   4.796   8.024 -0.8516 -0.7229  0.9831
  128OSM   C14F13793   3.158   4.599   8.100 -0.0583  0.2606 -0.4955
  128OSM   H14F13794   3.163   4.495   8.060 -1.6140  1.0837 -3.0472
  128OSM   H14G13795   3.059   4.605   8.150  0.5910 -0.1047  0.8766
  128OSM   C15F13796   3.268   4.641   8.193 -0.3008 -0.4155  0.3236
  128OSM   H15F13797   3.285   4.750   8.177  3.2691 -0.9990 -0.6896
  128OSM   H15G13798   3.367   4.598   8.168  0.5851  1.4263  0.5378
  128OSM   C16F13799   3.246   4.615   8.339 -0.8045  0.3004 -0.1807
  128OSM   H16F13800   3.165   4.671   8.392 -0.1776  0.0023  1.1131
  128OSM   H16G13801   3.339   4.645   8.392 -0.2430 -0.3275 -0.8003
  128OSM   C17F13802   3.219   4.468   8.377 -0.5551 -1.3478 -0.2400
  128OSM   H17F13803   3.315   4.418   8.355  0.0262 -1.0142  1.3975
  128OSM   H17G13804   3.140   4.429   8.309 -0.9029  2.3775 -2.2386
  128OSM   C18F13805   3.188   4.437   8.527 -0.0975  0.0838  0.6081
  128OSM   H18F13806   3.084   4.473   8.540 -0.3129 -0.7028  1.1197
  128OSM   H18G13807   3.262   4.477   8.600 -0.4903 -0.3467  1.2564
  128OSM   H18H13808   3.196   4.327   8.542 -0.6679 -0.0378  0.0492
  129OSM      N13809   5.583   1.641   6.243 -0.1833  0.0390 -0.8621
  129OSM    C1513810   5.568   1.513   6.328 -0.3784 -0.0065  0.2586
  129OSM   H15A13811   5.521   1.434   6.272  0.6771  0.0925 -0.8326
  129OSM   H15B13812   5.513   1.533   6.419  1.4281  1.8962  1.0351
  129OSM   H15C13813   5.663   1.472   6.361 -0.1409 -1.4247 -1.9942
  129OSM    C1413814   5.450   1.658   6.174  0.0717 -0.8498 -0.1414
  129OSM   H14A13815   5.371   1.654   6.247 -1.0963 -0.2623 -1.3404
  129OSM   H14B13816   5.431   1.580   6.102  2.5186 -2.4710  0.8243
  129OSM   H14C13817   5.443   1.757   6.132  2.9812 -0.7661 -0.6739
  129OSM    C1313818   5.608   1.768   6.328  0.4557  0.3393  0.8457
  129OSM   H13A13819   5.686   1.748   6.401  1.1868  1.7540  0.4922
  129OSM   H13B13820   5.520   1.806   6.378  0.1645  1.3711 -0.3870
  129OSM   H13C13821   5.633   1.851   6.264  1.6137 -1.5289 -1.2687
  129OSM    C1213822   5.692   1.622   6.146  0.2896 -0.3460 -0.5591
  129OSM   H12A13823   5.693   1.703   6.074  0.2995  0.2604  0.1161
  129OSM   H12B13824   5.673   1.528   6.096  2.3761 -1.4418  0.5786
  129OSM    C1113825   5.840   1.619   6.198 -0.1474 -0.3102  0.5577
  129OSM   H11A13826   5.858   1.710   6.259 -1.0287 -0.2558  0.7495
  129OSM   H11B13827   5.917   1.618   6.117  1.2253  0.1984  1.8109
  129OSM      P13828   5.924   1.367   6.236  0.0445  0.4340  0.4833
  129OSM    O1313829   5.813   1.286   6.180 -0.3096 -0.4258 -0.1722
  129OSM    O1413830   6.042   1.395   6.152 -0.1763  0.3153  0.4406
  129OSM    O1113831   5.969   1.306   6.372  0.0743 -0.2894 -1.0399
  129OSM    O1213832   5.860   1.506   6.279 -0.1220  0.2063  0.0591
  129OSM    C1S13833   5.885   1.310   6.492  0.6029  0.3242 -0.1280
  129OSM    H1S13834   5.801   1.238   6.485  0.9716 -0.0431 -0.9065
  129OSM    H1T13835   5.828   1.406   6.493 -1.2527 -0.7209 -1.0102
  129OSM     NF13836   5.865   1.272   6.728  0.6584  0.5973  0.0955
  129OSM    HNF13837   5.849   1.358   6.776  4.5878  2.8928 -2.1979
  129OSM    C2S13838   5.967   1.291   6.622  0.2309  0.0488  0.6930
  129OSM    H2S13839   6.025   1.197   6.605  0.7296  0.5731 -0.6801
  129OSM    C3S13840   6.070   1.412   6.644 -0.1481  0.4878 -0.3176
  129OSM    H3S13841   6.012   1.506   6.659  1.1327  1.5382 -1.6329
  129OSM     O313842   6.134   1.428   6.519 -0.0817 -0.2188 -0.1225
  129OSM    HO313843   6.081   1.392   6.447  0.5146  0.0169 -0.6989
  129OSM    C4S13844   6.167   1.398   6.755 -0.5891 -0.4944  0.1914
  129OSM    H4S13845   6.260   1.345   6.729  0.0214 -0.5378  2.2774
  129OSM    C5S13846   6.161   1.445   6.883 -0.8243  0.2690 -0.1757
  129OSM    H5S13847   6.089   1.522   6.913  0.5350  2.0923 -1.3992
  129OSM    C6S13848   6.273   1.401   6.978 -0.2975  0.4379 -0.2435
  129OSM    H6S13849   6.347   1.483   6.991  0.7847 -0.5653  0.1562
  129OSM    H6T13850   6.322   1.308   6.940 -0.1271  0.6851 -0.6384
  129OSM    C7S13851   6.213   1.372   7.117  0.3260 -0.0611  0.3697
  129OSM    H7S13852   6.132   1.295   7.121 -0.3979  0.5088 -2.0041
  129OSM    H7T13853   6.173   1.469   7.154 -2.9208  0.1686 -3.1229
  129OSM    C8S13854   6.312   1.311   7.211 -0.8637  0.4974 -0.3616
  129OSM    H8S13855   6.400   1.375   7.234  1.0334 -1.0829 -2.6914
  129OSM    H8T13856   6.352   1.211   7.182 -0.0194  0.3879  1.0891
  129OSM    C9S13857   6.248   1.306   7.350 -0.8595  0.7115 -0.2248
  129OSM    H9S13858   6.169   1.229   7.335 -0.0316 -0.5933  1.6696
  129OSM    H9T13859   6.208   1.407   7.372 -0.3445  1.4187 -2.3484
  129OSM   C10S13860   6.337   1.267   7.466 -0.1803 -0.6932  0.4729
  129OSM   H10S13861   6.415   1.345   7.479 -0.4178 -0.6918  2.1269
  129OSM   H10T13862   6.398   1.176   7.452  0.2668 -0.2334 -0.7281
  129OSM   C11S13863   6.253   1.270   7.593 -0.2215  0.0893 -0.9201
  129OSM   H11S13864   6.184   1.183   7.583  2.2604 -1.8059 -3.1253
  129OSM   H11T13865   6.191   1.359   7.616  1.4761  0.8444  1.1070
  129OSM   C12S13866   6.342   1.244   7.716  0.0803 -0.5200 -0.6105
  129OSM   H12S13867   6.399   1.337   7.737 -0.6984 -0.4451  1.3755
  129OSM   H12T13868   6.406   1.160   7.680 -1.2005 -1.4598 -0.7767
  129OSM   C13S13869   6.269   1.205   7.846  0.3359 -0.1605 -0.7684
  129OSM   H13S13870   6.216   1.111   7.822  1.6082 -0.9812 -0.4879
  129OSM   H13T13871   6.196   1.283   7.876 -1.1778 -1.2963 -1.4295
  129OSM   C14S13872   6.365   1.169   7.964 -0.2106  0.4944  0.4011
  129OSM   H14S13873   6.465   1.216   7.950  1.0828 -2.7699 -3.0718
  129OSM   H14T13874   6.396   1.063   7.950  0.9894  1.0311 -1.2622
  129OSM   C15S13875   6.298   1.199   8.099  0.0943  0.0085  0.3112
  129OSM   H15S13876   6.222   1.124   8.127 -3.0973  1.8008 -2.7751
  129OSM   H15T13877   6.238   1.292   8.110 -0.1326 -0.0769 -0.1741
  129OSM   C16S13878   6.395   1.221   8.217 -1.0636 -0.0043  0.9654
  129OSM   H16S13879   6.471   1.293   8.181 -0.6729 -1.2406 -0.8014
  129OSM   H16T13880   6.457   1.135   8.247  0.3321  0.7630  0.3630
  129OSM   C17S13881   6.328   1.264   8.348 -0.1901  0.1800  0.1861
  129OSM   H17S13882   6.253   1.186   8.372  0.8542 -0.4029  1.7531
  129OSM   H17T13883   6.276   1.361   8.327  0.0490 -0.0515 -1.5981
  129OSM   C18S13884   6.416   1.284   8.475  0.1594 -0.0214 -0.0689
  129OSM   H18S13885   6.355   1.305   8.565  0.3523 -0.6566  0.2112
  129OSM   H18T13886   6.480   1.374   8.463  1.3720 -0.6201  1.5993
  129OSM   H18U13887   6.482   1.195   8.481 -0.1060 -0.3193 -1.1736
  129OSM    C1F13888   5.805   1.157   6.762  0.1159 -0.5408  0.7714
  129OSM     OF13889   5.831   1.059   6.693  0.0495  0.1444 -0.1887
  129OSM    C2F13890   5.700   1.156   6.874  0.4182  0.1614  0.1687
  129OSM    H2F13891   5.619   1.089   6.837  1.2363 -0.3181 -0.8298
  129OSM    H2G13892   5.662   1.259   6.885 -1.3394  0.0430 -3.2867
  129OSM    C3F13893   5.758   1.093   7.003  0.7329  0.1637 -0.4127
  129OSM    H3F13894   5.802   0.992   6.990  0.9307 -0.2534  2.7390
  129OSM    H3G13895   5.671   1.082   7.071  0.4399 -0.3413 -0.8590
  129OSM    C4F13896   5.868   1.183   7.069 -0.4842 -0.4758  0.1037
  129OSM    H4F13897   5.844   1.291   7.068 -0.6361 -0.4594  1.8798
  129OSM    H4G13898   5.966   1.159   7.023 -0.6387 -0.9937  0.0387
  129OSM    C5F13899   5.873   1.151   7.219  0.0597  0.0294 -0.6569
  129OSM    H5F13900   5.776   1.164   7.271  0.7821  4.3537 -0.0005
  129OSM    H5G13901   5.936   1.225   7.273 -1.8140 -0.2920  2.2122
  129OSM    C6F13902   5.908   1.005   7.249  0.0662  0.2321 -1.2125
  129OSM    H6F13903   5.977   0.968   7.170  0.8770 -0.3220 -0.2676
  129OSM    H6G13904   5.823   0.934   7.238  0.8618 -0.7875 -0.9605
  129OSM    C7F13905   5.971   0.986   7.389 -0.4955 -0.7783  0.5987
  129OSM    H7F13906   6.072   1.031   7.391 -0.7281 -0.2527  0.9714
  129OSM    H7G13907   6.001   0.880   7.400 -0.3831 -0.6961  1.1528
  129OSM    C8F13908   5.896   1.034   7.513  0.4989  0.3920 -0.0090
  129OSM    H8F13909   5.824   1.112   7.481  1.9417  0.7042 -2.8016
  129OSM    H8G13910   5.966   1.084   7.583 -0.7063  1.9560  0.1272
  129OSM    C9F13911   5.820   0.920   7.579 -0.1096  1.0050 -0.0529
  129OSM    H9F13912   5.762   0.856   7.510  0.6074  1.5130 -1.1637
  129OSM   C10F13913   5.824   0.867   7.701  0.1603 -0.6435 -0.0033
  129OSM   H10F13914   5.750   0.790   7.729 -0.6251  0.4295  0.8978
  129OSM   C11F13915   5.919   0.934   7.794 -0.6580  0.0784  0.7255
  129OSM   H11F13916   5.909   1.045   7.787  0.2377  0.1529  0.4810
  129OSM   H11G13917   6.022   0.906   7.763 -1.3242 -0.3264 -1.2361
  129OSM   C12F13918   5.881   0.890   7.938 -0.2692 -0.1348 -0.4048
  129OSM   H12F13919   5.931   0.945   8.020  0.4725 -3.2491  1.3978
  129OSM   H12G13920   5.920   0.788   7.960  1.3577  0.7400  1.0206
  129OSM   C13F13921   5.735   0.888   7.984  0.7554 -0.0757  0.2645
  129OSM   H13F13922   5.692   0.805   7.923  1.2935 -1.5390  1.8018
  129OSM   H13G13923   5.693   0.987   7.956  1.4998  0.0748 -0.3517
  129OSM   C14F13924   5.713   0.848   8.130 -0.4529  0.1840 -0.4439
  129OSM   H14F13925   5.788   0.771   8.157 -1.0846 -0.2371  0.1458
  129OSM   H14G13926   5.617   0.793   8.137 -0.0884 -0.2701  1.5557
  129OSM   C15F13927   5.726   0.958   8.235  0.7006 -0.2262  0.6233
  129OSM   H15F13928   5.662   1.047   8.216 -0.4148 -1.0009  0.6432
  129OSM   H15G13929   5.831   0.995   8.234  0.2586  1.1570 -1.9571
  129OSM   C16F13930   5.693   0.907   8.372 -0.3905  0.0242 -0.1644
  129OSM   H16F13931   5.726   0.802   8.387  0.5725  0.1566 -1.2155
  129OSM   H16G13932   5.582   0.899   8.376 -0.2452 -1.9096  1.7571
  129OSM   C17F13933   5.742   0.988   8.484 -0.2508 -0.6195  0.5469
  129OSM   H17F13934   5.687   0.962   8.577 -0.5242  1.6431  1.0801
  129OSM   H17G13935   5.718   1.094   8.458  1.4472 -0.4992 -0.7006
  129OSM   C18F13936   5.892   0.977   8.525 -0.3027  0.1222 -0.3755
  129OSM   H18F13937   5.901   1.042   8.615 -1.1780  0.0250 -0.2003
  129OSM   H18G13938   5.962   1.016   8.449  0.1582 -0.5797 -0.3230
  129OSM   H18H13939   5.926   0.875   8.553  0.9565  0.0115 -2.1603
  130OSM      N13940   2.823   3.051   6.099 -0.6313  0.8660 -0.5437
  130OSM    C1513941   2.823   2.906   6.054 -0.7037 -0.1380 -0.2558
  130OSM   H15A13942   2.727   2.876   6.015 -0.5176 -0.7033 -0.2910
  130OSM   H15B13943   2.857   2.837   6.130 -1.2377  0.9676  1.0228
  130OSM   H15C13944   2.888   2.887   5.970  0.0076 -0.8660  0.4478
  130OSM    C1413945   2.726   3.117   6.013  0.1285 -0.6292  0.2786
  130OSM   H14A13946   2.633   3.062   6.019 -0.3654  0.0160 -1.0877
  130OSM   H14B13947   2.760   3.128   5.911  1.6516  1.1833  0.9284
  130OSM   H14C13948   2.697   3.214   6.049  0.4587 -0.0666 -0.9181
  130OSM    C1313949   2.783   3.059   6.243 -0.1373  0.1713  0.7230
  130OSM   H13A13950   2.802   3.159   6.279  0.1603 -0.5133  2.6148
  130OSM   H13B13951   2.844   2.994   6.304  2.1477  1.7934  0.3290
  130OSM   H13C13952   2.678   3.034   6.251 -0.6418  2.0650  0.4530
  130OSM    C1213953   2.960   3.121   6.081  0.4629 -0.0155 -0.1682
  130OSM   H12A13954   2.929   3.224   6.093 -1.5455 -0.5810 -0.0194
  130OSM   H12B13955   2.998   3.108   5.981  1.8842  1.5305  0.1349
  130OSM    C1113956   3.077   3.086   6.173 -0.2536 -0.3600  0.3599
  130OSM   H11A13957   3.044   3.113   6.275 -0.3632  0.5061  0.1012
  130OSM   H11B13958   3.164   3.151   6.150  1.0235 -1.8373  0.8819
  130OSM      P13959   3.236   2.873   6.205  0.3688 -0.0672  0.0023
  130OSM    O1313960   3.177   2.775   6.297  0.6955  0.2991  0.7428
  130OSM    O1413961   3.316   2.820   6.097 -0.7451 -0.3054 -0.2027
  130OSM    O1113962   3.338   2.972   6.291  0.5303  0.8069  0.6336
  130OSM    O1213963   3.123   2.954   6.141  0.7796 -0.1651  0.5172
  130OSM    C1S13964   3.316   3.017   6.424 -0.1033  0.1271 -1.2606
  130OSM    H1S13965   3.216   2.987   6.463  1.1080 -2.0556  0.3859
  130OSM    H1T13966   3.340   3.125   6.432  0.4732 -0.0477 -0.5083
  130OSM     NF13967   3.363   2.974   6.655  0.2014  0.1526 -0.4400
  130OSM    HNF13968   3.397   3.057   6.699 -0.1146 -0.0938  0.2773
  130OSM    C2S13969   3.408   2.949   6.523 -0.4612  0.8777  0.2039
  130OSM    H2S13970   3.396   2.839   6.513 -2.0977  1.0853 -0.5326
  130OSM    C3S13971   3.548   2.993   6.486 -0.1448 -0.0931  0.8508
  130OSM    H3S13972   3.546   3.104   6.481  0.8678  0.0447  2.7464
  130OSM     O313973   3.598   2.952   6.357 -0.2439  0.3289  0.1349
  130OSM    HO313974   3.520   2.935   6.304  1.0675 -0.4761 -1.6459
  130OSM    C4S13975   3.646   2.951   6.593  0.6630  0.3533  0.0950
  130OSM    H4S13976   3.631   3.016   6.680  1.2831  0.5773  0.0391
  130OSM    C5S13977   3.736   2.855   6.596 -0.2202 -0.0611  0.2242
  130OSM    H5S13978   3.750   2.780   6.517 -0.7163  0.2943 -0.2010
  130OSM    C6S13979   3.829   2.840   6.713 -0.7256 -0.0884 -0.3364
  130OSM    H6S13980   3.931   2.866   6.675  0.1180  1.4656  2.6964
  130OSM    H6T13981   3.829   2.734   6.743 -0.8807 -0.4505 -1.5332
  130OSM    C7S13982   3.801   2.924   6.841 -0.3092  0.3758 -0.3712
  130OSM    H7S13983   3.698   2.894   6.870  0.9229 -1.6467  2.2763
  130OSM    H7T13984   3.794   3.034   6.823  2.5595  0.5452 -0.9028
  130OSM    C8S13985   3.900   2.912   6.953  0.2307 -0.9309 -0.4813
  130OSM    H8S13986   4.003   2.942   6.922  0.9270 -2.3080  0.3835
  130OSM    H8T13987   3.901   2.806   6.988 -1.2813 -0.5060  1.0080
  130OSM    C9S13988   3.862   3.006   7.071  0.2014 -0.0243  0.7181
  130OSM    H9S13989   3.871   3.112   7.040  1.3349  0.6054  2.9525
  130OSM    H9T13990   3.936   2.994   7.153  0.6860  0.9708  0.4395
  130OSM   C10S13991   3.727   2.990   7.140  0.0659  0.1514 -0.0080
  130OSM   H10S13992   3.728   2.888   7.183  1.6715  0.3779  0.5408
  130OSM   H10T13993   3.645   3.009   7.067  1.5119 -1.1104 -2.0775
  130OSM   C11S13994   3.727   3.081   7.263  0.1122 -0.7772  0.1268
  130OSM   H11S13995   3.622   3.117   7.273 -0.2305 -1.5082 -0.7465
  130OSM   H11T13996   3.799   3.165   7.253  2.4996 -2.5752  1.3512
  130OSM   C12S13997   3.759   3.003   7.394  0.3354  0.6424 -0.8602
  130OSM   H12S13998   3.865   2.971   7.402 -0.1151 -0.4642  2.3621
  130OSM   H12T13999   3.697   2.911   7.387  1.0903 -0.0305  0.6411
  130OSM   C13S14000   3.726   3.083   7.517 -0.0317 -0.1791 -0.1991
  130OSM   H13S14001   3.622   3.121   7.510 -0.1793 -0.6172 -0.3643
  130OSM   H13T14002   3.792   3.173   7.519  0.0329 -0.1734  3.0405
  130OSM   C14S14003   3.751   2.999   7.643 -0.1265  0.1369  0.5270
  130OSM   H14S14004   3.860   2.985   7.659 -0.4798 -0.0181  3.0825
  130OSM   H14T14005   3.723   2.893   7.629  2.8092 -0.4284 -2.0664
  130OSM   C15S14006   3.697   3.076   7.763  0.3347  0.6981  0.8868
  130OSM   H15S14007   3.599   3.125   7.745  0.4621  1.8782  3.0148
  130OSM   H15T14008   3.763   3.159   7.795  0.0282  1.6291 -0.7709
  130OSM   C16S14009   3.670   2.978   7.875  0.4585  0.3655  0.1456
  130OSM   H16S14010   3.765   2.922   7.886  1.0365  1.1420 -0.7221
  130OSM   H16T14011   3.598   2.897   7.850  1.2302 -0.7486  1.4193
  130OSM   C17S14012   3.626   3.046   8.002  0.0642 -0.4791 -0.1741
  130OSM   H17S14013   3.532   3.103   7.991 -0.2407 -0.9988 -0.2878
  130OSM   H17T14014   3.711   3.110   8.034 -1.9471  1.7206  1.0897
  130OSM   C18S14015   3.614   2.932   8.106 -0.6634 -0.6303  0.7691
  130OSM   H18S14016   3.556   2.850   8.057  1.8534 -2.6780  1.0174
  130OSM   H18T14017   3.581   2.955   8.209  3.2289 -0.6676  2.1728
  130OSM   H18U14018   3.706   2.871   8.115 -2.1367 -3.2325 -0.4748
  130OSM    C1F14019   3.255   2.902   6.705 -0.1721  0.5183 -0.8817
  130OSM     OF14020   3.191   2.825   6.640  0.7327 -0.0287 -0.0426
  130OSM    C2F14021   3.229   2.942   6.844 -0.2186  0.1705  0.0246
  130OSM    H2F14022   3.179   3.041   6.846  1.2061  0.9558  3.3033
  130OSM    H2G14023   3.319   2.951   6.909 -1.4393  0.2188  1.7975
  130OSM    C3F14024   3.142   2.841   6.931  0.1339 -0.8163  0.4069
  130OSM    H3F14025   3.153   2.736   6.895  3.4018 -0.9399  1.4228
  130OSM    H3G14026   3.039   2.873   6.905 -0.5039 -1.6865  1.7379
  130OSM    C4F14027   3.142   2.858   7.080  0.7557 -0.6685  0.3295
  130OSM    H4F14028   3.237   2.839   7.135  1.2955  1.7931  0.3583
  130OSM    H4G14029   3.065   2.787   7.117 -1.6581  2.0069  0.7992
  130OSM    C5F14030   3.091   3.000   7.127 -0.2531 -0.1500  0.0997
  130OSM    H5F14031   2.985   3.009   7.093  0.8014  0.3912 -3.4166
  130OSM    H5G14032   3.144   3.080   7.072 -1.2852 -0.1588 -0.9639
  130OSM    C6F14033   3.102   3.026   7.274  0.1057 -0.4693 -0.1684
  130OSM    H6F14034   3.171   2.954   7.324  0.6640  0.0324 -0.1965
  130OSM    H6G14035   3.010   3.006   7.333  1.3956  0.7787  2.4776
  130OSM    C7F14036   3.146   3.172   7.306 -0.7501 -0.4006  0.2208
  130OSM    H7F14037   3.078   3.243   7.255  0.9159  0.3874 -0.9965
  130OSM    H7G14038   3.236   3.189   7.244 -0.3639 -0.4197  0.7643
  130OSM    C8F14039   3.172   3.218   7.452 -0.2536 -0.1318  0.2070
  130OSM    H8F14040   3.074   3.214   7.504 -0.5994  0.3044 -0.4006
  130OSM    H8G14041   3.206   3.324   7.446 -0.0959 -0.2443 -1.4147
  130OSM    C9F14042   3.287   3.135   7.518  0.6006 -0.1298  0.1675
  130OSM    H9F14043   3.373   3.124   7.450  0.7295 -1.1625  0.4733
  130OSM   C10F14044   3.281   3.069   7.631  0.0787 -0.9905 -0.0790
  130OSM   H10F14045   3.370   3.011   7.662  0.4709 -0.0967  0.5267
  130OSM   C11F14046   3.170   3.064   7.730 -0.5171 -0.6934  0.0403
  130OSM   H11F14047   3.130   2.960   7.737 -1.1141 -0.3835  2.8512
  130OSM   H11G14048   3.086   3.133   7.708 -1.1631 -1.6352 -0.5124
  130OSM   C12F14049   3.220   3.085   7.873 -0.1767  0.7615 -0.2863
  130OSM   H12F14050   3.268   3.185   7.874  1.1444  0.1417 -0.4598
  130OSM   H12G14051   3.293   3.006   7.899  0.0022  0.4849 -1.5897
  130OSM   C13F14052   3.097   3.080   7.967 -0.1385 -0.4469 -0.0690
  130OSM   H13F14053   3.010   3.032   7.918 -1.4066  2.7210 -1.1544
  130OSM   H13G14054   3.052   3.180   7.982  0.8751  0.1981 -1.1524
  130OSM   C14F14055   3.131   3.016   8.099  0.0540  0.3401  0.2282
  130OSM   H14F14056   3.222   3.061   8.144 -0.6104  0.1875  1.7845
  130OSM   H14G14057   3.167   2.912   8.080  1.7776  0.7352  1.1520
  130OSM   C15F14058   3.015   3.004   8.191  0.4758 -0.1575  0.0980
  130OSM   H15F14059   2.931   2.940   8.158  0.3139 -0.6664  1.4050
  130OSM   H15G14060   2.975   3.108   8.191 -1.2159 -0.7651  1.3118
  130OSM   C16F14061   3.049   2.971   8.338  0.4025 -0.0344 -0.3060
  130OSM   H16F14062   3.124   3.035   8.389  1.1236 -2.7956  2.4174
  130OSM   H16G14063   3.082   2.865   8.349  1.0572  0.3504  1.9269
  130OSM   C17F14064   2.921   2.972   8.421 -0.9324 -0.6282 -0.1950
  130OSM   H17F14065   2.851   2.889   8.398  0.7911 -2.5358  1.1528
  130OSM   H17G14066   2.864   3.064   8.395 -0.3879  0.2876  1.6869
  130OSM   C18F14067   2.949   2.978   8.566 -0.4037  0.0586 -0.2348
  130OSM   H18F14068   2.854   2.966   8.622 -0.4797  0.2626 -0.3198
  130OSM   H18G14069   2.990   3.077   8.595 -1.5005  0.2934  0.5844
  130OSM   H18H14070   3.015   2.894   8.597 -0.6561 -0.3582 -0.7984
  131OSM      N14071   6.713   0.805   6.112 -0.2018  0.0521 -0.6173
  131OSM    C1514072   6.604   0.705   6.098 -0.7917 -0.8164 -0.1148
  131OSM   H15A14073   6.633   0.620   6.157  1.2877 -0.5707 -0.6962
  131OSM   H15B14074   6.591   0.661   6.001 -1.9737 -0.7013 -0.0255
  131OSM   H15C14075   6.508   0.749   6.124 -1.1108 -1.5548 -0.0123
  131OSM    C1414076   6.651   0.928   6.051 -0.5003 -0.8456 -0.3642
  131OSM   H14A14077   6.601   0.902   5.959 -0.7778 -0.0260 -0.4531
  131OSM   H14B14078   6.720   1.009   6.032 -0.7420 -0.2753  1.0277
  131OSM   H14C14079   6.568   0.961   6.111 -0.4427  0.4122 -0.9530
  131OSM    C1314080   6.745   0.824   6.260 -0.3695 -0.6340  0.1390
  131OSM   H13A14081   6.768   0.734   6.314 -0.9318 -2.2425 -2.1369
  131OSM   H13B14082   6.666   0.882   6.305 -0.2635  0.7974 -1.4158
  131OSM   H13C14083   6.830   0.888   6.275 -0.3888 -0.0426 -1.9981
  131OSM    C1214084   6.844   0.769   6.035 -0.3978 -0.0912  0.3618
  131OSM   H12A14085   6.807   0.764   5.933 -2.1351  0.5799  0.9265
  131OSM   H12B14086   6.866   0.668   6.069 -1.8984 -0.0071  1.6875
  131OSM    C1114087   6.968   0.864   6.054  0.2559 -0.1316  0.3261
  131OSM   H11A14088   7.033   0.827   5.972  0.5656  0.0700  0.4779
  131OSM   H11B14089   7.021   0.839   6.149  0.9428 -0.3145 -0.1003
  131OSM      P14090   6.982   1.114   6.134  0.2734 -0.1193 -0.3201
  131OSM    O1314091   7.129   1.107   6.130 -0.5007 -0.1560 -0.4015
  131OSM    O1414092   6.925   1.241   6.084  0.0740 -0.8013 -0.2110
  131OSM    O1114093   6.928   1.071   6.275 -0.4696 -0.1054 -0.3985
  131OSM    O1214094   6.926   1.002   6.044  0.9127  0.3423 -0.3416
  131OSM    C1S14095   6.928   1.168   6.379 -0.7933  0.6281 -0.0995
  131OSM    H1S14096   6.850   1.242   6.351 -1.9278 -1.0019 -1.4379
  131OSM    H1T14097   7.029   1.209   6.401  0.0004 -0.7841 -0.9177
  131OSM     NF14098   6.830   1.183   6.610 -0.2298  0.1246 -0.1154
  131OSM    HNF14099   6.878   1.196   6.696 -1.0282 -0.0608  0.3623
  131OSM    C2S14100   6.875   1.094   6.506  0.0812 -0.3482  0.5273
  131OSM    H2S14101   6.786   1.035   6.477 -0.0960 -0.5840  1.5151
  131OSM    C3S14102   6.984   0.994   6.561  0.0088  0.3795  0.3630
  131OSM    H3S14103   7.072   1.060   6.582 -0.7227  1.0085  1.6134
  131OSM     O314104   7.025   0.899   6.455 -0.3744 -0.4649 -0.4839
  131OSM    HO314105   6.981   0.937   6.378  1.5432  2.4185 -0.3223
  131OSM    C4S14106   6.937   0.920   6.681  0.0266  0.2524  0.7490
  131OSM    H4S14107   6.966   0.958   6.780 -2.0543  0.4076  1.3514
  131OSM    C5S14108   6.859   0.805   6.675 -0.1380 -0.8339 -0.4266
  131OSM    H5S14109   6.819   0.765   6.581 -2.5443  1.5272 -0.5143
  131OSM    C6S14110   6.807   0.731   6.793 -1.1055 -0.0622  0.2805
  131OSM    H6S14111   6.839   0.624   6.786 -1.5830 -0.2959  1.3721
  131OSM    H6T14112   6.698   0.717   6.780 -1.5217  0.1941  2.9675
  131OSM    C7S14113   6.819   0.784   6.932 -0.1896  0.7272  0.0819
  131OSM    H7S14114   6.925   0.809   6.951 -0.2284  0.1178  1.1701
  131OSM    H7T14115   6.792   0.708   7.008 -0.5723  2.1820  1.4631
  131OSM    C8S14116   6.721   0.896   6.955 -0.0642  0.3392 -0.0726
  131OSM    H8S14117   6.625   0.871   6.904 -0.5349  0.0089  0.9623
  131OSM    H8T14118   6.761   0.990   6.911  0.2593  0.4705  0.4965
  131OSM    C9S14119   6.677   0.937   7.102  0.0737  1.1793  0.1752
  131OSM    H9S14120   6.630   0.845   7.142  0.6367  1.5075  1.6487
  131OSM    H9T14121   6.605   1.021   7.094  0.0173  0.9888 -2.1798
  131OSM   C10S14122   6.786   0.992   7.194 -0.1708  0.3713 -0.0376
  131OSM   H10S14123   6.840   1.074   7.144 -1.0432 -0.2336 -2.0851
  131OSM   H10T14124   6.859   0.909   7.203 -1.0619 -0.3559  0.7745
  131OSM   C11S14125   6.721   1.023   7.326  0.5630 -1.3099  0.5361
  131OSM   H11S14126   6.670   0.934   7.368 -0.2840 -1.3944 -0.6116
  131OSM   H11T14127   6.645   1.100   7.301  1.6983 -0.0944  0.7467
  131OSM   C12S14128   6.817   1.073   7.434 -0.7246  0.0224 -0.2783
  131OSM   H12S14129   6.763   1.125   7.517  1.4897 -0.4010  1.5337
  131OSM   H12T14130   6.888   1.156   7.413 -0.2528 -0.1934  0.4349
  131OSM   C13S14131   6.897   0.955   7.497 -0.1171  0.1174  0.2594
  131OSM   H13S14132   6.941   0.897   7.413  2.2393 -1.1686  2.2641
  131OSM   H13T14133   6.820   0.897   7.552 -0.6146  0.4715 -0.0526
  131OSM   C14S14134   7.003   1.008   7.600  0.6885  0.2677  0.7261
  131OSM   H14S14135   6.946   1.076   7.666  0.6496 -0.4799  1.4875
  131OSM   H14T14136   7.079   1.067   7.546  0.5204 -0.8346 -0.7885
  131OSM   C15S14137   7.075   0.891   7.665 -0.3825 -0.5467 -0.3286
  131OSM   H15S14138   6.992   0.839   7.718 -1.1456  0.0936 -0.8934
  131OSM   H15T14139   7.160   0.927   7.726  0.6465 -1.9363 -0.8646
  131OSM   C16S14140   7.145   0.801   7.570  0.0080  0.1350  0.1721
  131OSM   H16S14141   7.202   0.867   7.501 -0.2395 -1.1540 -1.3413
  131OSM   H16T14142   7.080   0.739   7.504 -0.8857  1.4189 -0.1957
  131OSM   C17S14143   7.240   0.703   7.641 -0.2945  0.6169  0.8779
  131OSM   H17S14144   7.185   0.626   7.699  0.5034  0.3009  1.2410
  131OSM   H17T14145   7.296   0.770   7.710 -0.9897  2.5335 -0.3542
  131OSM   C18S14146   7.342   0.641   7.544 -0.0387  0.6855  0.1411
  131OSM   H18S14147   7.426   0.597   7.603  2.3323  3.6642 -0.7633
  131OSM   H18T14148   7.384   0.723   7.482 -1.9226  0.4027 -1.5742
  131OSM   H18U14149   7.292   0.565   7.480 -0.9846 -0.2854  1.9493
  131OSM    C1F14150   6.717   1.237   6.591  0.4169 -0.2531 -0.0555
  131OSM     OF14151   6.648   1.202   6.491 -0.0792 -0.1020  0.1357
  131OSM    C2F14152   6.678   1.350   6.684  0.3881  0.5449  0.3536
  131OSM    H2F14153   6.569   1.336   6.700  0.5847 -0.4988  0.9295
  131OSM    H2G14154   6.675   1.449   6.635 -0.1821  0.4774  0.2451
  131OSM    C3F14155   6.739   1.353   6.829 -0.6907  0.0294  0.3288
  131OSM    H3F14156   6.845   1.382   6.814 -0.1391 -0.5660  2.7091
  131OSM    H3G14157   6.737   1.249   6.867  1.1710  0.4446  1.6797
  131OSM    C4F14158   6.656   1.433   6.931  0.6760 -0.1916 -0.5524
  131OSM    H4F14159   6.548   1.429   6.903  0.5440  3.3608 -0.9680
  131OSM    H4G14160   6.683   1.538   6.908  0.0223  0.0094 -0.4342
  131OSM    C5F14161   6.688   1.392   7.077 -0.1189  0.0430  0.1367
  131OSM    H5F14162   6.797   1.388   7.093 -0.1272  0.2292  0.2404
  131OSM    H5G14163   6.648   1.294   7.111 -0.6186  0.6980  1.5076
  131OSM    C6F14164   6.634   1.501   7.174 -1.1231 -0.2265 -0.5932
  131OSM    H6F14165   6.527   1.528   7.162 -0.6548  0.8314 -2.6963
  131OSM    H6G14166   6.686   1.595   7.149  0.1125 -1.3864 -2.6370
  131OSM    C7F14167   6.653   1.475   7.327 -0.3326  0.6838  0.2654
  131OSM    H7F14168   6.748   1.420   7.339 -0.5331 -0.0445 -1.1789
  131OSM    H7G14169   6.579   1.398   7.359 -0.7372  1.2555  0.7230
  131OSM    C8F14170   6.658   1.601   7.420  0.2436 -0.4931  0.1471
  131OSM    H8F14171   6.557   1.647   7.416 -0.3474 -1.8382 -1.3123
  131OSM    H8G14172   6.725   1.674   7.370  1.8165 -1.8046  0.2095
  131OSM    C9F14173   6.698   1.570   7.558 -0.2147  0.1433 -0.2114
  131OSM    H9F14174   6.668   1.475   7.603 -0.0410  0.3803  0.4203
  131OSM   C10F14175   6.773   1.646   7.636  0.2752  0.7082  0.2250
  131OSM   H10F14176   6.783   1.619   7.742 -0.0428  0.3489  0.1645
  131OSM   C11F14177   6.835   1.780   7.610 -0.2679  0.0607 -0.1567
  131OSM   H11F14178   6.782   1.826   7.524  2.9016 -0.6603 -2.6870
  131OSM   H11G14179   6.935   1.770   7.562 -0.7539  0.5904 -1.3117
  131OSM   C12F14180   6.827   1.879   7.726 -0.2058  0.1748  0.2080
  131OSM   H12F14181   6.908   1.954   7.713 -1.7893  1.6647 -1.8558
  131OSM   H12G14182   6.855   1.830   7.821  0.4259  1.0044  0.4597
  131OSM   C13F14183   6.694   1.952   7.733 -0.0783 -0.5821 -0.1976
  131OSM   H13F14184   6.610   1.879   7.737 -0.4263 -0.1798 -0.0822
  131OSM   H13G14185   6.689   2.012   7.639  0.2882  3.4069  2.0968
  131OSM   C14F14186   6.697   2.047   7.843  0.3780  0.4072  0.3339
  131OSM   H14F14187   6.772   2.124   7.814  1.7306  0.4045  3.4675
  131OSM   H14G14188   6.739   1.998   7.933  0.0246 -2.3732 -0.8997
  131OSM   C15F14189   6.558   2.104   7.880  0.0048 -0.3863 -0.2667
  131OSM   H15F14190   6.492   2.023   7.917  0.2832 -1.4167 -1.9245
  131OSM   H15G14191   6.509   2.152   7.792  1.2759  2.2092  0.3476
  131OSM   C16F14192   6.561   2.210   7.995  0.9994  0.4235  0.1687
  131OSM   H16F14193   6.464   2.264   8.000  0.4718 -0.4746 -0.0803
  131OSM   H16G14194   6.641   2.277   7.957  0.2526  1.1752 -0.0978
  131OSM   C17F14195   6.579   2.143   8.137  0.6226 -0.5861  0.3669
  131OSM   H17F14196   6.676   2.089   8.140 -0.3171 -2.2950  0.9450
  131OSM   H17G14197   6.502   2.064   8.143 -0.0096 -0.0926 -0.8338
  131OSM   C18F14198   6.561   2.234   8.259  0.7782 -0.6884  0.0101
  131OSM   H18F14199   6.456   2.269   8.267  0.9950 -0.2503  1.0849
  131OSM   H18G14200   6.625   2.321   8.235  1.8005 -2.2888 -3.6627
  131OSM   H18H14201   6.595   2.183   8.352  2.2086 -0.6424 -0.4636
  132OSM      N14202   1.256   0.388   6.040 -0.2539  0.1155  0.5434
  132OSM    C1514203   1.209   0.424   6.174  0.3417 -0.4298 -0.5583
  132OSM   H15A14204   1.101   0.417   6.180  0.3368  0.3540  0.6263
  132OSM   H15B14205   1.246   0.517   6.215  1.4171 -1.2102  0.3316
  132OSM   H15C14206   1.251   0.354   6.246 -0.4714 -0.7058 -0.3417
  132OSM    C1414207   1.211   0.496   5.942  0.1730  0.3681 -0.6433
  132OSM   H14A14208   1.245   0.479   5.841  0.5861  0.3502 -0.5034
  132OSM   H14B14209   1.246   0.592   5.978  1.4819 -0.6813  1.0089
  132OSM   H14C14210   1.104   0.509   5.941  0.1403  0.3632 -3.3244
  132OSM    C1314211   1.401   0.378   6.030  0.2938 -0.2717 -0.0730
  132OSM   H13A14212   1.431   0.292   6.090 -0.2199 -2.6557 -3.0110
  132OSM   H13B14213   1.438   0.474   6.061  0.4168 -0.5796  0.7840
  132OSM   H13C14214   1.430   0.344   5.931  2.2546  1.4077 -0.1477
  132OSM    C1214215   1.200   0.250   5.997  0.1964  0.2169 -0.0959
  132OSM   H12A14216   1.252   0.221   5.906  0.5277 -1.0484  0.4760
  132OSM   H12B14217   1.094   0.249   5.976  0.2304 -1.2359 -0.2732
  132OSM    C1114218   1.213   0.132   6.087 -0.4640 -0.0200 -0.3103
  132OSM   H11A14219   1.153   0.051   6.040 -0.2749  0.0650 -0.7032
  132OSM   H11B14220   1.174   0.146   6.190 -2.4718 -2.5204 -0.6414
  132OSM      P14221   1.403  -0.024   6.173  0.3180 -0.1924  0.0158
  132OSM    O1314222   1.386  -0.159   6.106  0.0552  0.0345 -0.0496
  132OSM    O1414223   1.538   0.009   6.217 -0.0329  0.1643 -0.1866
  132OSM    O1114224   1.311  -0.018   6.300 -0.2653  0.1867  0.8966
  132OSM    O1214225   1.350   0.090   6.077  0.1990 -0.2607  0.0669
  132OSM    C1S14226   1.251  -0.138   6.355 -0.2314  0.0745 -0.5789
  132OSM    H1S14227   1.303  -0.229   6.319  2.1442  0.1124  2.3481
  132OSM    H1T14228   1.145  -0.145   6.321 -0.2643  0.1979 -0.5019
  132OSM     NF14229   1.238  -0.291   6.555 -0.0871  0.4511  0.2713
  132OSM    HNF14230   1.151  -0.304   6.602 -0.6977  3.6515  0.2382
  132OSM    C2S14231   1.254  -0.152   6.510 -0.2945 -0.0362  0.1151
  132OSM    H2S14232   1.355  -0.120   6.544 -0.8353  0.6277  1.1646
  132OSM    C3S14233   1.163  -0.039   6.570  0.2506 -0.7617 -0.2475
  132OSM    H3S14234   1.063  -0.061   6.527 -1.2094  1.8960  1.5108
  132OSM     O314235   1.199   0.088   6.513 -0.0915 -0.1503  0.3096
  132OSM    HO314236   1.268   0.061   6.452 -0.7155 -1.8082  0.2753
  132OSM    C4S14237   1.150  -0.029   6.716 -0.4864  0.4924 -0.0309
  132OSM    H4S14238   1.055  -0.069   6.756  0.3218 -0.3848  1.0685
  132OSM    C5S14239   1.227   0.049   6.800 -0.1950 -0.3748  0.4908
  132OSM    H5S14240   1.318   0.101   6.765 -0.2695 -0.3664  0.3067
  132OSM    C6S14241   1.187   0.048   6.946 -0.5007 -0.3039 -0.2437
  132OSM    H6S14242   1.111   0.127   6.966 -0.5239 -0.8399  1.9919
  132OSM    H6T14243   1.275   0.085   7.003  3.0105 -2.8476 -3.4889
  132OSM    C7S14244   1.135  -0.087   6.997  0.1445 -0.3724  0.5150
  132OSM    H7S14245   1.217  -0.160   6.978 -0.1569 -0.6688  0.3398
  132OSM    H7T14246   1.040  -0.118   6.947  0.2972 -0.9347  0.5636
  132OSM    C8S14247   1.118  -0.088   7.153  0.4353 -0.0536  0.6786
  132OSM    H8S14248   1.018  -0.050   7.184  0.1003 -0.3004 -0.0706
  132OSM    H8T14249   1.196  -0.021   7.196  0.3216 -0.8014  2.1140
  132OSM    C9S14250   1.133  -0.227   7.209  0.1548  0.5133  0.3477
  132OSM    H9S14251   1.213  -0.283   7.156 -1.8725 -0.0568 -2.2764
  132OSM    H9T14252   1.038  -0.278   7.185  0.2123  0.8810 -0.7152
  132OSM   C10S14253   1.156  -0.228   7.368  0.3003  0.3109 -0.2648
  132OSM   H10S14254   1.223  -0.149   7.406 -1.0728  1.7558 -0.7610
  132OSM   H10T14255   1.211  -0.322   7.389 -0.5923  0.1125  1.3294
  132OSM   C11S14256   1.015  -0.225   7.436 -0.0109 -0.6510 -0.3443
  132OSM   H11S14257   0.960  -0.321   7.423 -2.1012  0.3472  0.5782
  132OSM   H11T14258   0.950  -0.156   7.378  0.5719 -0.8530 -1.2647
  132OSM   C12S14259   1.020  -0.184   7.590 -0.2287  0.1910  0.5766
  132OSM   H12S14260   0.918  -0.165   7.631 -0.3136 -1.8209  1.3920
  132OSM   H12T14261   1.077  -0.088   7.593  0.7755 -0.3024 -1.1065
  132OSM   C13S14262   1.094  -0.291   7.676 -0.0979 -0.3394  0.0096
  132OSM   H13S14263   1.170  -0.340   7.612 -2.5410 -2.1825 -1.6850
  132OSM   H13T14264   1.009  -0.357   7.703 -0.8242  0.4379 -0.3338
  132OSM   C14S14265   1.156  -0.236   7.804  0.0920 -0.5495 -0.5109
  132OSM   H14S14266   1.099  -0.150   7.845  0.2321 -1.4143  1.6625
  132OSM   H14T14267   1.261  -0.209   7.779 -0.0150 -0.7164 -1.1331
  132OSM   C15S14268   1.156  -0.350   7.912  0.6314  0.6848  0.1754
  132OSM   H15S14269   1.226  -0.325   7.994  1.1704  1.3546 -0.4825
  132OSM   H15T14270   1.186  -0.443   7.858 -1.3231 -0.0153  0.1811
  132OSM   C16S14271   1.019  -0.360   7.979 -0.6431 -0.4523  0.6137
  132OSM   H16S14272   0.953  -0.402   7.902  1.2747 -2.0787 -0.2323
  132OSM   H16T14273   0.985  -0.258   8.007 -1.2946 -0.1097 -1.3063
  132OSM   C17S14274   1.022  -0.470   8.090 -0.5888 -0.1135 -1.0344
  132OSM   H17S14275   1.071  -0.566   8.062 -2.5108 -1.3886 -0.2568
  132OSM   H17T14276   0.921  -0.508   8.120 -0.0700 -2.0765 -1.6399
  132OSM   C18S14277   1.082  -0.423   8.226  0.6541  0.0995 -0.4668
  132OSM   H18S14278   1.186  -0.389   8.213  0.7949 -0.6493 -1.4939
  132OSM   H18T14279   1.096  -0.511   8.292  2.1429  0.6576 -0.0091
  132OSM   H18U14280   1.017  -0.348   8.276  0.2399 -0.6249  0.1062
  132OSM    C1F14281   1.317  -0.389   6.528 -0.4727  1.0080 -0.0171
  132OSM     OF14282   1.395  -0.378   6.436 -0.3510  0.1167 -0.4235
  132OSM    C2F14283   1.283  -0.518   6.599  0.1056 -0.3232  0.1000
  132OSM    H2F14284   1.205  -0.573   6.542  1.7258 -0.6925 -1.8730
  132OSM    H2G14285   1.249  -0.504   6.704  3.1907  0.3124  1.1344
  132OSM    C3F14286   1.400  -0.617   6.616  0.4426 -0.3381  0.2998
  132OSM    H3F14287   1.440  -0.651   6.518  1.0581 -1.2757  0.8634
  132OSM    H3G14288   1.370  -0.714   6.662 -1.6863 -0.0283 -0.2977
  132OSM    C4F14289   1.517  -0.564   6.706 -0.0758 -0.0848 -0.7456
  132OSM    H4F14290   1.483  -0.537   6.808  1.8853  0.5415 -0.2157
  132OSM    H4G14291   1.557  -0.470   6.663 -1.3119 -0.0586 -1.8951
  132OSM    C5F14292   1.637  -0.665   6.732  0.1506 -0.6770  0.4619
  132OSM    H5F14293   1.661  -0.713   6.635  1.5232  2.2347 -0.7557
  132OSM    H5G14294   1.604  -0.754   6.791 -1.3804 -0.5913 -0.2231
  132OSM    C6F14295   1.759  -0.591   6.787 -0.1034 -0.5977 -0.5048
  132OSM    H6F14296   1.789  -0.508   6.718 -1.3401  1.4932  1.3309
  132OSM    H6G14297   1.851  -0.653   6.786  0.8008  0.6875 -1.3300
  132OSM    C7F14298   1.749  -0.545   6.934 -0.5768  0.1729  0.0032
  132OSM    H7F14299   1.691  -0.613   7.000  2.3418 -1.7754  0.7517
  132OSM    H7G14300   1.699  -0.445   6.935 -1.8282 -0.4371 -0.4888
  132OSM    C8F14301   1.889  -0.522   7.001 -0.2744  0.3756 -0.1593
  132OSM    H8F14302   1.960  -0.606   6.985 -0.8143 -0.3273  1.0229
  132OSM    H8G14303   1.857  -0.526   7.107  1.1865  1.1858  0.3486
  132OSM    C9F14304   1.948  -0.389   6.957  0.8113  0.7049  0.1495
  132OSM    H9F14305   1.948  -0.374   6.848 -2.4713 -0.0719 -0.0525
  132OSM   C10F14306   2.015  -0.295   7.031  0.5438  0.0355 -0.6882
  132OSM   H10F14307   2.052  -0.206   6.979  0.8921  0.0469 -0.4212
  132OSM   C11F14308   2.047  -0.306   7.186  0.8481 -0.0448 -0.7974
  132OSM   H11F14309   2.157  -0.299   7.193  0.8464 -1.4376  1.7088
  132OSM   H11G14310   2.035  -0.410   7.223  3.6790  0.3218  1.5206
  132OSM   C12F14311   1.978  -0.196   7.276  0.0028  0.2374 -0.6476
  132OSM   H12F14312   1.869  -0.210   7.294  0.0033  1.2989  0.3326
  132OSM   H12G14313   2.000  -0.097   7.231  0.2446  0.2545 -0.4921
  132OSM   C13F14314   2.054  -0.178   7.412  0.2207 -0.3837  0.4411
  132OSM   H13F14315   2.028  -0.079   7.455 -2.3208 -1.0410  0.6322
  132OSM   H13G14316   2.163  -0.169   7.397  0.0386 -1.1829 -1.5978
  132OSM   C14F14317   2.012  -0.275   7.518 -0.1765 -0.4504 -0.7542
  132OSM   H14F14318   2.015  -0.380   7.481 -0.3437 -1.0309  0.8280
  132OSM   H14G14319   1.905  -0.255   7.538 -0.8021 -0.8512 -3.2785
  132OSM   C15F14320   2.089  -0.255   7.653 -0.0788 -0.4373  0.3236
  132OSM   H15F14321   2.079  -0.148   7.682 -1.5513 -0.2002 -0.9713
  132OSM   H15G14322   2.196  -0.277   7.628  0.0298  2.4222 -2.2658
  132OSM   C16F14323   2.029  -0.355   7.759 -0.6016  0.4443  0.1769
  132OSM   H16F14324   2.017  -0.462   7.730 -1.4200  1.1475 -2.2751
  132OSM   H16G14325   1.932  -0.309   7.790 -0.2586  2.2873 -1.3016
  132OSM   C17F14326   2.133  -0.363   7.874 -1.0184  0.2357  0.1905
  132OSM   H17F14327   2.154  -0.266   7.925  0.9785 -1.1255  2.1814
  132OSM   H17G14328   2.228  -0.409   7.839 -0.1261  1.0503  1.4425
  132OSM   C18F14329   2.090  -0.463   7.979 -0.3253  0.3906 -0.4381
  132OSM   H18F14330   2.042  -0.553   7.934  0.2392 -0.7675  1.1823
  132OSM   H18G14331   2.017  -0.415   8.047  0.5727  0.8482  0.2340
  132OSM   H18H14332   2.176  -0.488   8.046  0.3195  2.6850 -0.3367
  133OSM      N14333   5.909   5.916   6.056 -0.3572  0.2680  0.6433
  133OSM    C1514334   5.815   5.971   5.948 -0.4801 -0.2508  0.1722
  133OSM   H15A14335   5.762   5.889   5.903 -2.4127  0.0546  1.7787
  133OSM   H15B14336   5.856   6.036   5.872  0.0990  0.2812  0.9168
  133OSM   H15C14337   5.731   6.025   5.989 -0.3376  0.2197 -0.1473
  133OSM    C1414338   5.910   6.009   6.168 -0.8014  0.3430  0.2180
  133OSM   H14A14339   5.824   5.993   6.231 -0.6543  0.9026  0.5655
  133OSM   H14B14340   5.921   6.111   6.133  0.8877 -0.6279 -2.3603
  133OSM   H14C14341   5.990   5.992   6.239 -1.1599 -1.1617  0.2960
  133OSM    C1314342   5.857   5.788   6.110  0.5035  0.4483 -0.2981
  133OSM   H13A14343   5.844   5.714   6.033 -0.6018  1.7867 -1.4346
  133OSM   H13B14344   5.757   5.806   6.146  1.0519  0.6424  1.1984
  133OSM   H13C14345   5.917   5.748   6.191 -1.7090  0.5598  1.4878
  133OSM    C1214346   6.052   5.892   5.996 -0.0200 -0.0109  0.2695
  133OSM   H12A14347   6.078   5.979   5.936 -2.8769 -0.5446 -1.9475
  133OSM   H12B14348   6.036   5.814   5.923  0.2161  1.4136 -1.3770
  133OSM    C1114349   6.164   5.854   6.094 -0.4879  0.1490 -0.1050
  133OSM   H11A14350   6.249   5.808   6.039  0.0821  2.4776 -1.2751
  133OSM   H11B14351   6.127   5.780   6.169  0.6784  1.0214  1.3746
  133OSM      P14352   6.298   6.079   6.102 -0.4559  0.2324 -0.2330
  133OSM    O1314353   6.391   6.019   5.999  0.1854  0.4464 -0.1846
  133OSM    O1414354   6.221   6.199   6.065  0.3618 -0.0976 -0.1985
  133OSM    O1114355   6.387   6.111   6.228 -0.1654  0.1047 -0.3336
  133OSM    O1214356   6.206   5.965   6.167  0.5751  0.2174 -0.2462
  133OSM    C1S14357   6.355   6.176   6.351 -0.4584  0.0139 -0.1721
  133OSM    H1S14358   6.246   6.164   6.366 -0.2077 -0.7657  1.1633
  133OSM    H1T14359   6.384   6.283   6.354 -0.9242  0.1219  0.6095
  133OSM     NF14360   6.381   6.192   6.589  0.7247 -0.2959 -0.4267
  133OSM    HNF14361   6.448   6.244   6.642 -0.7067  2.0161 -0.7524
  133OSM    C2S14362   6.432   6.121   6.476  0.2729  0.1567  0.6458
  133OSM    H2S14363   6.409   6.012   6.480 -1.4926  0.5015  1.1121
  133OSM    C3S14364   6.584   6.122   6.453 -0.1693 -0.4642  0.8467
  133OSM    H3S14365   6.625   6.219   6.417 -1.3316 -1.5597 -4.0624
  133OSM     O314366   6.633   6.045   6.344 -0.8770 -0.0346  0.1573
  133OSM    HO314367   6.570   6.051   6.272 -0.2914 -2.4760 -0.6754
  133OSM    C4S14368   6.663   6.085   6.575 -0.0185 -0.5697  0.5353
  133OSM    H4S14369   6.728   6.163   6.616 -0.8324  0.0177  0.7275
  133OSM    C5S14370   6.678   5.962   6.634  0.1946  0.0419  0.2043
  133OSM    H5S14371   6.627   5.875   6.591 -1.9396  0.7226  1.2361
  133OSM    C6S14372   6.763   5.930   6.758 -0.3468 -0.1234  0.0704
  133OSM    H6S14373   6.844   6.004   6.777 -1.1208  0.3544  1.6342
  133OSM    H6T14374   6.806   5.828   6.748 -1.8782 -0.6285 -2.2968
  133OSM    C7S14375   6.677   5.945   6.887  0.0733  0.7947  0.0381
  133OSM    H7S14376   6.620   5.850   6.897 -1.3902  1.5826 -0.4341
  133OSM    H7T14377   6.598   6.022   6.871 -0.3245  0.5701  0.8378
  133OSM    C8S14378   6.758   5.961   7.019 -0.2754  0.7488  0.3488
  133OSM    H8S14379   6.808   6.060   7.016 -0.3013  0.8480  2.1521
  133OSM    H8T14380   6.837   5.882   7.022  1.5098  2.3572 -1.3596
  133OSM    C9S14381   6.665   5.938   7.137  0.0209  0.0283 -0.0755
  133OSM    H9S14382   6.594   5.853   7.131 -0.3971  0.2441  1.5458
  133OSM    H9T14383   6.609   6.033   7.148  1.0426  0.5860  0.5029
  133OSM   C10S14384   6.738   5.912   7.271  0.3005 -0.9045 -0.3671
  133OSM   H10S14385   6.810   5.997   7.278 -1.0650  0.4445 -1.7445
  133OSM   H10T14386   6.798   5.819   7.265  0.2396 -1.1989  2.4120
  133OSM   C11S14387   6.658   5.900   7.400  0.0105 -0.0798 -0.1977
  133OSM   H11S14388   6.590   5.812   7.388 -2.5768  1.7210  0.3666
  133OSM   H11T14389   6.605   5.994   7.425  1.6265  0.5949  0.8621
  133OSM   C12S14390   6.754   5.891   7.528  0.5993  0.1127  0.5424
  133OSM   H12S14391   6.824   5.977   7.524 -1.0539  1.5329  0.7752
  133OSM   H12T14392   6.804   5.791   7.522  0.9465  0.2933  0.3713
  133OSM   C13S14393   6.691   5.904   7.666 -0.1210 -0.1885  0.4683
  133OSM   H13S14394   6.614   5.824   7.669  0.2583 -0.5451  0.8745
  133OSM   H13T14395   6.646   6.005   7.676  0.6584  0.0953  1.1978
  133OSM   C14S14396   6.787   5.879   7.790  0.2996 -1.0479  0.2724
  133OSM   H14S14397   6.866   5.957   7.781  0.4643 -1.3293 -0.8671
  133OSM   H14T14398   6.841   5.783   7.780  2.6112  0.2902 -1.2627
  133OSM   C15S14399   6.725   5.901   7.928 -0.2202 -0.3040 -0.8324
  133OSM   H15S14400   6.793   5.876   8.011 -0.4520  1.9787  0.1199
  133OSM   H15T14401   6.630   5.844   7.938 -0.9818  1.1024  0.4068
  133OSM   C16S14402   6.681   6.047   7.954  0.3080  0.9660 -0.5822
  133OSM   H16S14403   6.621   6.066   8.045 -0.7496  1.9603 -1.4479
  133OSM   H16T14404   6.600   6.084   7.887 -2.1841  0.0290  1.7199
  133OSM   C17S14405   6.799   6.152   7.956  0.2186  0.8611  0.0765
  133OSM   H17S14406   6.849   6.148   7.857 -2.8662  4.6303 -1.8948
  133OSM   H17T14407   6.873   6.120   8.033 -2.1655 -0.5148  1.9674
  133OSM   C18S14408   6.756   6.291   7.979  0.2025  0.2159  0.6011
  133OSM   H18S14409   6.675   6.331   7.915  0.1677  1.1799  1.2265
  133OSM   H18T14410   6.845   6.356   7.972  1.2860 -1.2400  0.2345
  133OSM   H18U14411   6.708   6.292   8.080 -2.1049  1.3278 -0.4276
  133OSM    C1F14412   6.254   6.190   6.640 -0.2397  0.2649  0.4591
  133OSM     OF14413   6.165   6.120   6.586  0.2257 -0.4720 -0.5500
  133OSM    C2F14414   6.246   6.272   6.762 -0.0535  0.7167 -0.2080
  133OSM    H2F14415   6.138   6.291   6.785 -0.2795 -0.5316 -0.1870
  133OSM    H2G14416   6.307   6.365   6.758  3.8789 -1.7386 -2.2281
  133OSM    C3F14417   6.310   6.199   6.886  0.1499 -0.7446 -0.3840
  133OSM    H3F14418   6.420   6.198   6.868  0.4409 -0.7795  1.2328
  133OSM    H3G14419   6.271   6.100   6.916 -1.2023  0.4754  2.2644
  133OSM    C4F14420   6.299   6.278   7.011 -0.5616 -1.1810  0.5330
  133OSM    H4F14421   6.194   6.294   7.044 -0.6437 -1.9608  0.6547
  133OSM    H4G14422   6.334   6.379   6.979  1.2627 -1.8665  0.2723
  133OSM    C5F14423   6.381   6.235   7.129  0.2305  0.7086  0.1954
  133OSM    H5F14424   6.485   6.206   7.104 -0.4464 -2.3535  0.4866
  133OSM    H5G14425   6.332   6.137   7.145  0.9892  0.1895 -0.5818
  133OSM    C6F14426   6.367   6.329   7.253 -0.1644  0.0370 -0.8945
  133OSM    H6F14427   6.261   6.358   7.272  0.7849  3.2057  0.2866
  133OSM    H6G14428   6.412   6.427   7.225  1.2410 -0.6756 -1.1901
  133OSM    C7F14429   6.422   6.263   7.375 -0.3556  0.2682 -0.3802
  133OSM    H7F14430   6.527   6.236   7.352 -0.1293  1.6929 -1.1434
  133OSM    H7G14431   6.359   6.179   7.411 -1.5913  2.1124  2.0611
  133OSM    C8F14432   6.442   6.372   7.489  0.9247  0.6316  0.0916
  133OSM    H8F14433   6.348   6.430   7.499  0.4794 -0.2258  1.2469
  133OSM    H8G14434   6.523   6.437   7.452  2.2503 -1.6467 -1.2588
  133OSM    C9F14435   6.483   6.331   7.632  0.9668 -0.3904  0.3669
  133OSM    H9F14436   6.582   6.287   7.648  0.5286 -0.7264  2.5309
  133OSM   C10F14437   6.412   6.354   7.746 -0.2338  0.3601  0.2987
  133OSM   H10F14438   6.459   6.325   7.841  0.8722  2.7022  0.5547
  133OSM   C11F14439   6.277   6.412   7.757  0.3643  0.1711 -0.2636
  133OSM   H11F14440   6.229   6.361   7.843 -0.6336  0.6323 -0.5353
  133OSM   H11G14441   6.213   6.404   7.666  0.2233  1.7147 -0.3272
  133OSM   C12F14442   6.272   6.561   7.795  1.0016 -0.3166  0.3861
  133OSM   H12F14443   6.168   6.598   7.781  1.2917  0.0490 -1.0227
  133OSM   H12G14444   6.319   6.627   7.719  1.8224 -0.1880  0.9874
  133OSM   C13F14445   6.331   6.597   7.934 -0.2361 -0.1863 -0.4210
  133OSM   H13F14446   6.344   6.707   7.941  0.7656 -0.3294  0.0908
  133OSM   H13G14447   6.421   6.535   7.952 -1.1415 -1.6955 -0.8744
  133OSM   C14F14448   6.236   6.557   8.053  0.4670 -0.0177  0.2519
  133OSM   H14F14449   6.222   6.447   8.054 -1.3867  0.1845 -0.2943
  133OSM   H14G14450   6.141   6.615   8.048  0.0360 -0.7290 -0.0412
  133OSM   C15F14451   6.286   6.578   8.201 -0.2379  0.2439  0.1615
  133OSM   H15F14452   6.287   6.685   8.229 -1.3145  0.6141 -1.0747
  133OSM   H15G14453   6.381   6.525   8.222 -1.1060 -0.6672  2.0665
  133OSM   C16F14454   6.186   6.537   8.321 -0.2597 -0.3504 -0.0190
  133OSM   H16F14455   6.152   6.433   8.297 -0.3619 -0.4040  0.3367
  133OSM   H16G14456   6.105   6.611   8.336  0.0396 -0.4011  2.3501
  133OSM   C17F14457   6.260   6.532   8.454 -0.3835  0.2471  0.1528
  133OSM   H17F14458   6.323   6.623   8.459  0.1763 -0.1623  0.6275
  133OSM   H17G14459   6.334   6.450   8.456 -1.4295 -0.7580 -0.8788
  133OSM   C18F14460   6.160   6.523   8.579 -0.2704  0.1330  0.2416
  133OSM   H18F14461   6.096   6.434   8.561  0.6519 -0.3854 -0.5897
  133OSM   H18G14462   6.108   6.620   8.593 -0.8213 -0.4622  2.6906
  133OSM   H18H14463   6.220   6.504   8.670 -0.3248 -0.3599  0.1754
  134OSM      N14464   3.651   1.381   6.153 -0.7119 -0.2315  0.1726
  134OSM    C1514465   3.509   1.354   6.149 -0.0476  0.2384 -0.3264
  134OSM   H15A14466   3.476   1.347   6.046 -2.5799 -0.6287  0.4945
  134OSM   H15B14467   3.451   1.435   6.190 -2.4351 -0.4586 -2.0911
  134OSM   H15C14468   3.476   1.272   6.211 -3.0118  2.2032  0.8931
  134OSM    C1414469   3.712   1.255   6.105 -0.8785  0.2986 -0.5432
  134OSM   H14A14470   3.819   1.265   6.099 -0.7836  0.6533  1.1572
  134OSM   H14B14471   3.666   1.228   6.011 -2.5384  1.0994 -0.0003
  134OSM   H14C14472   3.683   1.179   6.177 -0.5634  1.9387  1.3847
  134OSM    C1314473   3.678   1.489   6.051 -0.5289 -0.0443 -0.0415
  134OSM   H13A14474   3.782   1.501   6.025 -0.6106 -1.2330 -0.9987
  134OSM   H13B14475   3.646   1.583   6.094 -0.6529  1.5188 -3.2200
  134OSM   H13C14476   3.635   1.474   5.953  3.1114 -3.0845 -1.3973
  134OSM    C1214477   3.705   1.414   6.294 -0.9016  0.1878 -0.1047
  134OSM   H12A14478   3.812   1.408   6.305 -1.0484  0.4781  1.7587
  134OSM   H12B14479   3.662   1.353   6.371  2.4208  0.6831  2.3535
  134OSM    C1114480   3.663   1.556   6.343 -0.2074 -0.3594 -1.1991
  134OSM   H11A14481   3.694   1.639   6.276  0.1234  1.0342  0.6204
  134OSM   H11B14482   3.715   1.572   6.440 -0.1884  0.7766 -1.3816
  134OSM      P14483   3.440   1.678   6.370  0.3274 -0.0489 -0.2967
  134OSM    O1314484   3.457   1.733   6.232 -0.5285 -0.0319  0.2450
  134OSM    O1414485   3.301   1.661   6.410 -0.2443 -0.6027  0.0790
  134OSM    O1114486   3.509   1.767   6.487  0.4416 -0.4749  0.2584
  134OSM    O1214487   3.520   1.547   6.364  0.7273 -0.2135 -0.5830
  134OSM    C1S14488   3.528   1.690   6.609  0.4601  0.1932  0.1860
  134OSM    H1S14489   3.622   1.630   6.612 -1.2485 -2.6886 -0.3101
  134OSM    H1T14490   3.443   1.625   6.638  0.5746  0.2440  0.6414
  134OSM     NF14491   3.597   1.737   6.846 -0.2655 -0.1275 -0.1994
  134OSM    HNF14492   3.546   1.739   6.932  0.8131 -1.1002  0.4954
  134OSM    C2S14493   3.532   1.788   6.728 -0.1199  0.5387 -1.0494
  134OSM    H2S14494   3.601   1.871   6.702  0.3643  0.7290  0.6959
  134OSM    C3S14495   3.388   1.853   6.757 -0.3986  0.1246  0.4553
  134OSM    H3S14496   3.316   1.773   6.784  0.1302 -0.2149  0.8783
  134OSM     O314497   3.336   1.934   6.649 -0.4593 -0.2343  0.4313
  134OSM    HO314498   3.372   1.887   6.573  0.7591  0.0161  0.8370
  134OSM    C4S14499   3.391   1.950   6.875 -0.0382  0.7615 -0.3811
  134OSM    H4S14500   3.455   2.038   6.860  0.9596 -0.1668 -1.8260
  134OSM    C5S14501   3.326   1.932   6.991  0.1471 -0.3830 -0.4109
  134OSM    H5S14502   3.271   1.837   7.004 -2.0785  0.6854 -1.4494
  134OSM    C6S14503   3.334   2.031   7.106  0.3529 -0.7099 -0.1802
  134OSM    H6S14504   3.325   2.137   7.077 -0.3053 -0.3536  1.2364
  134OSM    H6T14505   3.434   2.024   7.154  0.2137  1.0158  0.3987
  134OSM    C7S14506   3.228   2.015   7.214  0.5418  0.4357 -0.6644
  134OSM    H7S14507   3.223   1.905   7.232  0.6847  0.2674 -1.6049
  134OSM    H7T14508   3.122   2.032   7.184 -0.2299 -2.1360  0.3672
  134OSM    C8S14509   3.261   2.100   7.340 -0.2713 -0.1663 -0.7882
  134OSM    H8S14510   3.272   2.204   7.301 -2.3084  1.0381  1.5192
  134OSM    H8T14511   3.358   2.071   7.385 -1.1777 -0.4584  1.0882
  134OSM    C9S14512   3.151   2.093   7.451  0.4214  0.3702 -0.0599
  134OSM    H9S14513   3.128   1.992   7.490 -0.0826  1.0117  1.3414
  134OSM    H9T14514   3.063   2.149   7.413  1.1930  2.5391  1.1904
  134OSM   C10S14515   3.192   2.161   7.576 -0.5191 -0.5836  0.9452
  134OSM   H10S14516   3.161   2.267   7.570 -2.2526 -1.1342 -0.6959
  134OSM   H10T14517   3.303   2.155   7.575 -0.3776  1.3078  1.5776
  134OSM   C11S14518   3.130   2.088   7.701 -0.5540  0.1050  0.2898
  134OSM   H11S14519   3.199   2.006   7.730  0.4348  0.7856 -0.0450
  134OSM   H11T14520   3.032   2.053   7.662 -1.8539  1.5699  2.0691
  134OSM   C12S14521   3.114   2.178   7.819 -0.6915 -0.3465  0.1021
  134OSM   H12S14522   3.038   2.256   7.800 -0.0632  0.3249  0.3097
  134OSM   H12T14523   3.210   2.231   7.833 -1.2337 -0.1913  4.7038
  134OSM   C13S14524   3.077   2.106   7.946  0.4204  0.2412  0.5416
  134OSM   H13S14525   3.065   2.183   8.025 -0.0703 -1.1493  1.8714
  134OSM   H13T14526   3.152   2.029   7.975  0.1827 -0.0825  0.3091
  134OSM   C14S14527   2.942   2.032   7.938 -0.6084 -0.3443 -0.1766
  134OSM   H14S14528   2.955   1.936   7.884  3.2214 -0.2655  0.3518
  134OSM   H14T14529   2.865   2.092   7.886  0.1465  0.4866 -0.3513
  134OSM   C15S14530   2.883   1.994   8.072  0.6047  0.1606  0.1049
  134OSM   H15S14531   2.795   1.926   8.063  1.0645 -0.4311  0.0254
  134OSM   H15T14532   2.843   2.090   8.112 -0.4576  0.1610 -0.8854
  134OSM   C16S14533   2.987   1.935   8.175 -0.7108 -0.1889 -0.5904
  134OSM   H16S14534   3.066   2.008   8.204  0.7624 -2.7315  2.3132
  134OSM   H16T14535   3.038   1.847   8.131  2.4783  0.0696  2.1848
  134OSM   C17S14536   2.928   1.913   8.314 -0.1318  0.0240 -0.3133
  134OSM   H17S14537   2.999   1.857   8.378 -0.8248  2.0879  2.5135
  134OSM   H17T14538   2.837   1.848   8.307 -1.2865  1.3279  1.4680
  134OSM   C18S14539   2.902   2.049   8.391 -0.3742 -0.0031 -0.2558
  134OSM   H18S14540   2.995   2.110   8.392  1.0148 -1.9978  1.7913
  134OSM   H18T14541   2.873   2.026   8.496  0.0514 -2.6027 -0.6303
  134OSM   H18U14542   2.818   2.107   8.347  0.5069  2.4597  1.0961
  134OSM    C1F14543   3.721   1.696   6.843 -0.4037  0.0852 -0.9061
  134OSM     OF14544   3.806   1.738   6.759  0.2101  0.0346 -0.4016
  134OSM    C2F14545   3.762   1.606   6.961  0.1468  0.1056 -0.3218
  134OSM    H2F14546   3.710   1.508   6.963  0.1450  0.1128  1.4584
  134OSM    H2G14547   3.715   1.658   7.047  2.0713  0.4131  0.6104
  134OSM    C3F14548   3.917   1.602   6.993 -0.8184  0.2203 -0.0940
  134OSM    H3F14549   3.961   1.704   7.000  1.9280 -0.7351 -1.7956
  134OSM    H3G14550   3.978   1.549   6.917 -1.9357  0.0110 -0.8764
  134OSM    C4F14551   3.954   1.525   7.121  0.3811  0.2924 -0.9975
  134OSM    H4F14552   4.061   1.530   7.150 -0.2029  1.6735  1.1153
  134OSM    H4G14553   3.923   1.419   7.106  1.9307 -0.8293  2.6760
  134OSM    C5F14554   3.881   1.570   7.249 -0.5594 -0.0086 -0.8342
  134OSM    H5F14555   3.776   1.535   7.240 -0.2032 -1.3444 -0.0275
  134OSM    H5G14556   3.891   1.680   7.254 -1.2983  0.0345  0.0017
  134OSM    C6F14557   3.938   1.519   7.377 -0.2089  0.4037 -0.1827
  134OSM    H6F14558   4.047   1.541   7.386 -0.1507  0.2478 -0.5070
  134OSM    H6G14559   3.918   1.412   7.400 -0.6560  0.6661  0.7210
  134OSM    C7F14560   3.862   1.584   7.490  0.1900  0.1145 -0.7703
  134OSM    H7F14561   3.762   1.540   7.511 -0.9360  2.2811 -1.3012
  134OSM    H7G14562   3.851   1.692   7.466  0.7682  0.2948 -0.2372
  134OSM    C8F14563   3.928   1.567   7.626 -0.3923 -0.0589 -0.6023
  134OSM    H8F14564   3.901   1.658   7.683  0.7923  0.6750 -1.1703
  134OSM    H8G14565   4.038   1.578   7.611 -0.1475 -2.7133 -1.3566
  134OSM    C9F14566   3.888   1.452   7.716 -0.7289 -0.0938  0.0855
  134OSM    H9F14567   3.815   1.380   7.676  0.0391 -2.1293  2.1034
  134OSM   C10F14568   3.936   1.424   7.837 -0.0419 -0.9242  0.0958
  134OSM   H10F14569   3.889   1.339   7.890  2.2387 -1.6582  1.0418
  134OSM   C11F14570   4.028   1.500   7.929  0.2594 -0.1032  0.9098
  134OSM   H11F14571   4.065   1.589   7.873 -1.4297  0.4937  0.6931
  134OSM   H11G14572   4.116   1.434   7.945 -1.4583 -1.9781  3.6096
  134OSM   C12F14573   3.971   1.537   8.063 -0.1973  0.0998  0.0747
  134OSM   H12F14574   3.973   1.438   8.113  0.5716 -0.5624 -1.2116
  134OSM   H12G14575   3.867   1.576   8.069 -0.1640  0.3146 -0.7233
  134OSM   C13F14576   4.063   1.633   8.139 -0.0306 -0.0159  0.1102
  134OSM   H13F14577   4.095   1.723   8.082  1.1912  0.0173  0.8116
  134OSM   H13G14578   4.159   1.582   8.160 -0.7009 -2.0195 -1.2855
  134OSM   C14F14579   4.006   1.684   8.274  1.0165  0.6396 -1.1563
  134OSM   H14F14580   3.903   1.724   8.256 -0.1965 -1.8534 -0.1942
  134OSM   H14G14581   4.075   1.762   8.310  0.4853 -0.5891  3.0136
  134OSM   C15F14582   3.985   1.569   8.372 -0.6078 -0.8727  0.2294
  134OSM   H15F14583   4.082   1.515   8.362 -0.4691 -0.6642  0.4200
  134OSM   H15G14584   3.911   1.494   8.337 -0.1972 -1.8848  1.4189
  134OSM   C16F14585   3.967   1.615   8.518 -0.2144  0.0744  0.7292
  134OSM   H16F14586   3.926   1.531   8.577 -1.2581 -0.0385 -0.1108
  134OSM   H16G14587   3.880   1.683   8.523 -0.3571 -0.0879  0.5197
  134OSM   C17F14588   4.098   1.666   8.584  0.6309  0.5315  0.0634
  134OSM   H17F14589   4.120   1.767   8.544 -0.2983  0.9930  0.6977
  134OSM   H17G14590   4.175   1.592   8.553 -1.3129 -1.0543 -1.2529
  134OSM   C18F14591   4.101   1.659   8.738 -0.0192  0.1945  0.0932
  134OSM   H18F14592   4.202   1.677   8.781  0.9429 -4.3103  0.1957
  134OSM   H18G14593   4.055   1.568   8.781  1.6512 -0.4727  0.5505
  134OSM   H18H14594   4.031   1.743   8.757  0.6554  0.7548  0.1722
  135OSM      N14595   3.490   3.161   6.004 -0.6851  0.4344  0.6663
  135OSM    C1514596   3.381   3.090   5.933  0.0548  0.1359 -0.4722
  135OSM   H15A14597   3.343   3.003   5.984 -1.6215  0.7224 -0.6899
  135OSM   H15B14598   3.417   3.046   5.841 -1.0682 -0.0801 -0.8199
  135OSM   H15C14599   3.299   3.157   5.915 -1.4032 -1.1615  1.1050
  135OSM    C1414600   3.593   3.065   6.055 -0.2557  0.9774  0.2401
  135OSM   H14A14601   3.554   2.985   6.117  1.4862  1.4997  2.1016
  135OSM   H14B14602   3.675   3.118   6.101 -0.8654  1.6107  0.6311
  135OSM   H14C14603   3.639   3.011   5.974  2.2183 -0.4102  2.4029
  135OSM    C1314604   3.558   3.238   5.892  0.6379 -0.2981 -0.3405
  135OSM   H13A14605   3.649   3.282   5.930  1.5689 -2.3597 -0.0675
  135OSM   H13B14606   3.485   3.307   5.852 -0.9900 -1.7959 -0.0636
  135OSM   H13C14607   3.577   3.174   5.807  2.0606  1.6894 -1.6170
  135OSM    C1214608   3.438   3.249   6.106 -0.3100  0.4470 -0.2735
  135OSM   H12A14609   3.381   3.190   6.176  2.0521 -1.4521  0.1832
  135OSM   H12B14610   3.362   3.314   6.065  0.7271  2.1604  0.3890
  135OSM    C1114611   3.542   3.326   6.194  0.1576 -0.4034 -0.0253
  135OSM   H11A14612   3.631   3.352   6.133 -0.9522 -0.7583 -1.8587
  135OSM   H11B14613   3.582   3.265   6.278  0.5796  0.9594  0.8037
  135OSM      P14614   3.357   3.452   6.338 -0.0252  0.4461  0.1031
  135OSM    O1314615   3.326   3.597   6.364 -0.4644  0.2562 -0.1241
  135OSM    O1414616   3.247   3.368   6.285  0.9569  0.0468 -0.0954
  135OSM    O1114617   3.413   3.397   6.479  0.2525  0.6505  0.3615
  135OSM    O1214618   3.482   3.449   6.241  0.3912  0.0283  0.9907
  135OSM    C1S14619   3.529   3.457   6.524  0.1515  0.8572 -0.7317
  135OSM    H1S14620   3.537   3.562   6.490 -0.8782  2.1791  2.7612
  135OSM    H1T14621   3.615   3.400   6.484  0.9718 -0.3335  2.4618
  135OSM     NF14622   3.646   3.548   6.728 -0.0504 -0.7127  0.4483
  135OSM    HNF14623   3.726   3.511   6.774  0.4276  1.1565  1.1834
  135OSM    C2S14624   3.542   3.462   6.683  0.4131 -0.4904 -0.3287
  135OSM    H2S14625   3.445   3.497   6.724 -0.9773 -2.1201 -2.0369
  135OSM    C3S14626   3.558   3.312   6.728  0.5691  0.4068 -0.3936
  135OSM    H3S14627   3.645   3.269   6.672  1.1482  1.6886 -0.5325
  135OSM     O314628   3.444   3.228   6.701 -0.2680 -0.4685 -0.2916
  135OSM    HO314629   3.389   3.271   6.636 -0.6503  0.7865  0.8282
  135OSM    C4S14630   3.576   3.303   6.879  0.0593 -0.2785  0.4167
  135OSM    H4S14631   3.675   3.271   6.914  0.5468 -1.3508 -1.7983
  135OSM    C5S14632   3.501   3.364   6.973 -0.2311 -0.0071 -0.3522
  135OSM    H5S14633   3.421   3.433   6.941 -0.5639  0.0977  0.6820
  135OSM    C6S14634   3.523   3.369   7.119  0.6940  0.2467 -0.2264
  135OSM    H6S14635   3.614   3.310   7.144  0.0055 -0.4346  0.7593
  135OSM    H6T14636   3.436   3.327   7.173 -0.6127  2.6221 -0.3132
  135OSM    C7S14637   3.544   3.512   7.169 -0.0598  0.6729 -0.9752
  135OSM    H7S14638   3.443   3.557   7.155 -0.3748  0.6720  0.9456
  135OSM    H7T14639   3.622   3.581   7.128  1.1824  0.6347  1.1526
  135OSM    C8S14640   3.582   3.511   7.318 -0.1729 -0.6352 -0.3058
  135OSM    H8S14641   3.653   3.592   7.345 -0.2697  0.3245 -2.7126
  135OSM    H8T14642   3.631   3.413   7.338 -0.3936 -0.2839  2.3205
  135OSM    C9S14643   3.456   3.532   7.409  0.1505 -0.6728 -0.1620
  135OSM    H9S14644   3.399   3.438   7.392  1.0734 -1.6812  1.9379
  135OSM    H9T14645   3.389   3.619   7.395  0.4607 -0.2363  1.0002
  135OSM   C10S14646   3.496   3.532   7.558 -0.3005 -0.4220 -0.6393
  135OSM   H10S14647   3.405   3.539   7.621  1.4774 -0.9545  2.1960
  135OSM   H10T14648   3.562   3.620   7.572 -0.3860 -0.5507  0.6940
  135OSM   C11S14649   3.573   3.406   7.611 -0.7372  0.2389  0.3181
  135OSM   H11S14650   3.666   3.404   7.549 -0.1736  0.3317  1.1429
  135OSM   H11T14651   3.519   3.311   7.591 -0.5033  0.8113 -3.8331
  135OSM   C12S14652   3.610   3.423   7.757  0.2335 -0.2969 -0.0432
  135OSM   H12S14653   3.666   3.519   7.765 -1.3749  1.2804 -4.5886
  135OSM   H12T14654   3.687   3.348   7.786  0.1285 -0.6401 -0.6443
  135OSM   C13S14655   3.493   3.420   7.854  0.1074  0.5445  0.1438
  135OSM   H13S14656   3.451   3.316   7.853 -1.5438  1.1727 -0.4305
  135OSM   H13T14657   3.406   3.486   7.831  0.2146  1.7942  2.9235
  135OSM   C14S14658   3.523   3.447   7.996 -0.2237 -0.6933  0.0490
  135OSM   H14S14659   3.570   3.547   8.000  1.9597 -1.5698 -1.7197
  135OSM   H14T14660   3.596   3.368   8.023  2.1244  1.3177 -0.0869
  135OSM   C15S14661   3.404   3.419   8.097 -0.5884 -1.2665 -0.3472
  135OSM   H15S14662   3.348   3.326   8.073 -1.7747 -0.5798 -0.2887
  135OSM   H15T14663   3.326   3.497   8.088 -1.4696 -1.8838  1.4498
  135OSM   C16S14664   3.451   3.409   8.235 -0.1647  0.4717  0.4537
  135OSM   H16S14665   3.469   3.509   8.279 -1.6686  1.7758 -1.7499
  135OSM   H16T14666   3.552   3.364   8.229 -0.9807 -1.3430 -0.5432
  135OSM   C17S14667   3.357   3.332   8.329  0.4929 -0.0344  0.1162
  135OSM   H17S14668   3.397   3.311   8.430  1.1960 -0.8088 -0.3137
  135OSM   H17T14669   3.339   3.231   8.286 -0.2070  1.1665 -2.6563
  135OSM   C18S14670   3.214   3.404   8.358  0.0338  0.0649  0.0293
  135OSM   H18S14671   3.151   3.412   8.267 -1.7263  1.7990  1.3354
  135OSM   H18T14672   3.235   3.501   8.408 -1.7115  0.2003  0.5866
  135OSM   H18U14673   3.145   3.350   8.427 -1.5482 -0.6874 -2.0217
  135OSM    C1F14674   3.650   3.682   6.694 -0.0533  0.3637 -0.1253
  135OSM     OF14675   3.558   3.740   6.641  0.5141 -0.3509 -0.2029
  135OSM    C2F14676   3.780   3.754   6.718 -0.1422  0.3445  0.1008
  135OSM    H2F14677   3.827   3.777   6.621  1.3008  1.0474  0.9313
  135OSM    H2G14678   3.845   3.679   6.768 -0.6842 -1.8728 -2.3097
  135OSM    C3F14679   3.774   3.892   6.793 -0.1096  1.0166  0.2769
  135OSM    H3F14680   3.710   3.960   6.732 -0.2788 -2.6018 -4.1474
  135OSM    H3G14681   3.880   3.925   6.801  0.8444 -1.8215  0.5628
  135OSM    C4F14682   3.720   3.881   6.936 -0.2036 -0.3004 -0.7447
  135OSM    H4F14683   3.622   3.831   6.936 -0.9954  1.1400  0.8833
  135OSM    H4G14684   3.701   3.981   6.980  0.3675 -0.5301  0.0366
  135OSM    C5F14685   3.830   3.806   7.022  0.5267 -0.9521 -0.6162
  135OSM    H5F14686   3.930   3.853   7.006  0.1237  0.3344  0.4495
  135OSM    H5G14687   3.814   3.699   6.997 -1.2976 -0.4710 -1.6955
  135OSM    C6F14688   3.801   3.810   7.173 -0.4520 -0.3389  0.4625
  135OSM    H6F14689   3.844   3.719   7.221 -1.3876 -1.4418 -0.7203
  135OSM    H6G14690   3.690   3.807   7.180 -0.6310 -0.0663 -1.7162
  135OSM    C7F14691   3.842   3.940   7.246  0.0361 -0.5220 -0.4605
  135OSM    H7F14692   3.811   4.024   7.180 -2.8132 -1.2547 -0.2092
  135OSM    H7G14693   3.952   3.943   7.261  0.0187  0.8320 -0.5141
  135OSM    C8F14694   3.774   3.954   7.383  0.2178 -0.2243 -0.4005
  135OSM    H8F14695   3.664   3.963   7.371  0.4450  3.3941 -1.1119
  135OSM    H8G14696   3.813   4.051   7.421 -2.4979  1.1691 -0.9274
  135OSM    C9F14697   3.788   3.834   7.474 -0.0314  0.5820 -0.0060
  135OSM    H9F14698   3.754   3.737   7.436 -0.7445  1.4482 -1.6825
  135OSM   C10F14699   3.865   3.838   7.579 -0.2672  0.3163 -0.3968
  135OSM   H10F14700   3.867   3.746   7.639  1.8952  1.0100  0.6618
  135OSM   C11F14701   3.945   3.959   7.631 -0.0010 -0.0993  0.1256
  135OSM   H11F14702   3.893   4.053   7.604  3.9071  1.7562 -1.6380
  135OSM   H11G14703   4.035   3.965   7.567  0.6959 -0.3401  1.0557
  135OSM   C12F14704   3.977   3.975   7.783 -0.7949 -0.3599 -0.1223
  135OSM   H12F14705   4.043   4.063   7.794 -0.3637 -0.6643 -0.2256
  135OSM   H12G14706   4.034   3.883   7.810  2.5168  1.4579 -0.4957
  135OSM   C13F14707   3.842   3.978   7.855  0.0376 -0.5498 -0.1396
  135OSM   H13F14708   3.774   3.902   7.810  0.0569 -0.8337  0.2958
  135OSM   H13G14709   3.788   4.075   7.849  1.6715  0.3264 -1.0668
  135OSM   C14F14710   3.857   3.932   8.006  0.4217  0.4267 -0.1410
  135OSM   H14F14711   3.890   4.015   8.073  0.7505  0.0043  0.2280
  135OSM   H14G14712   3.937   3.855   8.009  0.1594  0.1384 -0.4564
  135OSM   C15F14713   3.732   3.873   8.055  0.3100 -0.4728  0.5674
  135OSM   H15F14714   3.722   3.776   8.001 -1.0906  0.2459 -0.5163
  135OSM   H15G14715   3.652   3.944   8.026  0.9099  0.2110  0.5698
  135OSM   C16F14716   3.711   3.841   8.203  1.0076 -0.3153  0.1565
  135OSM   H16F14717   3.606   3.818   8.233  1.0271  1.1220  1.3878
  135OSM   H16G14718   3.732   3.933   8.260 -0.4648  0.0245  0.1862
  135OSM   C17F14719   3.798   3.736   8.262 -0.3767 -0.2840 -0.1906
  135OSM   H17F14720   3.897   3.786   8.256  0.1409 -1.1675  0.6546
  135OSM   H17G14721   3.794   3.644   8.201 -1.6767 -0.3094 -0.0842
  135OSM   C18F14722   3.772   3.692   8.404  0.5155 -0.0351 -0.3883
  135OSM   H18F14723   3.666   3.659   8.407  0.4320  0.0647 -1.5539
  135OSM   H18G14724   3.781   3.773   8.479 -2.4072 -0.6614  0.7789
  135OSM   H18H14725   3.831   3.600   8.421  0.4361 -0.4194 -1.9892
  136OSM      N14726   1.196   4.534   6.102 -0.1836 -0.2099  0.6909
  136OSM    C1514727   1.071   4.464   6.120  0.4645  0.0263 -0.2741
  136OSM   H15A14728   1.008   4.446   6.034 -0.3730 -1.6224  0.6581
  136OSM   H15B14729   1.006   4.533   6.172  0.1230 -0.4900 -0.0156
  136OSM   H15C14730   1.083   4.365   6.162  0.2632  0.0268 -0.2122
  136OSM    C1414731   1.266   4.468   5.988 -0.2211  0.2466 -0.1699
  136OSM   H14A14732   1.361   4.516   5.969  0.0527 -0.0697  0.3823
  136OSM   H14B14733   1.208   4.479   5.897 -1.1231  4.0515  0.6715
  136OSM   H14C14734   1.275   4.362   6.008 -1.1658 -0.0237 -1.0733
  136OSM    C1314735   1.181   4.681   6.060 -0.6710  0.0827 -0.3444
  136OSM   H13A14736   1.096   4.690   5.994 -0.5476  0.2529 -0.4805
  136OSM   H13B14737   1.269   4.724   6.013 -0.9252  0.6096 -0.3421
  136OSM   H13C14738   1.155   4.748   6.140  0.6668  0.2327  0.0040
  136OSM    C1214739   1.271   4.521   6.231 -0.2896 -0.3791 -0.3471
  136OSM   H12A14740   1.195   4.547   6.304 -1.2216 -0.6361 -1.2012
  136OSM   H12B14741   1.352   4.588   6.253 -1.1526  0.4384  0.4762
  136OSM    C1114742   1.308   4.376   6.269 -0.6342  0.4880 -0.4129
  136OSM   H11A14743   1.210   4.322   6.267  1.1737 -3.1102 -2.7541
  136OSM   H11B14744   1.341   4.367   6.375  0.9231  0.9962 -0.8366
  136OSM      P14745   1.408   4.164   6.162 -0.2142 -0.4236 -0.1408
  136OSM    O1314746   1.322   4.137   6.044  0.1521 -0.6650  0.0799
  136OSM    O1414747   1.550   4.115   6.147 -0.2642 -0.5265  0.2797
  136OSM    O1114748   1.345   4.113   6.298 -0.4192 -0.5468 -0.9546
  136OSM    O1214749   1.408   4.323   6.185 -0.4847  0.1560 -0.1944
  136OSM    C1S14750   1.431   4.109   6.419  1.3006 -0.1612  0.7012
  136OSM    H1S14751   1.458   4.209   6.457  4.0978 -1.7120  3.1581
  136OSM    H1T14752   1.529   4.064   6.391  0.7437 -1.3732  0.6067
  136OSM     NF14753   1.452   4.028   6.655  0.3630  0.1391  0.2831
  136OSM    HNF14754   1.525   3.964   6.679 -0.8538 -1.4369 -0.0724
  136OSM    C2S14755   1.378   4.015   6.534 -0.7759  0.3969 -0.2617
  136OSM    H2S14756   1.272   4.034   6.560 -0.9444 -0.9689  0.1402
  136OSM    C3S14757   1.384   3.868   6.481  0.5223  0.4813 -0.1535
  136OSM    H3S14758   1.486   3.827   6.464 -0.4850 -2.4306  0.3963
  136OSM     O314759   1.336   3.849   6.350 -0.1351 -0.3117  0.0309
  136OSM    HO314760   1.333   3.942   6.324  0.3105  0.4765  2.5318
  136OSM    C4S14761   1.328   3.772   6.583 -0.4594 -0.8441 -0.6181
  136OSM    H4S14762   1.415   3.731   6.635  0.1471 -0.7106 -1.4961
  136OSM    C5S14763   1.203   3.740   6.621 -0.6078  0.2359 -0.5732
  136OSM    H5S14764   1.113   3.781   6.574 -0.5944  0.5515 -0.3249
  136OSM    C6S14765   1.180   3.640   6.727 -0.1585 -0.1799  0.3833
  136OSM    H6S14766   1.235   3.546   6.703  0.7300  0.4389 -0.0396
  136OSM    H6T14767   1.074   3.607   6.714 -0.8147  2.6162 -2.4764
  136OSM    C7S14768   1.225   3.664   6.873  1.3999 -0.0836  0.1636
  136OSM    H7S14769   1.176   3.755   6.916  1.7340  0.3881 -0.4382
  136OSM    H7T14770   1.335   3.675   6.873  1.5962 -1.7839  0.5014
  136OSM    C8S14771   1.187   3.549   6.969  0.1505  0.5936  0.1009
  136OSM    H8S14772   1.205   3.450   6.924 -1.2390 -0.2541  1.3202
  136OSM    H8T14773   1.079   3.537   6.995 -0.4204 -1.6106 -2.7981
  136OSM    C9S14774   1.269   3.557   7.108 -0.6415 -0.3632 -0.1613
  136OSM    H9S14775   1.250   3.653   7.161 -2.7753 -1.3791  1.0182
  136OSM    H9T14776   1.376   3.570   7.079  0.0036 -1.1065  1.7372
  136OSM   C10S14777   1.250   3.435   7.193  0.4048  0.1096  0.4182
  136OSM   H10S14778   1.256   3.341   7.133  1.2138  0.7163 -0.4662
  136OSM   H10T14779   1.142   3.440   7.219  0.6447  0.5356  1.3625
  136OSM   C11S14780   1.344   3.435   7.308 -0.3717  0.4694 -1.2673
  136OSM   H11S14781   1.307   3.505   7.386  0.1256  0.8137 -1.3315
  136OSM   H11T14782   1.447   3.465   7.279  1.1076  0.3181  2.9877
  136OSM   C12S14783   1.350   3.297   7.359  0.6612 -0.1863 -0.3054
  136OSM   H12S14784   1.409   3.240   7.283 -1.2245 -0.9636 -1.2454
  136OSM   H12T14785   1.249   3.253   7.351  0.9020 -1.1175  1.3137
  136OSM   C13S14786   1.406   3.277   7.501  0.3949 -0.7875  0.7823
  136OSM   H13S14787   1.508   3.319   7.492  0.1962 -0.5962 -0.9880
  136OSM   H13T14788   1.413   3.167   7.515  0.3454 -0.8892  0.0457
  136OSM   C14S14789   1.319   3.330   7.619 -0.7435 -1.0657 -0.1385
  136OSM   H14S14790   1.214   3.310   7.589 -0.5137 -0.6307 -1.2599
  136OSM   H14T14791   1.340   3.439   7.626 -0.3202 -1.2102  1.1409
  136OSM   C15S14792   1.366   3.278   7.755  0.2725 -0.2714  1.0755
  136OSM   H15S14793   1.470   3.310   7.779  0.5650  1.1528 -1.6544
  136OSM   H15T14794   1.360   3.168   7.744 -1.2040 -0.0525 -0.9741
  136OSM   C16S14795   1.262   3.319   7.860  0.0562  0.4111  0.6088
  136OSM   H16S14796   1.160   3.282   7.836  0.3412 -0.8502  1.2391
  136OSM   H16T14797   1.243   3.428   7.870 -1.6744  0.0927  1.0106
  136OSM   C17S14798   1.314   3.280   8.005 -0.5973  0.1998  0.6305
  136OSM   H17S14799   1.249   3.321   8.086 -1.1531 -1.1732  0.9031
  136OSM   H17T14800   1.417   3.319   8.017 -0.1042 -1.1666  0.9852
  136OSM   C18S14801   1.307   3.133   8.036 -0.5175 -0.2128  0.3906
  136OSM   H18S14802   1.313   3.123   8.147 -3.5372 -0.3429  0.6270
  136OSM   H18T14803   1.391   3.078   7.989 -1.0670 -0.4117 -0.3799
  136OSM   H18U14804   1.216   3.089   7.989  1.0466 -0.6618 -2.4806
  136OSM    C1F14805   1.435   4.141   6.731  0.1892 -0.1072  0.4912
  136OSM     OF14806   1.352   4.231   6.696 -0.3975  0.2411 -0.1759
  136OSM    C2F14807   1.512   4.145   6.860  0.2946  0.0595 -0.5838
  136OSM    H2F14808   1.619   4.167   6.841  0.2139  1.9438  0.8631
  136OSM    H2G14809   1.503   4.050   6.918  3.4276  1.0628  1.8538
  136OSM    C3F14810   1.467   4.260   6.959 -0.6008  0.2308  0.0346
  136OSM    H3F14811   1.358   4.278   6.965 -0.6454 -0.0734  0.1805
  136OSM    H3G14812   1.507   4.356   6.919 -0.0666  0.4898  1.1485
  136OSM    C4F14813   1.520   4.240   7.107  1.7944  0.1877 -0.0491
  136OSM    H4F14814   1.512   4.134   7.139 -1.5110  0.7433  1.2901
  136OSM    H4G14815   1.451   4.295   7.174 -0.8795 -0.9637 -1.7115
  136OSM    C5F14816   1.667   4.276   7.123 -0.6411 -0.2329  0.4027
  136OSM    H5F14817   1.689   4.373   7.073  1.1981 -1.4048 -1.2309
  136OSM    H5G14818   1.722   4.196   7.069 -0.1601  1.0484 -1.0940
  136OSM    C6F14819   1.712   4.275   7.271 -0.4539  0.1052 -0.3883
  136OSM    H6F14820   1.654   4.206   7.335  1.2263 -1.8319 -0.8747
  136OSM    H6G14821   1.695   4.374   7.320  1.4894 -1.1388  3.1289
  136OSM    C7F14822   1.863   4.256   7.306  0.5256  0.2692 -0.6820
  136OSM    H7F14823   1.917   4.330   7.243 -0.2174  2.2157  0.8853
  136OSM    H7G14824   1.893   4.150   7.287 -1.1575 -1.1372  3.4007
  136OSM    C8F14825   1.892   4.302   7.454 -0.1829  0.6511 -0.4158
  136OSM    H8F14826   1.871   4.408   7.482 -0.0249  0.1227  1.8538
  136OSM    H8G14827   2.003   4.297   7.466 -0.0864  0.1221 -1.4630
  136OSM    C9F14828   1.837   4.197   7.559  0.7177  0.6159  0.4986
  136OSM    H9F14829   1.884   4.098   7.553  0.8800  0.7940 -2.4489
  136OSM   C10F14830   1.757   4.230   7.659 -0.0228  0.3155  0.7144
  136OSM   H10F14831   1.711   4.150   7.719 -1.5667 -1.1019 -2.1264
  136OSM   C11F14832   1.693   4.365   7.687 -0.0127 -0.5315 -0.0463
  136OSM   H11F14833   1.625   4.401   7.607 -0.1890  1.0999  0.8008
  136OSM   H11G14834   1.769   4.446   7.693 -1.8872  1.2047  1.6467
  136OSM   C12F14835   1.620   4.354   7.824 -0.2268  0.3135 -0.0227
  136OSM   H12F14836   1.532   4.287   7.814 -1.5671  2.0143 -0.0115
  136OSM   H12G14837   1.571   4.451   7.844  1.7517  1.4887 -0.5972
  136OSM   C13F14838   1.705   4.320   7.951  0.2092  0.3213  0.3222
  136OSM   H13F14839   1.802   4.375   7.952  0.0455  0.6236  1.7200
  136OSM   H13G14840   1.736   4.214   7.942 -0.5648  0.0077  1.2816
  136OSM   C14F14841   1.624   4.330   8.079 -0.3733 -0.1369  0.2027
  136OSM   H14F14842   1.522   4.291   8.064 -0.7123 -1.1379  4.0591
  136OSM   H14G14843   1.616   4.440   8.096 -0.0979  0.2901 -2.0326
  136OSM   C15F14844   1.695   4.270   8.199  0.4566  0.1005  0.2527
  136OSM   H15F14845   1.798   4.237   8.173  0.4245 -0.1368  0.4208
  136OSM   H15G14846   1.632   4.183   8.229 -0.2146  0.4283 -0.1575
  136OSM   C16F14847   1.708   4.368   8.318 -0.4260  0.1187  0.3731
  136OSM   H16F14848   1.604   4.375   8.357 -1.3726 -2.3182 -1.4175
  136OSM   H16G14849   1.752   4.463   8.282 -1.3589  0.6987  0.7256
  136OSM   C17F14850   1.791   4.308   8.430 -0.5107 -0.9163 -0.1147
  136OSM   H17F14851   1.816   4.381   8.510 -0.5637 -2.2689  1.1559
  136OSM   H17G14852   1.894   4.287   8.396 -0.4380 -1.5118  0.4656
  136OSM   C18F14853   1.739   4.178   8.499 -0.4929 -0.2072  0.5931
  136OSM   H18F14854   1.778   4.099   8.432  0.7990  0.1514  0.8960
  136OSM   H18G14855   1.628   4.170   8.504 -0.5902 -2.0252 -2.2071
  136OSM   H18H14856   1.786   4.171   8.600  0.3795  1.4149  0.3368
  137OSM      N14857   3.434   2.143   6.355 -0.4424 -0.5613  0.1899
  137OSM    C1514858   3.285   2.132   6.334  0.5676  0.9376 -0.8079
  137OSM   H15A14859   3.245   2.045   6.385 -2.0793  2.5502  0.1084
  137OSM   H15B14860   3.266   2.122   6.228 -1.3832 -0.5602 -0.3956
  137OSM   H15C14861   3.230   2.219   6.368  0.6581  1.3761 -1.7701
  137OSM    C1414862   3.497   2.024   6.304 -0.1156  0.5620 -0.9153
  137OSM   H14A14863   3.467   1.947   6.373 -1.5668  3.3126  1.7930
  137OSM   H14B14864   3.604   2.034   6.301 -0.2158  1.8138 -0.7255
  137OSM   H14C14865   3.477   2.006   6.199 -0.9173  1.2244 -0.8922
  137OSM    C1314866   3.477   2.250   6.259  0.5304  0.1620  0.2395
  137OSM   H13A14867   3.583   2.262   6.269  0.5540 -0.0080  0.1987
  137OSM   H13B14868   3.428   2.343   6.284  0.1646  0.1607 -0.4426
  137OSM   H13C14869   3.454   2.220   6.158  1.5797 -2.0727  0.5986
  137OSM    C1214870   3.476   2.172   6.498 -0.0769  0.5027 -0.2347
  137OSM   H12A14871   3.417   2.111   6.564  0.6121 -1.1705 -1.0880
  137OSM   H12B14872   3.461   2.274   6.529  1.3604  0.1655  1.7889
  137OSM    C1114873   3.633   2.156   6.528  0.1478  0.2836 -0.5766
  137OSM   H11A14874   3.670   2.051   6.540 -1.1189 -0.1039  0.0899
  137OSM   H11B14875   3.638   2.204   6.629 -1.1911  1.5644 -1.0912
  137OSM      P14876   3.846   2.168   6.381  0.5547 -0.1852  0.0290
  137OSM    O1314877   3.809   2.053   6.299  0.1543  0.1162  0.2023
  137OSM    O1414878   3.917   2.277   6.315 -0.6682  0.1517  0.0655
  137OSM    O1114879   3.940   2.131   6.500  0.2461  0.2924  0.2836
  137OSM    O1214880   3.719   2.232   6.449  0.2961  0.2556  0.2898
  137OSM    C1S14881   4.000   2.222   6.595  0.3725  0.3575  0.6861
  137OSM    H1S14882   3.923   2.288   6.641  1.0149  1.6947 -0.0878
  137OSM    H1T14883   4.074   2.290   6.548 -2.1252  1.6819 -1.5869
  137OSM     NF14884   4.103   2.255   6.808 -0.3737 -0.0854 -0.3113
  137OSM    HNF14885   4.201   2.276   6.806 -0.5686  0.8951 -0.0784
  137OSM    C2S14886   4.057   2.154   6.720  0.2795 -0.4226 -0.3200
  137OSM    H2S14887   3.973   2.107   6.774 -0.7514  1.3109 -0.3172
  137OSM    C3S14888   4.156   2.043   6.681 -0.4336  0.8670  0.3386
  137OSM    H3S14889   4.231   2.087   6.613 -0.3653  0.3466  0.0712
  137OSM     O314890   4.096   1.937   6.602 -0.0095 -0.2100  0.4293
  137OSM    HO314891   4.022   1.985   6.564 -0.3573 -0.7580  0.4017
  137OSM    C4S14892   4.212   1.985   6.800  0.2347  0.4027 -0.1275
  137OSM    H4S14893   4.148   1.923   6.866  1.9880 -0.7050  0.5982
  137OSM    C5S14894   4.344   2.000   6.837  0.0230  0.5947 -0.1496
  137OSM    H5S14895   4.412   2.054   6.771  0.1369  0.6647  0.0250
  137OSM    C6S14896   4.420   1.952   6.961  0.0955 -0.5842 -0.6860
  137OSM    H6S14897   4.456   2.043   7.013  0.6382 -0.2603 -1.6263
  137OSM    H6T14898   4.508   1.904   6.913  1.4986  0.5086  0.6830
  137OSM    C7S14899   4.351   1.842   7.049 -0.3193  0.1236 -0.3625
  137OSM    H7S14900   4.326   1.752   6.988 -1.1214  1.0192 -1.3773
  137OSM    H7T14901   4.251   1.878   7.083  1.0299  3.8139  0.0409
  137OSM    C8S14902   4.435   1.809   7.171  0.1967  0.4536 -0.1006
  137OSM    H8S14903   4.470   1.901   7.222  3.1424 -1.4726  1.6852
  137OSM    H8T14904   4.533   1.766   7.140  0.3875  0.7726  0.0562
  137OSM    C9S14905   4.356   1.737   7.280 -0.3060  0.1035 -0.6860
  137OSM    H9S14906   4.327   1.645   7.225  0.4539 -0.5421 -0.0403
  137OSM    H9T14907   4.270   1.795   7.319  2.2811  2.8903  1.3437
  137OSM   C10S14908   4.434   1.695   7.408 -0.0321  0.4183 -0.2766
  137OSM   H10S14909   4.472   1.792   7.449  1.1999 -0.8680  1.8266
  137OSM   H10T14910   4.523   1.638   7.374 -0.0215 -0.3472  0.9852
  137OSM   C11S14911   4.344   1.637   7.522 -0.2409  0.1302 -0.3997
  137OSM   H11S14912   4.286   1.559   7.469 -0.9662  1.0926 -1.0525
  137OSM   H11T14913   4.270   1.714   7.550  0.3419  0.5636 -0.0381
  137OSM   C12S14914   4.421   1.583   7.647  0.0481  0.0596 -0.0908
  137OSM   H12S14915   4.496   1.503   7.628 -1.9283 -1.7682 -0.5139
  137OSM   H12T14916   4.352   1.539   7.723 -0.2006 -0.5120 -0.6410
  137OSM   C13S14917   4.471   1.704   7.730 -0.5928  0.0944  0.2823
  137OSM   H13S14918   4.383   1.767   7.755 -0.2041  1.6175 -1.8786
  137OSM   H13T14919   4.544   1.767   7.675 -0.9143 -0.3620 -0.6918
  137OSM   C14S14920   4.536   1.656   7.865 -0.0559 -0.0002  0.7511
  137OSM   H14S14921   4.639   1.624   7.839  0.2973  1.3355  0.4368
  137OSM   H14T14922   4.479   1.569   7.905  0.0797 -0.7549 -0.6482
  137OSM   C15S14923   4.566   1.760   7.963 -0.3802 -0.0906 -0.6463
  137OSM   H15S14924   4.607   1.854   7.919 -1.9708  0.0187 -1.9856
  137OSM   H15T14925   4.641   1.711   8.028 -2.0276 -1.4181  0.3412
  137OSM   C16S14926   4.453   1.797   8.059 -0.0677  0.1157 -0.4253
  137OSM   H16S14927   4.385   1.710   8.057 -0.4379  0.4014 -0.3274
  137OSM   H16T14928   4.394   1.878   8.011 -1.0140 -0.4235 -0.1862
  137OSM   C17S14929   4.496   1.828   8.201 -0.1698 -0.1634  0.1818
  137OSM   H17S14930   4.543   1.928   8.203 -0.8565  0.2016  3.0599
  137OSM   H17T14931   4.570   1.750   8.229 -0.8922 -0.7802  0.4359
  137OSM   C18S14932   4.377   1.813   8.288  0.3991 -0.1094 -0.9132
  137OSM   H18S14933   4.299   1.893   8.282  0.3803 -0.0915 -0.4866
  137OSM   H18T14934   4.409   1.821   8.395 -0.6226  0.0328 -0.6065
  137OSM   H18U14935   4.325   1.715   8.284  1.9846 -0.9850 -0.8547
  137OSM    C1F14936   4.034   2.334   6.887  0.8672  0.5779  0.2758
  137OSM     OF14937   3.914   2.308   6.920 -0.5650 -0.5145 -0.4023
  137OSM    C2F14938   4.112   2.448   6.934  0.6708 -0.6053 -0.6645
  137OSM    H2F14939   4.129   2.520   6.851  1.3528 -1.6259 -1.4472
  137OSM    H2G14940   4.209   2.406   6.968  1.2615  0.7293 -0.6653
  137OSM    C3F14941   4.036   2.509   7.059 -0.5934 -0.2389 -0.3261
  137OSM    H3F14942   4.024   2.426   7.131 -0.3986  0.1210  0.1254
  137OSM    H3G14943   3.932   2.541   7.039 -0.6970 -1.0474 -1.1614
  137OSM    C4F14944   4.119   2.631   7.121 -0.4895 -0.3511 -0.1141
  137OSM    H4F14945   4.134   2.703   7.038  0.2779  1.7515  1.7511
  137OSM    H4G14946   4.221   2.596   7.147 -0.5654 -0.0997  0.5359
  137OSM    C5F14947   4.043   2.702   7.234 -0.2113  0.2612 -0.4361
  137OSM    H5F14948   3.940   2.737   7.212 -0.8528  0.2529  2.2446
  137OSM    H5G14949   4.089   2.800   7.260 -1.2373  0.6971 -0.2059
  137OSM    C6F14950   4.001   2.610   7.349 -0.0976 -0.6663 -0.3868
  137OSM    H6F14951   4.095   2.563   7.386  0.4167 -0.4467 -1.3681
  137OSM    H6G14952   3.931   2.535   7.307  0.6813 -0.4844 -2.1065
  137OSM    C7F14953   3.934   2.691   7.456 -0.4797 -0.1270 -0.0340
  137OSM    H7F14954   3.831   2.721   7.426 -0.2113 -0.4332 -1.3299
  137OSM    H7G14955   3.994   2.784   7.469 -0.1653 -0.4723  1.1232
  137OSM    C8F14956   3.921   2.614   7.597 -0.3089  0.2932  0.2147
  137OSM    H8F14957   3.858   2.527   7.571  0.1147 -0.0482  0.3170
  137OSM    H8G14958   3.862   2.669   7.673 -1.4345 -2.4314  1.4698
  137OSM    C9F14959   4.037   2.541   7.659  0.2190 -0.7257  0.1482
  137OSM    H9F14960   4.057   2.446   7.607  0.0762  0.7144 -2.6752
  137OSM   C10F14961   4.111   2.590   7.764 -0.2691  0.4962  0.0956
  137OSM   H10F14962   4.202   2.533   7.788  0.4572  0.5187 -2.2979
  137OSM   C11F14963   4.079   2.719   7.835  0.2126 -0.4515 -0.1864
  137OSM   H11F14964   4.023   2.792   7.773  1.1772  1.1410  0.7438
  137OSM   H11G14965   4.173   2.776   7.854 -0.5521  1.7117 -2.3417
  137OSM   C12F14966   4.004   2.684   7.965  0.0963 -0.5248  0.2283
  137OSM   H12F14967   3.915   2.620   7.949 -1.4726  1.4677  0.5660
  137OSM   H12G14968   3.961   2.781   7.999 -0.9742 -0.5992 -0.8341
  137OSM   C13F14969   4.099   2.640   8.074 -0.6567 -0.1821  0.5042
  137OSM   H13F14970   4.186   2.707   8.086  0.2082 -1.5308  2.0815
  137OSM   H13G14971   4.133   2.543   8.034  0.6140  0.2857  0.4038
  137OSM   C14F14972   4.047   2.625   8.217 -0.3692 -0.5745  0.2091
  137OSM   H14F14973   4.032   2.722   8.269 -1.5581 -0.6747  0.0867
  137OSM   H14G14974   4.129   2.565   8.262 -1.7952 -0.7570  2.7299
  137OSM   C15F14975   3.915   2.544   8.231 -0.5802  0.3902 -0.0312
  137OSM   H15F14976   3.925   2.482   8.323  0.1589 -1.3825 -1.2374
  137OSM   H15G14977   3.917   2.458   8.160  4.6591 -0.0918  0.3018
  137OSM   C16F14978   3.778   2.603   8.234  0.1084  0.7442  0.0882
  137OSM   H16F14979   3.784   2.677   8.152 -0.4108  0.6758 -0.0170
  137OSM   H16G14980   3.758   2.664   8.325  0.0240 -1.9821  2.0383
  137OSM   C17F14981   3.666   2.502   8.207  0.5723  0.2823  0.8779
  137OSM   H17F14982   3.682   2.434   8.121 -0.8041  0.4333  0.4762
  137OSM   H17G14983   3.575   2.565   8.193  0.9544  0.6999  0.2114
  137OSM   C18F14984   3.640   2.417   8.331  0.3417  0.0094 -0.7147
  137OSM   H18F14985   3.727   2.349   8.343 -0.3997 -0.8945 -0.4340
  137OSM   H18G14986   3.550   2.352   8.330 -0.3343  0.9185 -0.2915
  137OSM   H18H14987   3.639   2.488   8.417  0.9060  0.1035 -0.7812
  138OSM      N14988   5.201   5.810   5.804  0.1391 -0.0902  0.2118
  138OSM    C1514989   5.198   5.666   5.764  0.2340 -0.9419  0.5311
  138OSM   H15A14990   5.236   5.652   5.664  2.8615  2.7252  0.8097
  138OSM   H15B14991   5.097   5.628   5.773  0.7474 -2.0768  2.0115
  138OSM   H15C14992   5.258   5.603   5.828  2.3881 -0.5350 -0.9574
  138OSM    C1414993   5.342   5.844   5.831 -0.4501 -0.2801 -0.0191
  138OSM   H14A14994   5.356   5.949   5.853  0.1359 -0.6015  1.2240
  138OSM   H14B14995   5.403   5.821   5.745  1.1247  1.4173  0.5812
  138OSM   H14C14996   5.379   5.800   5.923  2.9958  1.2269 -0.5223
  138OSM    C1314997   5.140   5.899   5.696 -0.4853 -0.5325  0.1761
  138OSM   H13A14998   5.040   5.868   5.667 -0.5798  0.5610 -0.7468
  138OSM   H13B14999   5.202   5.907   5.608  2.8614  0.8361  2.4657
  138OSM   H13C15000   5.141   5.998   5.739  1.6429 -0.7562  0.7458
  138OSM    C1215001   5.113   5.813   5.933 -0.4531  0.7599  0.6998
  138OSM   H12A15002   5.011   5.786   5.910 -0.1891 -0.5304  1.0093
  138OSM   H12B15003   5.122   5.913   5.974  0.9273  1.3621 -0.9422
  138OSM    C1115004   5.159   5.714   6.047 -0.0755  0.0171 -0.0425
  138OSM   H11A15005   5.160   5.608   6.012  2.1623  0.4044 -1.3962
  138OSM   H11B15006   5.090   5.715   6.134  2.0162 -2.8889  1.8454
  138OSM      P15007   5.308   5.856   6.207  0.3961  0.1659  0.2093
  138OSM    O1315008   5.449   5.893   6.206  0.0587  0.1638 -0.2605
  138OSM    O1415009   5.214   5.961   6.171  0.2402 -0.4240 -0.3839
  138OSM    O1115010   5.277   5.771   6.333  0.2563  0.2544 -0.3423
  138OSM    O1215011   5.291   5.745   6.089 -0.1901 -0.9429 -0.4699
  138OSM    C1S15012   5.326   5.634   6.354 -0.6661 -0.3885 -0.6804
  138OSM    H1S15013   5.421   5.620   6.299  0.7334  0.9163  1.2676
  138OSM    H1T15014   5.258   5.558   6.310  0.4357 -1.5141 -0.4844
  138OSM     NF15015   5.428   5.476   6.517  0.0672  0.4416 -0.6739
  138OSM    HNF15016   5.375   5.391   6.523 -0.2027  0.7040  1.4137
  138OSM    C2S15017   5.355   5.603   6.499 -0.1532  0.4959 -1.2248
  138OSM    H2S15018   5.412   5.685   6.548 -0.8752  1.0173 -1.2440
  138OSM    C3S15019   5.217   5.597   6.569  0.3770 -0.9259 -0.1416
  138OSM    H3S15020   5.146   5.519   6.532 -1.9509  0.9065  0.2215
  138OSM     O315021   5.128   5.712   6.546  0.3270 -0.5201 -0.3398
  138OSM    HO315022   5.144   5.732   6.453 -1.4823  0.8666 -0.3965
  138OSM    C4S15023   5.229   5.573   6.716  0.0013  0.1745  0.6365
  138OSM    H4S15024   5.189   5.478   6.754  0.1804 -0.6587 -1.1595
  138OSM    C5S15025   5.271   5.669   6.803 -0.3755  0.3254 -0.2065
  138OSM    H5S15026   5.299   5.771   6.773  0.7907  0.8274  2.3113
  138OSM    C6S15027   5.284   5.655   6.952  0.3542 -0.7107  0.2826
  138OSM    H6S15028   5.209   5.722   6.999  3.1872  2.2712  0.8655
  138OSM    H6T15029   5.388   5.680   6.984  0.6015  0.3124 -1.2189
  138OSM    C7S15030   5.259   5.511   7.007 -0.4790 -0.0417  1.0139
  138OSM    H7S15031   5.319   5.440   6.947 -0.5137 -0.2859  1.2634
  138OSM    H7T15032   5.157   5.470   6.988 -0.7037 -0.2494  2.5366
  138OSM    C8S15033   5.289   5.492   7.156 -0.0354 -0.4456  0.1068
  138OSM    H8S15034   5.252   5.391   7.186  0.8974 -0.4680  1.2667
  138OSM    H8T15035   5.248   5.575   7.217  0.6360  0.6760 -0.9413
  138OSM    C9S15036   5.440   5.501   7.186 -0.1035 -0.0169  0.5011
  138OSM    H9S15037   5.487   5.596   7.154  2.4434 -0.4745  2.5602
  138OSM    H9T15038   5.498   5.420   7.136 -0.7770  0.3945 -0.9934
  138OSM   C10S15039   5.468   5.487   7.336 -0.1775  0.1811 -0.3473
  138OSM   H10S15040   5.415   5.396   7.371 -0.3599  0.0699 -0.9043
  138OSM   H10T15041   5.422   5.571   7.394 -1.0704  0.9486 -2.1115
  138OSM   C11S15042   5.619   5.482   7.356  0.5543 -0.0421  0.4369
  138OSM   H11S15043   5.656   5.577   7.311 -0.5695 -0.2104 -0.9301
  138OSM   H11T15044   5.659   5.394   7.302 -1.4629 -0.2223 -0.8757
  138OSM   C12S15045   5.653   5.479   7.501  0.0206  0.5290 -0.2146
  138OSM   H12S15046   5.586   5.400   7.544 -1.9932  2.6189  0.7232
  138OSM   H12T15047   5.603   5.568   7.546 -2.5444 -1.0500  0.3197
  138OSM   C13S15048   5.798   5.453   7.549  0.0425 -0.3321  0.3220
  138OSM   H13S15049   5.874   5.512   7.493  0.5922 -0.0317  1.3579
  138OSM   H13T15050   5.818   5.345   7.531 -1.4742 -0.6973  0.6616
  138OSM   C14S15051   5.808   5.489   7.697 -0.7768  0.2394 -0.3589
  138OSM   H14S15052   5.901   5.442   7.733  0.0955  2.2498  0.1105
  138OSM   H14T15053   5.724   5.447   7.757  2.1420 -3.4436  1.5315
  138OSM   C15S15054   5.830   5.633   7.716  0.5019  0.1969 -0.7090
  138OSM   H15S15055   5.744   5.685   7.669 -0.1989 -0.4379 -0.1440
  138OSM   H15T15056   5.923   5.664   7.663  1.1881  1.4568  1.1329
  138OSM   C16S15057   5.836   5.667   7.869 -0.5058 -0.0446 -0.4888
  138OSM   H16S15058   5.752   5.621   7.925 -0.0799  0.6881  0.8202
  138OSM   H16T15059   5.831   5.778   7.881  1.1642  0.0468 -0.3752
  138OSM   C17S15060   5.962   5.616   7.937  0.7354  0.4025  0.4915
  138OSM   H17S15061   6.055   5.655   7.891 -0.0637 -1.0040 -2.5458
  138OSM   H17T15062   5.973   5.505   7.941 -1.5659  0.1612  2.2507
  138OSM   C18S15063   5.944   5.654   8.084 -0.1199  0.0086 -1.1553
  138OSM   H18S15064   5.937   5.762   8.109  0.3964 -0.2172  0.0534
  138OSM   H18T15065   6.030   5.619   8.145  1.2046  2.0518 -1.7592
  138OSM   H18U15066   5.851   5.605   8.121 -1.1779  1.5145 -1.7268
  138OSM    C1F15067   5.554   5.462   6.481  0.2601 -0.1518  0.1145
  138OSM     OF15068   5.615   5.562   6.438  0.6130  0.0449  0.2263
  138OSM    C2F15069   5.614   5.326   6.488 -0.2221 -0.1936  0.4499
  138OSM    H2F15070   5.604   5.277   6.389 -1.2885 -0.1702  0.5325
  138OSM    H2G15071   5.557   5.267   6.563  0.7676  1.0151  2.2237
  138OSM    C3F15072   5.768   5.336   6.516 -0.0054 -0.8940  0.2668
  138OSM    H3F15073   5.819   5.391   6.434  1.8460  0.2044  2.0449
  138OSM    H3G15074   5.806   5.231   6.509 -1.3703 -1.3800 -0.1261
  138OSM    C4F15075   5.829   5.396   6.647  0.8471  0.5324 -0.0969
  138OSM    H4F15076   5.822   5.506   6.640 -0.9184  0.3716 -1.8729
  138OSM    H4G15077   5.937   5.370   6.660  0.7086  0.3463  0.7345
  138OSM    C5F15078   5.741   5.361   6.769 -0.2505  0.6448 -0.6757
  138OSM    H5F15079   5.688   5.266   6.749  0.5756  0.0701 -0.1646
  138OSM    H5G15080   5.663   5.434   6.799 -1.4441 -0.8339 -0.1116
  138OSM    C6F15081   5.834   5.335   6.893 -0.1954 -0.9613  0.1203
  138OSM    H6F15082   5.782   5.372   6.983  1.4603 -0.2579  0.8371
  138OSM    H6G15083   5.929   5.393   6.901 -1.2479  0.9063 -0.5033
  138OSM    C7F15084   5.854   5.178   6.916  0.1211 -0.8460  0.5671
  138OSM    H7F15085   5.891   5.131   6.822 -0.8220 -1.4676  0.4877
  138OSM    H7G15086   5.758   5.132   6.948 -1.7122  3.6065  2.3623
  138OSM    C8F15087   5.959   5.142   7.030  0.3639  0.6412  0.3078
  138OSM    H8F15088   6.051   5.204   7.022 -0.4744  1.8156 -0.6127
  138OSM    H8G15089   5.987   5.034   7.034  1.6726  0.8128 -1.9851
  138OSM    C9F15090   5.900   5.166   7.167 -0.4255  0.1277 -0.1760
  138OSM    H9F15091   5.819   5.096   7.194  0.4749 -0.3864  1.3285
  138OSM   C10F15092   5.930   5.264   7.256 -0.1957 -0.2091 -0.2081
  138OSM   H10F15093   5.869   5.265   7.347 -0.9116  0.9076 -0.6867
  138OSM   C11F15094   6.027   5.376   7.236 -0.6425  0.0577  0.8961
  138OSM   H11F15095   5.992   5.477   7.269 -0.8440  0.5826 -0.8345
  138OSM   H11G15096   6.043   5.381   7.126 -2.2287  0.4685  0.6581
  138OSM   C12F15097   6.170   5.373   7.300 -0.0710  0.1870 -0.6873
  138OSM   H12F15098   6.224   5.460   7.257 -0.0484  0.9475  0.8063
  138OSM   H12G15099   6.214   5.273   7.279  0.4497 -0.6548  3.5938
  138OSM   C13F15100   6.160   5.391   7.448 -0.5007  0.0529  0.5453
  138OSM   H13F15101   6.096   5.312   7.492  0.8048 -2.0266 -1.0633
  138OSM   H13G15102   6.114   5.490   7.468 -0.7299  0.2315 -0.7700
  138OSM   C14F15103   6.300   5.393   7.509 -0.1275  0.3824 -0.2939
  138OSM   H14F15104   6.359   5.486   7.490  3.1262 -1.1957  1.1914
  138OSM   H14G15105   6.357   5.306   7.472 -2.3880 -1.5833  0.6350
  138OSM   C15F15106   6.275   5.379   7.655  0.8673 -0.1375  0.6415
  138OSM   H15F15107   6.285   5.271   7.680  1.7248 -0.8368 -2.2483
  138OSM   H15G15108   6.175   5.419   7.681  1.0118  0.6598  0.0274
  138OSM   C16F15109   6.375   5.445   7.749  0.2319  0.2990 -0.0486
  138OSM   H16F15110   6.365   5.545   7.701 -2.7108  0.1519  0.1315
  138OSM   H16G15111   6.469   5.386   7.739  0.3114 -0.1211  2.5551
  138OSM   C17F15112   6.325   5.422   7.893  0.5381 -0.4095 -0.3211
  138OSM   H17F15113   6.297   5.318   7.919  2.0696 -0.7946 -0.1242
  138OSM   H17G15114   6.235   5.487   7.900  0.0404 -1.1615  0.4277
  138OSM   C18F15115   6.431   5.471   7.997 -0.5303  0.4961  0.3898
  138OSM   H18F15116   6.401   5.452   8.102  0.7742  2.0273  1.0852
  138OSM   H18G15117   6.448   5.579   7.979 -1.9580  0.7479  0.4759
  138OSM   H18H15118   6.529   5.422   7.976 -0.5931  1.3286 -2.2787
  139OSM      N15119   3.598   5.080   6.300 -0.3537  0.2107 -0.0145
  139OSM    C1515120   3.714   4.991   6.313  0.3773 -0.4525 -0.5485
  139OSM   H15A15121   3.672   4.892   6.308 -1.8938  0.2258  2.4390
  139OSM   H15B15122   3.771   4.993   6.405 -0.9348 -0.6453  0.3059
  139OSM   H15C15123   3.782   4.995   6.229  0.5289  0.8549 -0.3849
  139OSM    C1415124   3.658   5.202   6.249  0.0478  0.0141  0.1472
  139OSM   H14A15125   3.583   5.278   6.234 -0.6042 -0.4438  0.9369
  139OSM   H14B15126   3.714   5.193   6.158  1.7029 -3.8913  1.3257
  139OSM   H14C15127   3.741   5.239   6.307  0.5646  1.4751 -1.4736
  139OSM    C1315128   3.499   5.022   6.202  0.0788  0.2820 -0.0621
  139OSM   H13A15129   3.413   5.087   6.207  0.4445  0.7157  0.8282
  139OSM   H13B15130   3.471   4.921   6.228  0.6620 -0.0325 -0.6230
  139OSM   H13C15131   3.534   5.016   6.100 -1.5923 -0.8741 -0.6100
  139OSM    C1215132   3.542   5.117   6.434  0.5706  0.1809 -0.5506
  139OSM   H12A15133   3.588   5.200   6.485 -1.4294  1.2332 -0.3579
  139OSM   H12B15134   3.535   5.035   6.503 -1.4388  1.2088  0.5600
  139OSM    C1115135   3.389   5.149   6.428 -0.5297 -0.4525  0.6472
  139OSM   H11A15136   3.357   5.179   6.530 -0.8730  0.4693  0.2798
  139OSM   H11B15137   3.338   5.057   6.393 -0.2194 -1.2676  2.2429
  139OSM      P15138   3.367   5.394   6.389 -0.0989  0.1416  0.1160
  139OSM    O1315139   3.360   5.491   6.283  0.2883 -0.3096  1.1948
  139OSM    O1415140   3.261   5.411   6.492 -0.0981  0.7179 -0.1696
  139OSM    O1115141   3.502   5.396   6.460  0.6133  0.2423 -0.4171
  139OSM    O1215142   3.366   5.248   6.329  0.2076 -0.1623  0.5181
  139OSM    C1S15143   3.573   5.521   6.475  0.2762  0.1102 -0.3314
  139OSM    H1S15144   3.520   5.609   6.433 -0.9804 -0.2963  0.3586
  139OSM    H1T15145   3.669   5.506   6.422 -0.2848 -0.9813 -1.0810
  139OSM     NF15146   3.672   5.689   6.636 -0.3384  0.7672 -0.4346
  139OSM    HNF15147   3.770   5.689   6.650 -0.3532 -0.4213 -0.2040
  139OSM    C2S15148   3.611   5.559   6.624  0.4033  0.4513 -0.5380
  139OSM    H2S15149   3.527   5.554   6.696 -0.5172  2.1214 -1.4517
  139OSM    C3S15150   3.709   5.455   6.685  0.2331  0.8260 -0.5609
  139OSM    H3S15151   3.805   5.457   6.629  0.2449 -0.9000 -0.6620
  139OSM     O315152   3.664   5.318   6.663 -0.6224 -0.0320  0.1710
  139OSM    HO315153   3.572   5.329   6.639 -0.0089  0.1103 -2.3852
  139OSM    C4S15154   3.732   5.479   6.833  0.2853  0.7792  0.4474
  139OSM    H4S15155   3.801   5.564   6.829  0.3720  0.6719 -2.2677
  139OSM    C5S15156   3.681   5.432   6.945  0.0398 -0.2250  0.0587
  139OSM    H5S15157   3.604   5.353   6.953  0.1276 -0.1506  2.0672
  139OSM    C6S15158   3.737   5.466   7.083  1.1352  0.5239  0.1684
  139OSM    H6S15159   3.836   5.516   7.080  0.8483  1.2610  1.8516
  139OSM    H6T15160   3.743   5.373   7.144 -0.9750  0.4768  0.4051
  139OSM    C7S15161   3.642   5.568   7.161  0.3110 -0.3396  0.4373
  139OSM    H7S15162   3.535   5.540   7.158 -0.8213  3.2063  2.2166
  139OSM    H7T15163   3.639   5.658   7.096 -0.0637  0.2160  1.2044
  139OSM    C8S15164   3.686   5.589   7.308  0.5207 -0.2693  0.4029
  139OSM    H8S15165   3.616   5.668   7.341  0.7428 -0.1980  0.7085
  139OSM    H8T15166   3.789   5.629   7.319  0.7983 -0.7117 -0.4770
  139OSM    C9S15167   3.654   5.470   7.399  0.0652  0.7672  0.9032
  139OSM    H9S15168   3.725   5.393   7.361  2.7463  3.7844 -0.7296
  139OSM    H9T15169   3.551   5.433   7.380  0.5057 -0.4180  0.7691
  139OSM   C10S15170   3.680   5.492   7.545 -0.1278  0.0510  0.4355
  139OSM   H10S15171   3.785   5.517   7.569  0.3765 -1.9111  0.3829
  139OSM   H10T15172   3.659   5.399   7.601  2.5903 -1.6196 -1.0904
  139OSM   C11S15173   3.597   5.597   7.613  0.4970 -0.6506 -0.8622
  139OSM   H11S15174   3.491   5.586   7.583  0.6602 -1.4402 -1.1634
  139OSM   H11T15175   3.619   5.700   7.577 -0.6195 -0.0107  0.2157
  139OSM   C12S15176   3.605   5.585   7.768 -0.4633 -0.3031 -0.7465
  139OSM   H12S15177   3.551   5.496   7.806 -0.8429 -0.1971 -1.0275
  139OSM   H12T15178   3.555   5.672   7.817  1.2710  0.6170 -0.5315
  139OSM   C13S15179   3.747   5.592   7.832 -0.0269 -0.3361 -0.3786
  139OSM   H13S15180   3.782   5.694   7.804 -0.4132 -0.1598 -0.2302
  139OSM   H13T15181   3.820   5.515   7.802  0.4764 -0.4856  1.1553
  139OSM   C14S15182   3.760   5.584   7.984  0.1640 -0.6997 -0.3335
  139OSM   H14S15183   3.679   5.651   8.021  0.4502  0.0507 -1.0483
  139OSM   H14T15184   3.853   5.630   8.024  0.6162 -0.8068 -1.2358
  139OSM   C15S15185   3.731   5.440   8.039  0.0111 -0.3796 -0.9466
  139OSM   H15S15186   3.818   5.373   8.023 -0.3114 -0.9650 -0.2798
  139OSM   H15T15187   3.647   5.394   7.983 -2.3226  0.9641  1.2304
  139OSM   C16S15188   3.714   5.440   8.197  0.0957  0.6974  0.7031
  139OSM   H16S15189   3.777   5.518   8.246 -1.5221  0.7337  2.8711
  139OSM   H16T15190   3.735   5.339   8.237  0.9821  1.5167  2.4233
  139OSM   C17S15191   3.575   5.478   8.238 -0.4961 -0.1182  0.6270
  139OSM   H17S15192   3.498   5.433   8.172 -1.6038  0.5054  1.4448
  139OSM   H17T15193   3.554   5.587   8.246  0.9776  0.1096  2.1453
  139OSM   C18S15194   3.561   5.429   8.385  0.0483 -0.1469  0.3885
  139OSM   H18S15195   3.477   5.476   8.441  2.2894  2.1936  2.0221
  139OSM   H18T15196   3.658   5.443   8.438 -0.1395 -1.0026  0.9819
  139OSM   H18U15197   3.559   5.318   8.376 -0.1653 -0.0374 -1.2772
  139OSM    C1F15198   3.604   5.796   6.613  0.0828  0.2638  0.3463
  139OSM     OF15199   3.483   5.791   6.580 -0.1982  0.0214  0.0870
  139OSM    C2F15200   3.673   5.924   6.614  0.0083  0.3193  0.4064
  139OSM    H2F15201   3.682   5.968   6.512  0.3082  2.5325  1.3209
  139OSM    H2G15202   3.777   5.912   6.652  0.7291  1.0423 -1.2541
  139OSM    C3F15203   3.603   6.022   6.705 -0.4781 -0.9534 -0.1835
  139OSM    H3F15204   3.582   5.979   6.805  1.5162  0.8038  1.0536
  139OSM    H3G15205   3.499   6.048   6.675 -1.1845 -0.3008  2.5123
  139OSM    C4F15206   3.692   6.144   6.730 -0.4213 -0.2905  0.4405
  139OSM    H4F15207   3.750   6.176   6.641  0.6341 -1.5206  0.6488
  139OSM    H4G15208   3.771   6.124   6.806  1.1674  0.0138 -1.0682
  139OSM    C5F15209   3.623   6.272   6.779  0.2508 -0.2328  0.0948
  139OSM    H5F15210   3.547   6.305   6.706  2.2058 -0.3805 -2.1296
  139OSM    H5G15211   3.702   6.350   6.791 -0.2645  0.1276  1.2646
  139OSM    C6F15212   3.566   6.259   6.922 -0.2743 -0.0491  0.0269
  139OSM    H6F15213   3.640   6.210   6.989  0.8535  1.6465  0.1015
  139OSM    H6G15214   3.481   6.188   6.920  0.9499 -1.5817 -0.9667
  139OSM    C7F15215   3.516   6.388   6.990  0.6078  1.1443 -0.0783
  139OSM    H7F15216   3.453   6.454   6.927  2.1452  2.8356  0.0829
  139OSM    H7G15217   3.604   6.454   7.007 -0.6867  2.7476  0.7131
  139OSM    C8F15218   3.462   6.364   7.131  0.1242 -0.3443  0.0861
  139OSM    H8F15219   3.545   6.338   7.200  0.0990  3.3149  1.7055
  139OSM    H8G15220   3.397   6.275   7.116  0.2693 -0.4385  0.0160
  139OSM    C9F15221   3.388   6.486   7.184  0.3925 -0.6576  0.0644
  139OSM    H9F15222   3.290   6.508   7.138  0.8209 -0.5256 -0.8035
  139OSM   C10F15223   3.420   6.564   7.290  0.0084 -0.2309 -0.2807
  139OSM   H10F15224   3.358   6.652   7.313  1.2545  0.1589  1.8792
  139OSM   C11F15225   3.545   6.558   7.385  0.7488 -0.4145  0.1409
  139OSM   H11F15226   3.546   6.651   7.445 -1.4790  1.2212 -2.1326
  139OSM   H11G15227   3.638   6.547   7.325  1.3020  0.8369  0.7334
  139OSM   C12F15228   3.532   6.440   7.481 -0.0079 -0.5235  0.3354
  139OSM   H12F15229   3.535   6.350   7.416  0.3517  0.2981 -0.8279
  139OSM   H12G15230   3.433   6.449   7.531  1.2406  0.2435  2.8629
  139OSM   C13F15231   3.637   6.437   7.588 -0.2940  0.1443 -0.2992
  139OSM   H13F15232   3.737   6.422   7.543 -0.6265 -2.1225 -0.3953
  139OSM   H13G15233   3.624   6.343   7.646  0.4779  0.8675  1.0909
  139OSM   C14F15234   3.627   6.554   7.685 -0.2995 -0.4214  0.2194
  139OSM   H14F15235   3.530   6.539   7.737 -0.0572 -0.0354  0.8015
  139OSM   H14G15236   3.641   6.651   7.633  1.5768 -0.5943  0.3191
  139OSM   C15F15237   3.722   6.538   7.811  0.3645  0.7601  0.3898
  139OSM   H15F15238   3.705   6.434   7.846 -1.9859  1.3590  1.2272
  139OSM   H15G15239   3.689   6.601   7.897 -0.5027 -0.3163  0.8716
  139OSM   C16F15240   3.865   6.555   7.771 -0.0254 -0.1439 -0.1903
  139OSM   H16F15241   3.891   6.661   7.752 -0.9853 -0.3498 -3.2021
  139OSM   H16G15242   3.895   6.486   7.689  0.1658  0.2805 -0.4830
  139OSM   C17F15243   3.953   6.507   7.893 -0.4399 -0.6240  0.2035
  139OSM   H17F15244   3.961   6.396   7.898 -2.6463 -0.8505  0.0439
  139OSM   H17G15245   3.907   6.536   7.990 -0.8533 -0.9948  0.1250
  139OSM   C18F15246   4.095   6.554   7.873 -0.5163  0.0156  0.4358
  139OSM   H18F15247   4.163   6.466   7.864 -1.8158 -0.9815  0.0286
  139OSM   H18G15248   4.116   6.626   7.955 -2.1442  1.9810 -0.7827
  139OSM   H18H15249   4.108   6.610   7.778  0.9526 -1.0569 -0.0520
  140OSM      N15250   4.345   6.449   6.242  0.1929  1.0512 -0.3643
  140OSM    C1515251   4.445   6.342   6.211 -0.6481 -0.6936  0.1617
  140OSM   H15A15252   4.534   6.365   6.267 -0.0061 -1.4359 -0.5108
  140OSM   H15B15253   4.475   6.344   6.107  0.3433  1.7891  0.4339
  140OSM   H15C15254   4.416   6.241   6.239 -2.3555 -1.5784 -3.9985
  140OSM    C1415255   4.217   6.401   6.186  0.0400  0.0880 -0.4356
  140OSM   H14A15256   4.142   6.460   6.236  1.0914  0.9815  0.1435
  140OSM   H14B15257   4.207   6.295   6.206  0.2632  0.0232 -0.6590
  140OSM   H14C15258   4.217   6.417   6.079  0.5059 -2.5161 -0.8976
  140OSM    C1315259   4.330   6.447   6.388  0.5460 -0.0169  0.0411
  140OSM   H13A15260   4.266   6.526   6.423  1.2029 -0.3579  2.1889
  140OSM   H13B15261   4.424   6.462   6.440 -0.3539  0.9948  1.4426
  140OSM   H13C15262   4.282   6.356   6.423 -1.9621  1.3560  0.4361
  140OSM    C1215263   4.393   6.584   6.192 -0.1418  0.0683 -0.0822
  140OSM   H12A15264   4.435   6.565   6.094  0.9577  1.3510  0.1126
  140OSM   H12B15265   4.468   6.622   6.259  0.5987  0.6051 -1.1850
  140OSM    C1115266   4.288   6.694   6.189  0.2454  0.9094  0.7566
  140OSM   H11A15267   4.216   6.666   6.109 -0.5324 -1.0260  2.0513
  140OSM   H11B15268   4.339   6.785   6.151 -1.5596  1.1663 -1.2069
  140OSM      P15269   4.070   6.734   6.325  0.1249  0.3841 -0.1464
  140OSM    O1315270   4.025   6.856   6.262  0.1596 -0.3818  0.1829
  140OSM    O1415271   4.010   6.607   6.283  0.3821  0.1290 -0.2395
  140OSM    O1115272   4.046   6.736   6.481 -0.5491 -0.5077 -0.3395
  140OSM    O1215273   4.226   6.722   6.309 -0.4979  0.0454 -0.5873
  140OSM    C1S15274   4.129   6.833   6.554  0.8507 -0.1079  0.2940
  140OSM    H1S15275   4.132   6.933   6.506  0.8102 -1.2810 -2.3586
  140OSM    H1T15276   4.232   6.791   6.551  0.3295 -1.5072  0.9213
  140OSM     NF15277   4.182   6.945   6.779  0.4973  0.1224 -0.0348
  140OSM    HNF15278   4.237   6.908   6.854 -0.2998  0.9183  0.9890
  140OSM    C2S15279   4.087   6.853   6.707 -0.6232 -0.1142  0.2768
  140OSM    H2S15280   3.989   6.906   6.711  0.0531  1.1424  2.7365
  140OSM    C3S15281   4.083   6.710   6.775  0.3089 -0.4834  0.7954
  140OSM    H3S15282   4.189   6.677   6.784  0.4408 -0.2681  0.1204
  140OSM     O315283   4.019   6.607   6.702  0.1127 -0.3195 -0.3816
  140OSM    HO315284   4.007   6.644   6.614 -0.3749 -3.4554 -1.7871
  140OSM    C4S15285   4.017   6.729   6.910  0.2339 -0.2081  0.3932
  140OSM    H4S15286   4.096   6.749   6.984  0.5720  0.4085 -0.1331
  140OSM    C5S15287   3.886   6.706   6.948  0.2889 -0.0161 -0.0042
  140OSM    H5S15288   3.810   6.682   6.873  1.5479  2.5091 -2.2896
  140OSM    C6S15289   3.833   6.710   7.088  0.1540 -0.3808 -0.7206
  140OSM    H6S15290   3.803   6.608   7.119 -0.6108  0.1827  0.4435
  140OSM    H6T15291   3.733   6.752   7.062 -0.4780 -0.9955  0.6446
  140OSM    C7S15292   3.906   6.787   7.200  0.4578 -0.0388  0.3506
  140OSM    H7S15293   3.898   6.896   7.177  0.8259  0.3262  1.8390
  140OSM    H7T15294   4.008   6.747   7.217  0.4591 -0.5988 -0.8686
  140OSM    C8S15295   3.836   6.766   7.334  0.1426 -0.6449  0.2312
  140OSM    H8S15296   3.848   6.661   7.367 -0.2957 -0.5446  0.7282
  140OSM    H8T15297   3.725   6.760   7.330  0.1287 -0.4762  0.3180
  140OSM    C9S15298   3.875   6.861   7.447 -0.9936  0.4737 -1.0572
  140OSM    H9S15299   3.825   6.835   7.543  1.1806 -0.3094 -0.0570
  140OSM    H9T15300   3.835   6.963   7.430 -1.6523  0.2799 -0.7100
  140OSM   C10S15301   4.024   6.872   7.480  0.7480 -0.6676  0.1338
  140OSM   H10S15302   4.086   6.906   7.394  0.2272  0.3263  0.1378
  140OSM   H10T15303   4.056   6.773   7.521 -2.5364 -1.4662  1.0523
  140OSM   C11S15304   4.049   6.970   7.595  0.8910 -0.6800  0.0005
  140OSM   H11S15305   3.993   7.061   7.565  2.0571 -0.9293 -3.4635
  140OSM   H11T15306   4.154   7.007   7.600  0.6969 -0.1358  0.0380
  140OSM   C12S15307   4.008   6.915   7.727  0.0256 -0.1706  0.5604
  140OSM   H12S15308   4.055   6.816   7.741  0.8112 -0.4451 -3.0794
  140OSM   H12T15309   3.897   6.910   7.729  0.0098 -0.8412 -0.8860
  140OSM   C13S15310   4.058   7.004   7.832 -0.2836 -0.3494 -0.6699
  140OSM   H13S15311   4.015   7.105   7.815  2.3428  0.9962  0.1543
  140OSM   H13T15312   4.168   7.017   7.833 -0.4184  1.2267  1.2935
  140OSM   C14S15313   4.009   6.970   7.975  0.0962  0.8656 -0.8535
  140OSM   H14S15314   4.026   6.860   7.984  0.8429  1.1082  1.7126
  140OSM   H14T15315   3.899   6.977   7.979 -0.0450 -0.8677 -1.0141
  140OSM   C15S15316   4.082   7.038   8.086 -0.2800 -0.5073  0.0123
  140OSM   H15S15317   4.077   7.149   8.074  1.2248 -0.2005  1.7514
  140OSM   H15T15318   4.191   7.019   8.077 -0.1696 -1.1885  2.2934
  140OSM   C16S15319   4.045   7.002   8.226  0.5472  0.0391 -0.2950
  140OSM   H16S15320   4.080   6.902   8.260  1.5397  0.7389  0.8374
  140OSM   H16T15321   3.935   7.011   8.237  0.5518  1.1729 -1.0202
  140OSM   C17S15322   4.113   7.102   8.326 -0.0405 -0.0106  0.1989
  140OSM   H17S15323   4.094   7.208   8.298  2.3334  0.8938  1.7204
  140OSM   H17T15324   4.222   7.099   8.305  0.0749 -2.6944  0.9029
  140OSM   C18S15325   4.089   7.062   8.471 -0.6679 -0.0446 -0.5589
  140OSM   H18S15326   4.131   6.963   8.502  1.2557  0.6926 -0.6653
  140OSM   H18T15327   3.987   7.089   8.502  0.5251  2.1357  1.8224
  140OSM   H18U15328   4.155   7.123   8.537  0.4718 -0.1673 -1.5454
  140OSM    C1F15329   4.177   7.079   6.771  0.2158 -0.2485  0.5868
  140OSM     OF15330   4.132   7.130   6.663  0.1933 -0.3613 -0.4456
  140OSM    C2F15331   4.219   7.156   6.891 -0.3231  0.0426  0.0797
  140OSM    H2F15332   4.211   7.261   6.857 -0.2583 -0.6175 -2.1517
  140OSM    H2G15333   4.328   7.145   6.910  0.1088 -0.9185 -2.5042
  140OSM    C3F15334   4.139   7.136   7.029 -1.0497  0.3914 -0.3150
  140OSM    H3F15335   4.108   7.030   7.042  2.5045 -0.9258 -1.4356
  140OSM    H3G15336   4.043   7.192   7.016 -0.9464  0.2802 -1.6743
  140OSM    C4F15337   4.214   7.192   7.150 -0.0439  0.2828 -0.3229
  140OSM    H4F15338   4.299   7.256   7.117  0.9017 -0.1159  1.2463
  140OSM    H4G15339   4.260   7.101   7.194 -0.0933 -0.2827 -1.4076
  140OSM    C5F15340   4.130   7.251   7.265  0.6990 -0.1831  0.3288
  140OSM    H5F15341   4.076   7.172   7.322 -0.3089  0.9212  0.9445
  140OSM    H5G15342   4.072   7.330   7.214  0.5106  0.6757  1.8178
  140OSM    C6F15343   4.214   7.314   7.379  0.6945 -0.4698 -0.3544
  140OSM    H6F15344   4.145   7.367   7.449 -1.0395 -0.1192 -2.2370
  140OSM    H6G15345   4.287   7.385   7.334  1.6060 -0.0718  1.6582
  140OSM    C7F15346   4.310   7.212   7.439 -0.1609 -0.2725 -0.8095
  140OSM    H7F15347   4.387   7.195   7.361 -0.3310  2.5731 -1.7337
  140OSM    H7G15348   4.252   7.123   7.470  1.2094 -1.2162 -0.8755
  140OSM    C8F15349   4.379   7.269   7.568 -0.0299 -0.3987 -0.7117
  140OSM    H8F15350   4.300   7.295   7.641 -0.0820 -2.5092  0.0439
  140OSM    H8G15351   4.432   7.361   7.535 -2.0896  0.8718 -0.6525
  140OSM    C9F15352   4.462   7.164   7.631 -0.0182  0.1586 -1.0971
  140OSM    H9F15353   4.530   7.124   7.554 -3.0954 -3.1744 -2.3485
  140OSM   C10F15354   4.478   7.109   7.757  0.4774  0.0808 -0.0748
  140OSM   H10F15355   4.554   7.031   7.769  0.6090  0.5823  3.4110
  140OSM   C11F15356   4.399   7.130   7.886  0.4188  0.0789  0.1733
  140OSM   H11F15357   4.362   7.032   7.926  0.2321  0.6213  1.3713
  140OSM   H11G15358   4.305   7.186   7.867  1.2707  1.0244 -1.3776
  140OSM   C12F15359   4.475   7.198   7.993 -0.4942  0.7429 -0.2411
  140OSM   H12F15360   4.517   7.292   7.952 -0.9638  1.6614  1.3500
  140OSM   H12G15361   4.557   7.131   8.028  0.1392  1.8539  0.4618
  140OSM   C13F15362   4.407   7.247   8.127 -0.1061  0.1276  0.1169
  140OSM   H13F15363   4.384   7.153   8.181  1.4335 -0.8111 -0.7591
  140OSM   H13G15364   4.313   7.298   8.098 -1.1667 -2.2045 -0.8422
  140OSM   C14F15365   4.496   7.348   8.199  0.3176  0.1129 -0.2733
  140OSM   H14F15366   4.503   7.437   8.133 -0.5286 -0.1097 -0.6688
  140OSM   H14G15367   4.602   7.317   8.212  0.5860  1.1331  0.0558
  140OSM   C15F15368   4.434   7.397   8.332 -0.3594 -0.0738 -0.2793
  140OSM   H15F15369   4.431   7.307   8.396  1.3664  1.4096  2.0639
  140OSM   H15G15370   4.327   7.426   8.319 -0.4687 -0.2163  0.2815
  140OSM   C16F15371   4.502   7.515   8.388  0.0681  0.2927  0.0266
  140OSM   H16F15372   4.531   7.585   8.307  0.2320  0.2449  0.0430
  140OSM   H16G15373   4.597   7.484   8.438 -0.2289  2.0980  1.8467
  140OSM   C17F15374   4.420   7.599   8.488 -0.1002  0.3006  0.3240
  140OSM   H17F15375   4.340   7.649   8.429  0.3973  0.3806 -0.3008
  140OSM   H17G15376   4.488   7.684   8.509  1.0805 -0.6758  0.6055
  140OSM   C18F15377   4.364   7.527   8.609 -0.4100 -0.8139  0.1240
  140OSM   H18F15378   4.317   7.600   8.679  1.5401  1.5939 -0.9413
  140OSM   H18G15379   4.451   7.484   8.663  0.6278  2.5720  1.3966
  140OSM   H18H15380   4.297   7.444   8.580 -2.2486  0.7022 -0.1835
  141OSM      N15381   4.370   1.242   5.933  0.8831 -0.3561  0.1271
  141OSM    C1515382   4.356   1.218   5.791  0.5881  0.2143 -0.2719
  141OSM   H15A15383   4.254   1.212   5.756  0.4330  3.0605 -0.4908
  141OSM   H15B15384   4.388   1.116   5.774  0.5599  0.0995  0.3381
  141OSM   H15C15385   4.409   1.284   5.724 -2.1762 -0.4988 -3.4666
  141OSM    C1415386   4.512   1.243   5.977  0.1213 -0.3331  0.0971
  141OSM   H14A15387   4.519   1.246   6.085  1.9091 -0.6005  0.0103
  141OSM   H14B15388   4.563   1.329   5.937  0.6744 -0.3399  0.7705
  141OSM   H14C15389   4.563   1.155   5.941  0.0198 -0.9952  1.5066
  141OSM    C1315390   4.320   1.379   5.958 -0.5033 -0.6698 -0.4582
  141OSM   H13A15391   4.364   1.462   5.904 -0.2399  0.2630  1.1398
  141OSM   H13B15392   4.331   1.404   6.062  0.0676  1.2498 -0.9481
  141OSM   H13C15393   4.215   1.391   5.935 -0.7353 -1.2009  0.2850
  141OSM    C1215394   4.292   1.142   6.014  0.0755  0.0863 -0.3798
  141OSM   H12A15395   4.324   1.039   6.000 -1.9081 -0.7672  0.9790
  141OSM   H12B15396   4.188   1.151   5.988 -0.5611 -0.4337  1.8216
  141OSM    C1115397   4.279   1.170   6.168  0.2190 -0.1980 -0.9938
  141OSM   H11A15398   4.382   1.171   6.209 -0.4193  1.8579  0.7564
  141OSM   H11B15399   4.241   1.082   6.224  1.4510  0.0216  0.2642
  141OSM      P15400   4.054   1.294   6.204  0.2593  0.2017  0.1379
  141OSM    O1315401   4.009   1.434   6.205 -0.3140 -0.6251 -0.0081
  141OSM    O1415402   4.004   1.209   6.096 -0.6842 -0.7413  0.0367
  141OSM    O1115403   4.003   1.236   6.350  0.1665  0.0079  0.0102
  141OSM    O1215404   4.211   1.291   6.208 -0.0713 -0.3714  0.2356
  141OSM    C1S15405   4.100   1.234   6.459  0.3774 -0.1967  0.4089
  141OSM    H1S15406   4.091   1.335   6.504  2.4156 -0.9414  2.7792
  141OSM    H1T15407   4.205   1.214   6.429  0.5466  0.3250  0.6346
  141OSM     NF15408   4.177   1.141   6.669  0.2178 -0.7943 -0.2279
  141OSM    HNF15409   4.262   1.090   6.670  0.1582 -0.8923 -0.0879
  141OSM    C2S15410   4.080   1.118   6.563  0.3324  0.2150  0.4634
  141OSM    H2S15411   3.976   1.128   6.601  0.1269 -0.5915  0.1299
  141OSM    C3S15412   4.097   0.989   6.484 -0.1843 -0.3459  0.2919
  141OSM    H3S15413   4.197   0.983   6.437  0.1110 -0.4020  0.9115
  141OSM     O315414   4.006   0.970   6.380 -0.8107 -0.0821 -0.0523
  141OSM    HO315415   3.960   1.054   6.377 -0.0655  0.4865  2.1684
  141OSM    C4S15416   4.089   0.876   6.585 -0.0692 -0.0758 -0.4657
  141OSM    H4S15417   4.176   0.865   6.651  0.2935  1.3380 -0.6682
  141OSM    C5S15418   3.991   0.785   6.602  0.1106  0.1054  0.4308
  141OSM    H5S15419   3.901   0.777   6.539  0.8571 -1.8457 -0.4888
  141OSM    C6S15420   4.009   0.678   6.703 -0.2964 -0.1710 -0.3847
  141OSM    H6S15421   4.090   0.608   6.673  0.6381  1.6901 -2.5225
  141OSM    H6T15422   3.917   0.616   6.715 -0.8484  1.0145  2.0646
  141OSM    C7S15423   4.054   0.725   6.846  0.1129 -0.2051  0.1840
  141OSM    H7S15424   4.165   0.735   6.844 -0.0654  2.5806  0.1804
  141OSM    H7T15425   4.029   0.638   6.911  2.6670 -1.2171 -0.0633
  141OSM    C8S15426   3.995   0.855   6.897  0.2570 -0.0466  0.1120
  141OSM    H8S15427   3.888   0.864   6.868 -0.3883 -4.4099  0.5131
  141OSM    H8T15428   4.045   0.939   6.844  1.4468  0.6821  2.2499
  141OSM    C9S15429   4.000   0.870   7.045 -0.1466  0.2052 -0.1415
  141OSM    H9S15430   3.922   0.808   7.092 -2.0760  2.3774 -0.2688
  141OSM    H9T15431   3.978   0.979   7.057  2.6076  1.1783 -2.5783
  141OSM   C10S15432   4.139   0.859   7.093 -0.0917  0.6192  0.2800
  141OSM   H10S15433   4.208   0.903   7.018 -0.4378  0.6564 -0.0141
  141OSM   H10T15434   4.168   0.753   7.107 -0.6029  0.5660  0.9895
  141OSM   C11S15435   4.163   0.933   7.227  0.1760 -0.1538  0.0675
  141OSM   H11S15436   4.078   0.894   7.287 -0.2141  0.9188  0.2329
  141OSM   H11T15437   4.161   1.044   7.223  0.7090 -0.1126  0.6260
  141OSM   C12S15438   4.298   0.885   7.294  0.5047 -0.0592 -0.1882
  141OSM   H12S15439   4.373   0.943   7.236 -1.1638  1.1984 -1.1846
  141OSM   H12T15440   4.320   0.781   7.263  2.2455  0.0324  0.6198
  141OSM   C13S15441   4.312   0.900   7.443 -0.1393 -0.3057 -0.1138
  141OSM   H13S15442   4.421   0.900   7.463  0.0687  0.7467 -1.1858
  141OSM   H13T15443   4.267   0.808   7.487 -1.1129 -0.0539 -0.5533
  141OSM   C14S15444   4.265   1.035   7.497 -0.1777 -0.1506  0.2191
  141OSM   H14S15445   4.154   1.047   7.498  0.0473  2.8230  0.9064
  141OSM   H14T15446   4.300   1.108   7.421 -1.7564 -0.5609 -0.9616
  141OSM   C15S15447   4.324   1.083   7.629 -0.4457  0.4233  0.1312
  141OSM   H15S15448   4.435   1.088   7.631 -0.3157 -1.2437 -1.1813
  141OSM   H15T15449   4.289   1.010   7.706 -0.1068 -0.1404 -0.2384
  141OSM   C16S15450   4.281   1.230   7.676  0.3072 -0.7539 -0.5106
  141OSM   H16S15451   4.173   1.213   7.693  0.2049 -1.4349 -1.7385
  141OSM   H16T15452   4.298   1.305   7.596 -0.3482  1.4816  1.3254
  141OSM   C17S15453   4.345   1.263   7.807 -0.3329 -0.0833 -0.3559
  141OSM   H17S15454   4.306   1.357   7.852 -1.0481  0.1676 -1.4559
  141OSM   H17T15455   4.454   1.277   7.790 -0.0242  0.5034  1.8146
  141OSM   C18S15456   4.341   1.160   7.920 -0.3084  0.8530  0.3510
  141OSM   H18S15457   4.391   1.198   8.012 -3.5366  1.3414  2.0481
  141OSM   H18T15458   4.382   1.059   7.901 -2.2827  0.1648 -0.4542
  141OSM   H18U15459   4.238   1.132   7.951 -0.5246  0.7499 -0.4298
  141OSM    C1F15460   4.172   1.243   6.761  0.2807 -0.1145  0.9442
  141OSM     OF15461   4.070   1.316   6.758 -0.1130  0.0941 -0.5397
  141OSM    C2F15462   4.283   1.247   6.871  0.6376  0.5704 -0.0255
  141OSM    H2F15463   4.372   1.299   6.828 -0.3156 -0.5039 -3.6354
  141OSM    H2G15464   4.316   1.141   6.879  0.0025  0.2889 -0.9392
  141OSM    C3F15465   4.246   1.321   7.002  0.3787  0.0799  0.2179
  141OSM    H3F15466   4.163   1.262   7.046  0.9156 -0.5223  0.4468
  141OSM    H3G15467   4.210   1.425   6.989  3.1364  1.1949  0.7776
  141OSM    C4F15468   4.358   1.321   7.107 -0.0498 -0.3773  0.6820
  141OSM    H4F15469   4.372   1.214   7.134 -3.2131 -1.4414 -1.2058
  141OSM    H4G15470   4.314   1.377   7.192 -1.6601  0.0796 -0.4078
  141OSM    C5F15471   4.488   1.394   7.068  0.8312 -0.3781  0.0249
  141OSM    H5F15472   4.448   1.496   7.054 -0.5564 -0.7103  1.3179
  141OSM    H5G15473   4.523   1.353   6.970  1.1643 -0.6991  0.2758
  141OSM    C6F15474   4.594   1.392   7.175 -0.3092 -0.0514 -0.2579
  141OSM    H6F15475   4.637   1.290   7.183  0.2589  0.0194 -1.9294
  141OSM    H6G15476   4.551   1.422   7.273  0.0045 -0.0387 -0.1226
  141OSM    C7F15477   4.709   1.494   7.148  0.6307  0.6908 -0.5659
  141OSM    H7F15478   4.662   1.594   7.136  3.6959  2.4503  0.8680
  141OSM    H7G15479   4.759   1.462   7.054  1.1874  0.5240 -0.2176
  141OSM    C8F15480   4.814   1.503   7.259 -0.0232 -0.3062  0.0458
  141OSM    H8F15481   4.879   1.413   7.256  0.8427  0.3095 -0.0326
  141OSM    H8G15482   4.760   1.514   7.356  1.1600 -0.7232  0.7817
  141OSM    C9F15483   4.898   1.629   7.242  0.1483 -0.5154 -0.0502
  141OSM    H9F15484   4.957   1.625   7.150  0.4805 -0.7158  0.1665
  141OSM   C10F15485   4.890   1.744   7.308  0.2451  0.0315 -0.3474
  141OSM   H10F15486   4.963   1.820   7.278 -0.5115  0.3652 -1.4257
  141OSM   C11F15487   4.799   1.784   7.423 -0.5784 -0.1431 -0.1332
  141OSM   H11F15488   4.729   1.701   7.446 -0.6336  0.0342  0.3495
  141OSM   H11G15489   4.745   1.870   7.379  0.4342  0.4808 -0.1905
  141OSM   C12F15490   4.852   1.821   7.558 -0.0635  0.2072  0.4927
  141OSM   H12F15491   4.767   1.856   7.622  0.3438  1.8551  0.1823
  141OSM   H12G15492   4.927   1.902   7.551  0.7534 -0.4954  0.9633
  141OSM   C13F15493   4.920   1.700   7.628 -0.1262 -0.5846  1.0705
  141OSM   H13F15494   4.974   1.639   7.552  0.7222  1.2191  0.1419
  141OSM   H13G15495   4.839   1.647   7.681 -0.8888 -0.7599 -0.2245
  141OSM   C14F15496   5.018   1.740   7.737 -0.1410 -0.0925  0.6125
  141OSM   H14F15497   5.105   1.801   7.705 -0.0425  0.2378  1.4697
  141OSM   H14G15498   5.068   1.646   7.771 -0.2044 -0.2472  0.2806
  141OSM   C15F15499   4.956   1.787   7.869  0.5912  0.5955 -0.7629
  141OSM   H15F15500   4.871   1.718   7.887 -0.2396  1.4775 -1.2272
  141OSM   H15G15501   4.897   1.878   7.846 -1.3402 -0.6560 -1.0394
  141OSM   C16F15502   5.060   1.787   7.989 -0.1089  1.2447  0.2754
  141OSM   H16F15503   5.132   1.872   7.987 -1.3925  2.4270  1.5613
  141OSM   H16G15504   5.116   1.692   7.976 -0.9202  0.9109 -1.0387
  141OSM   C17F15505   4.991   1.794   8.126  0.0975  0.2362  0.5307
  141OSM   H17F15506   4.935   1.890   8.134 -1.4860 -0.4556 -1.3087
  141OSM   H17G15507   5.069   1.802   8.204  1.2580  1.1389 -0.6815
  141OSM   C18F15508   4.904   1.672   8.178 -0.0815 -0.0281 -0.9772
  141OSM   H18F15509   4.957   1.575   8.168  0.6103  0.3440 -0.9895
  141OSM   H18G15510   4.811   1.653   8.119  0.5523 -0.8660 -1.7327
  141OSM   H18H15511   4.882   1.682   8.287  0.3402 -0.1845 -0.8777
  142OSM      N15512   4.648   3.261   6.179  0.3148  0.7874 -0.5316
  142OSM    C1515513   4.780   3.313   6.228  0.1607  0.3235  0.0190
  142OSM   H15A15514   4.835   3.235   6.279 -0.5533 -2.4309 -3.1107
  142OSM   H15B15515   4.765   3.401   6.291  0.1364  1.1771 -1.1506
  142OSM   H15C15516   4.834   3.345   6.140  0.5929 -1.1440 -0.2747
  142OSM    C1415517   4.593   3.375   6.091  0.4000 -0.2257 -0.1267
  142OSM   H14A15518   4.498   3.343   6.049  0.7088 -2.5068  0.7382
  142OSM   H14B15519   4.650   3.404   6.004 -2.3494 -0.8300 -2.2755
  142OSM   H14C15520   4.593   3.469   6.144  1.0317 -0.2604 -0.0535
  142OSM    C1315521   4.658   3.142   6.092 -0.5592  0.2755 -0.4573
  142OSM   H13A15522   4.562   3.095   6.078 -0.8363 -0.0904  2.2597
  142OSM   H13B15523   4.716   3.070   6.147 -0.7665  0.7700  0.4198
  142OSM   H13C15524   4.713   3.170   6.002  1.8667 -1.3261  0.4293
  142OSM    C1215525   4.556   3.247   6.299 -0.1148  0.6176  0.0882
  142OSM   H12A15526   4.551   3.340   6.352 -0.8251 -0.5259  2.1383
  142OSM   H12B15527   4.600   3.169   6.359 -1.4918  1.1822  1.9103
  142OSM    C1115528   4.405   3.196   6.269 -0.0805 -0.4675 -0.6354
  142OSM   H11A15529   4.351   3.161   6.360 -0.1223 -0.9255 -0.8337
  142OSM   H11B15530   4.410   3.111   6.198  0.1215 -0.5399 -0.5355
  142OSM      P15531   4.242   3.411   6.292  0.3186 -0.0967  0.1360
  142OSM    O1315532   4.234   3.543   6.218  0.0232  0.2073 -0.3637
  142OSM    O1415533   4.106   3.358   6.334 -0.6698  0.0940 -0.4119
  142OSM    O1115534   4.334   3.440   6.422 -0.6918  0.4716 -0.3563
  142OSM    O1215535   4.323   3.303   6.206 -0.1353  0.3922  0.0369
  142OSM    C1S15536   4.314   3.557   6.499  0.2916 -0.7246 -0.5394
  142OSM    H1S15537   4.206   3.582   6.499  0.2035 -1.0836  0.1403
  142OSM    H1T15538   4.380   3.639   6.461  3.0112 -2.9731 -0.9754
  142OSM     NF15539   4.328   3.654   6.723 -0.0526 -0.0773 -0.1398
  142OSM    HNF15540   4.407   3.712   6.741 -0.3586 -0.2881  2.1449
  142OSM    C2S15541   4.350   3.536   6.645 -0.5623  0.4326 -0.2332
  142OSM    H2S15542   4.274   3.468   6.690 -0.9080 -1.0269 -2.8240
  142OSM    C3S15543   4.493   3.474   6.672  0.6082 -0.1012 -0.3506
  142OSM    H3S15544   4.572   3.539   6.630 -0.3606  0.4818 -1.2882
  142OSM     O315545   4.509   3.352   6.611 -0.1715  0.5228 -0.3319
  142OSM    HO315546   4.436   3.344   6.549 -1.9711  2.8273  1.3052
  142OSM    C4S15547   4.516   3.454   6.826  0.1195  0.0937  0.7829
  142OSM    H4S15548   4.446   3.382   6.869 -0.9490  0.2730 -0.6083
  142OSM    C5S15549   4.616   3.505   6.900  0.0906 -0.2359 -0.7197
  142OSM    H5S15550   4.687   3.579   6.859  1.7622 -0.6992  1.1849
  142OSM    C6S15551   4.621   3.476   7.044 -0.2480  0.0132 -0.1403
  142OSM    H6S15552   4.721   3.450   7.084 -1.6986 -2.1707  2.4552
  142OSM    H6T15553   4.562   3.386   7.071 -1.1513 -0.1598 -2.4247
  142OSM    C7S15554   4.570   3.589   7.129 -0.0045  0.2748 -0.8043
  142OSM    H7S15555   4.459   3.589   7.130 -0.0008  0.1887 -0.1660
  142OSM    H7T15556   4.613   3.684   7.089 -2.3163  1.1057 -1.5030
  142OSM    C8S15557   4.611   3.575   7.280  0.2315  0.3794 -0.0793
  142OSM    H8S15558   4.576   3.672   7.322 -2.1315  0.3450 -1.8347
  142OSM    H8T15559   4.721   3.566   7.293  0.4896 -1.5287 -2.9465
  142OSM    C9S15560   4.533   3.465   7.360 -0.6777 -0.4283 -0.0073
  142OSM    H9S15561   4.571   3.368   7.320  0.2350  0.2119 -0.7246
  142OSM    H9T15562   4.426   3.475   7.331  0.0493  0.0005 -2.9129
  142OSM   C10S15563   4.530   3.476   7.514  0.0448 -0.0504 -0.4268
  142OSM   H10S15564   4.627   3.454   7.563 -0.4210 -0.7858  0.2099
  142OSM   H10T15565   4.467   3.397   7.561  2.4288 -1.2572  0.9678
  142OSM   C11S15566   4.480   3.618   7.564 -0.1760  0.1398 -0.7187
  142OSM   H11S15567   4.379   3.622   7.518 -1.3020 -1.6294  1.4145
  142OSM   H11T15568   4.550   3.694   7.522  1.0178 -0.4060  0.2170
  142OSM   C12S15569   4.471   3.639   7.719 -0.0340  0.4849  0.2722
  142OSM   H12S15570   4.567   3.613   7.770  0.0329  0.5350  0.1711
  142OSM   H12T15571   4.396   3.567   7.759  0.6700 -2.0807 -2.5912
  142OSM   C13S15572   4.428   3.783   7.762 -0.1983  0.5386 -0.0625
  142OSM   H13S15573   4.337   3.800   7.701 -0.4476  1.4975  0.5632
  142OSM   H13T15574   4.509   3.847   7.720  0.2835 -1.1104 -1.7969
  142OSM   C14S15575   4.402   3.790   7.915  0.3963  0.1577  0.3559
  142OSM   H14S15576   4.501   3.763   7.958 -0.1797 -0.8889  1.0650
  142OSM   H14T15577   4.332   3.708   7.941 -1.1656  1.6544  1.0433
  142OSM   C15S15578   4.366   3.929   7.961 -0.2440 -0.7373  0.4188
  142OSM   H15S15579   4.293   3.985   7.900  1.4667  1.4327  0.2209
  142OSM   H15T15580   4.462   3.985   7.974 -0.0937 -0.3762 -1.8591
  142OSM   C16S15581   4.296   3.916   8.099  0.3811 -1.1256  0.1554
  142OSM   H16S15582   4.359   3.873   8.180 -0.9324 -0.9329  1.3114
  142OSM   H16T15583   4.216   3.843   8.079 -0.6429 -0.1677  0.6399
  142OSM   C17S15584   4.227   4.053   8.128 -0.0492  0.4617 -0.0081
  142OSM   H17S15585   4.149   4.077   8.053 -0.0573  0.5281  0.0219
  142OSM   H17T15586   4.308   4.129   8.129  2.5526 -2.1404  0.3842
  142OSM   C18S15587   4.156   4.056   8.259  1.3711 -0.0558 -0.0450
  142OSM   H18S15588   4.232   4.048   8.339  2.5507 -0.9031 -1.2230
  142OSM   H18T15589   4.068   3.987   8.264  1.1630  0.1250 -1.0310
  142OSM   H18U15590   4.112   4.158   8.268  0.8734 -0.3090  0.4553
  142OSM    C1F15591   4.212   3.708   6.764  0.6822  0.3866  0.3624
  142OSM     OF15592   4.106   3.657   6.734  0.2565  0.0448  0.0587
  142OSM    C2F15593   4.220   3.830   6.852 -0.1087  0.1935 -0.7993
  142OSM    H2F15594   4.125   3.887   6.855  0.2551  1.1311 -3.8672
  142OSM    H2G15595   4.299   3.902   6.821 -0.9169  1.7077  0.4781
  142OSM    C3F15596   4.267   3.795   7.002  0.0712  0.1754  0.0197
  142OSM    H3F15597   4.348   3.719   6.995 -1.7838 -1.8768 -0.2159
  142OSM    H3G15598   4.182   3.739   7.046 -0.2527 -1.1970 -2.2190
  142OSM    C4F15599   4.302   3.912   7.089 -1.5913  0.0500 -0.5236
  142OSM    H4F15600   4.230   3.995   7.073 -1.9245  0.2371  1.5976
  142OSM    H4G15601   4.404   3.939   7.053 -0.3107 -0.7474  2.1833
  142OSM    C5F15602   4.318   3.885   7.234  0.3665 -0.2837 -0.2955
  142OSM    H5F15603   4.409   3.824   7.248  1.1536  0.7303 -0.7986
  142OSM    H5G15604   4.227   3.829   7.263 -0.1245  0.1561 -0.9293
  142OSM    C6F15605   4.338   4.005   7.324  1.0212  1.0730  0.1688
  142OSM    H6F15606   4.248   4.057   7.362  0.6858  0.8270 -0.2844
  142OSM    H6G15607   4.402   4.075   7.265  3.5456  0.8251  2.4215
  142OSM    C7F15608   4.415   3.963   7.451  0.6664  0.5005 -0.1931
  142OSM    H7F15609   4.518   3.928   7.428  0.2300 -1.6224  0.8956
  142OSM    H7G15610   4.368   3.868   7.483  0.1143 -0.0031 -2.3991
  142OSM    C8F15611   4.423   4.073   7.559 -0.2448  0.3434 -0.1295
  142OSM    H8F15612   4.466   4.027   7.651  1.8120 -0.2822 -1.3375
  142OSM    H8G15613   4.322   4.110   7.585  0.0879  1.8279 -0.8131
  142OSM    C9F15614   4.518   4.187   7.522 -0.0744 -0.1506  0.3200
  142OSM    H9F15615   4.497   4.224   7.421 -1.9000 -3.3555 -0.6085
  142OSM   C10F15616   4.618   4.230   7.603 -0.4953 -0.6474  0.9808
  142OSM   H10F15617   4.684   4.301   7.550 -1.1285 -0.3135  0.6384
  142OSM   C11F15618   4.667   4.180   7.730 -0.9539  0.1472  0.5723
  142OSM   H11F15619   4.767   4.133   7.716 -0.2396  2.2100 -1.9564
  142OSM   H11G15620   4.582   4.123   7.773 -3.4159  2.5540 -0.8130
  142OSM   C12F15621   4.697   4.301   7.822 -0.4983 -0.2404  0.5145
  142OSM   H12F15622   4.605   4.351   7.859 -1.4865 -2.3072  0.9849
  142OSM   H12G15623   4.750   4.373   7.756  1.6316 -2.5859 -0.4671
  142OSM   C13F15624   4.789   4.278   7.939 -0.1849 -0.1301  0.2755
  142OSM   H13F15625   4.890   4.265   7.895 -0.7069 -0.5856 -0.8342
  142OSM   H13G15626   4.757   4.179   7.978 -1.0071  0.3653  0.8853
  142OSM   C14F15627   4.777   4.381   8.050 -0.8077  0.3658 -0.1172
  142OSM   H14F15628   4.668   4.389   8.065 -1.0206 -2.1071 -0.0040
  142OSM   H14G15629   4.817   4.480   8.017 -0.9852  0.7057  0.6815
  142OSM   C15F15630   4.844   4.334   8.181  0.1733  0.0275 -0.1802
  142OSM   H15F15631   4.898   4.238   8.165 -0.5885 -0.5440  0.5818
  142OSM   H15G15632   4.761   4.318   8.253  1.1016  0.2103  0.9533
  142OSM   C16F15633   4.921   4.444   8.255 -0.3199  0.5575 -0.1752
  142OSM   H16F15634   4.853   4.529   8.278  0.3322  0.8818  0.6058
  142OSM   H16G15635   5.004   4.482   8.192  1.3707 -0.1443  1.5287
  142OSM   C17F15636   4.989   4.407   8.389  0.3206  0.3213  0.6445
  142OSM   H17F15637   5.035   4.309   8.362 -2.2646 -0.4471 -1.3963
  142OSM   H17G15638   4.911   4.378   8.462  1.4100 -0.8340  1.3885
  142OSM   C18F15639   5.096   4.508   8.434 -0.6148 -0.2559 -0.1534
  142OSM   H18F15640   5.071   4.616   8.429  1.4052  0.5231  3.2293
  142OSM   H18G15641   5.188   4.485   8.375 -1.4657 -1.3806 -1.0891
  142OSM   H18H15642   5.113   4.499   8.544  1.2266  1.1145 -0.2715
  143OSM      N15643   5.087   6.775   5.812 -0.1681 -0.3705 -0.2173
  143OSM    C1515644   5.005   6.862   5.904  0.1567 -0.6364  0.1604
  143OSM   H15A15645   5.012   6.964   5.869 -0.4489  0.0887  1.9916
  143OSM   H15B15646   5.059   6.871   5.997  0.6254  0.8470 -0.2222
  143OSM   H15C15647   4.902   6.829   5.909  0.3853 -2.0465 -2.6131
  143OSM    C1415648   5.013   6.760   5.684  0.0901  0.2299  0.4453
  143OSM   H14A15649   5.082   6.727   5.608 -0.9357  0.1436 -0.4612
  143OSM   H14B15650   4.960   6.850   5.656  1.2015  0.9169  0.4981
  143OSM   H14C15651   4.941   6.680   5.691  1.4445 -0.9574  1.1836
  143OSM    C1315652   5.217   6.845   5.783  0.0698  0.8494  0.0000
  143OSM   H13A15653   5.282   6.786   5.719 -0.3532  0.7580 -0.3468
  143OSM   H13B15654   5.267   6.865   5.877 -0.5437 -2.3355  1.1167
  143OSM   H13C15655   5.203   6.941   5.737 -0.2752  1.0928  0.6046
  143OSM    C1215656   5.107   6.635   5.867 -0.1717  0.6952 -0.4369
  143OSM   H12A15657   5.150   6.576   5.787 -0.0245  1.2620 -0.7807
  143OSM   H12B15658   5.013   6.587   5.889  0.8256 -1.9285 -1.4419
  143OSM    C1115659   5.191   6.620   5.998 -0.0859  0.3724 -0.0012
  143OSM   H11A15660   5.289   6.662   5.969 -0.7187  1.1762 -1.0386
  143OSM   H11B15661   5.203   6.513   6.025 -1.2321  0.0209 -0.7940
  143OSM      P15662   5.019   6.681   6.193  0.3146 -0.3757 -0.1895
  143OSM    O1315663   4.980   6.809   6.265 -0.3264  0.1955  0.1299
  143OSM    O1415664   4.917   6.606   6.118  0.2756 -0.2368 -0.0980
  143OSM    O1115665   5.076   6.583   6.300 -0.1555 -0.1102  0.5490
  143OSM    O1215666   5.140   6.705   6.104  0.1642  0.3545  0.6430
  143OSM    C1S15667   5.210   6.607   6.345 -0.0553  0.8177 -0.2509
  143OSM    H1S15668   5.230   6.705   6.392  0.1272  0.7905 -0.2729
  143OSM    H1T15669   5.277   6.608   6.256 -0.4985 -0.1386 -0.6183
  143OSM     NF15670   5.356   6.545   6.532  0.0972  0.3367  0.6344
  143OSM    HNF15671   5.448   6.508   6.521  0.4856  0.8509  1.9219
  143OSM    C2S15672   5.254   6.501   6.446  0.4385  0.0745  0.4794
  143OSM    H2S15673   5.162   6.497   6.508 -0.9891  0.5811 -1.4923
  143OSM    C3S15674   5.286   6.361   6.375  0.1467 -0.3050  0.3536
  143OSM    H3S15675   5.383   6.379   6.325 -1.6590 -1.0449 -3.7842
  143OSM     O315676   5.196   6.332   6.266 -0.4656  0.0258 -0.4174
  143OSM    HO315677   5.130   6.401   6.263  2.3995  3.0200 -0.7101
  143OSM    C4S15678   5.282   6.251   6.475 -0.0300 -0.0939  0.2193
  143OSM    H4S15679   5.188   6.240   6.531  0.3296 -1.0904  0.6550
  143OSM    C5S15680   5.382   6.164   6.503  0.8219  0.4460 -0.0239
  143OSM    H5S15681   5.485   6.175   6.466  1.9416 -0.0858  2.6976
  143OSM    C6S15682   5.387   6.060   6.610  0.1964  0.0313  0.2141
  143OSM    H6S15683   5.457   5.978   6.584 -1.5088 -1.9882  1.6328
  143OSM    H6T15684   5.296   5.996   6.616  0.1346  0.2131  1.2618
  143OSM    C7S15685   5.406   6.114   6.745 -0.1591 -0.1470  0.1331
  143OSM    H7S15686   5.414   6.023   6.808  0.6473 -0.9380 -1.0698
  143OSM    H7T15687   5.316   6.177   6.759 -1.1474 -1.7125  1.1255
  143OSM    C8S15688   5.531   6.197   6.768 -0.4331  0.1644 -0.2066
  143OSM    H8S15689   5.513   6.287   6.706  1.7151  0.7888 -0.0315
  143OSM    H8T15690   5.622   6.148   6.725 -0.0930 -0.7647  1.4969
  143OSM    C9S15691   5.565   6.233   6.911 -0.0859  0.2063  0.0595
  143OSM    H9S15692   5.672   6.262   6.912  1.1917 -3.8281  1.8357
  143OSM    H9T15693   5.562   6.149   6.983  0.0486  0.8734  0.8641
  143OSM   C10S15694   5.474   6.336   6.978  0.1375 -0.1872 -0.4577
  143OSM   H10S15695   5.369   6.315   6.949 -0.4775 -0.8977  2.0175
  143OSM   H10T15696   5.514   6.431   6.937  2.2399  0.0578  1.8866
  143OSM   C11S15697   5.473   6.339   7.131 -0.3395 -1.0087  0.4507
  143OSM   H11S15698   5.579   6.320   7.158 -0.6113  0.0510  2.4570
  143OSM   H11T15699   5.404   6.260   7.168  0.4461 -2.3653 -0.8718
  143OSM   C12S15700   5.425   6.481   7.177 -0.2649  0.0518  0.3769
  143OSM   H12S15701   5.333   6.518   7.127  1.8729  0.2506 -3.8189
  143OSM   H12T15702   5.510   6.548   7.154  1.0777 -1.7780 -0.2124
  143OSM   C13S15703   5.407   6.498   7.332 -0.4266  0.8227  0.7819
  143OSM   H13S15704   5.317   6.451   7.377  0.0167  0.0346  0.8754
  143OSM   H13T15705   5.394   6.607   7.348 -0.7012  1.2917 -2.2109
  143OSM   C14S15706   5.536   6.456   7.407  0.2437 -0.0397 -0.4458
  143OSM   H14S15707   5.626   6.508   7.369  2.0256 -2.4603  0.2076
  143OSM   H14T15708   5.556   6.347   7.397  0.0615 -0.0516 -0.6817
  143OSM   C15S15709   5.537   6.499   7.555 -0.2913 -0.6712  0.5073
  143OSM   H15S15710   5.531   6.610   7.555  0.6288 -0.6090  0.9158
  143OSM   H15T15711   5.639   6.473   7.590  0.2130 -0.4087 -0.7077
  143OSM   C16S15712   5.438   6.435   7.650 -0.1275 -0.1425 -0.2613
  143OSM   H16S15713   5.430   6.327   7.626 -1.7161  0.1736 -1.2775
  143OSM   H16T15714   5.339   6.479   7.627 -0.5075 -1.0564 -0.4453
  143OSM   C17S15715   5.466   6.454   7.800  0.4341  0.2671 -0.2770
  143OSM   H17S15716   5.574   6.436   7.814  0.1495 -0.5316  1.1000
  143OSM   H17T15717   5.410   6.368   7.843  0.8097  0.6564  1.0198
  143OSM   C18S15718   5.412   6.586   7.858 -0.2386  0.2933 -0.1378
  143OSM   H18S15719   5.302   6.593   7.841 -0.5730  2.5279  2.2615
  143OSM   H18T15720   5.458   6.675   7.810 -2.2333  1.2765 -0.3326
  143OSM   H18U15721   5.433   6.598   7.967  1.3745  1.6108 -0.5554
  143OSM    C1F15722   5.348   6.655   6.609  0.0577  0.1731 -0.2237
  143OSM     OF15723   5.247   6.719   6.613  0.1789  0.4240  0.3485
  143OSM    C2F15724   5.477   6.692   6.681 -0.1751 -0.4363  0.2732
  143OSM    H2F15725   5.569   6.672   6.622 -1.1020  0.3639 -1.5136
  143OSM    H2G15726   5.490   6.617   6.762  2.5626  0.1096  0.4342
  143OSM    C3F15727   5.493   6.847   6.733 -0.3480 -0.3334  0.2266
  143OSM    H3F15728   5.485   6.912   6.643 -3.0279 -0.5348  0.2409
  143OSM    H3G15729   5.595   6.851   6.775 -0.3991  1.4312  0.2722
  143OSM    C4F15730   5.384   6.904   6.834 -0.1241 -0.0996 -0.3851
  143OSM    H4F15731   5.284   6.911   6.787 -0.0619 -0.1201 -0.5201
  143OSM    H4G15732   5.415   7.008   6.858 -0.4035 -0.2688  0.7705
  143OSM    C5F15733   5.365   6.817   6.966 -0.1010 -0.5061 -0.2295
  143OSM    H5F15734   5.455   6.842   7.026 -0.3315  0.3876 -0.2430
  143OSM    H5G15735   5.362   6.713   6.927  1.3022 -0.6721  0.0404
  143OSM    C6F15736   5.252   6.857   7.053  0.4260  0.8489 -0.1130
  143OSM    H6F15737   5.246   6.776   7.129  2.9376  0.7416  0.0504
  143OSM    H6G15738   5.154   6.867   7.002 -0.2061 -1.7092  0.4397
  143OSM    C7F15739   5.286   6.985   7.129  0.7462  1.0637  0.1779
  143OSM    H7F15740   5.299   7.071   7.060  2.8754  0.9444  0.3609
  143OSM    H7G15741   5.386   6.963   7.173 -0.0022  0.0747  1.4506
  143OSM    C8F15742   5.194   7.007   7.248 -0.2178 -0.0058  0.0111
  143OSM    H8F15743   5.154   6.909   7.283 -0.5395  0.4935  1.0986
  143OSM    H8G15744   5.104   7.058   7.207 -2.2894 -1.4109  2.4925
  143OSM    C9F15745   5.265   7.082   7.355 -0.1789  0.1766 -0.0883
  143OSM    H9F15746   5.329   7.165   7.324 -0.7081  1.4893  2.1253
  143OSM   C10F15747   5.261   7.062   7.492  0.5624  0.0527 -0.2919
  143OSM   H10F15748   5.322   7.118   7.564  1.2952 -2.1329  0.9039
  143OSM   C11F15749   5.176   6.949   7.550 -0.4573 -0.1947 -0.9222
  143OSM   H11F15750   5.221   6.881   7.625  0.6761 -0.8080 -2.1181
  143OSM   H11G15751   5.150   6.879   7.468  3.1942  1.3922 -3.7225
  143OSM   C12F15752   5.039   6.988   7.606  0.3033  0.0442  0.0346
  143OSM   H12F15753   4.980   6.896   7.620  2.1837 -1.1133  0.7818
  143OSM   H12G15754   4.978   7.048   7.536  1.4397  2.1661  0.7657
  143OSM   C13F15755   5.055   7.056   7.744 -0.3399 -0.5213 -0.1013
  143OSM   H13F15756   4.972   7.130   7.747 -0.2722 -0.4762  1.2970
  143OSM   H13G15757   5.151   7.113   7.745  0.7945 -2.3242 -1.0838
  143OSM   C14F15758   5.040   6.970   7.870 -0.5130 -0.0608 -0.3378
  143OSM   H14F15759   5.122   6.894   7.866  0.6788  1.2238 -1.2679
  143OSM   H14G15760   4.937   6.931   7.853 -1.0434  0.7015  0.9832
  143OSM   C15F15761   5.054   7.042   8.002 -0.1675  0.0731 -0.4238
  143OSM   H15F15762   5.008   7.143   7.997  0.7874  0.4864 -1.6146
  143OSM   H15G15763   5.158   7.077   8.020 -0.1834  0.2084 -0.5922
  143OSM   C16F15764   5.000   6.968   8.124  0.4130 -0.1422  0.5477
  143OSM   H16F15765   4.906   6.916   8.095 -0.1056  0.3739  1.2656
  143OSM   H16G15766   4.982   7.036   8.209 -0.4791  1.4801 -0.8823
  143OSM   C17F15767   5.097   6.860   8.175 -0.3481  0.7064  0.0649
  143OSM   H17F15768   5.193   6.909   8.202  1.1489 -1.5267 -0.9010
  143OSM   H17G15769   5.106   6.799   8.083 -1.6413  1.2230 -0.4312
  143OSM   C18F15770   5.051   6.757   8.281  0.4147  0.2971  0.0581
  143OSM   H18F15771   5.022   6.805   8.377  0.8110 -0.5241  0.5984
  143OSM   H18G15772   5.125   6.676   8.299  1.0676  0.8152 -0.2948
  143OSM   H18H15773   4.958   6.710   8.241  1.8106 -2.1746 -0.4780
  144OSM      N15774   4.173   5.315   6.202  1.0519 -0.0068 -0.5106
  144OSM    C1515775   4.316   5.286   6.201 -0.2245  0.9818 -0.3101
  144OSM   H15A15776   4.376   5.376   6.207  2.0345 -0.4060 -0.7243
  144OSM   H15B15777   4.343   5.232   6.111 -0.9216 -0.5577  0.3640
  144OSM   H15C15778   4.348   5.237   6.292 -1.4800 -0.9739 -0.8525
  144OSM    C1415779   4.146   5.400   6.078  0.1284  0.1428 -0.0301
  144OSM   H14A15780   4.201   5.493   6.081  0.9335 -0.2800 -1.1864
  144OSM   H14B15781   4.044   5.434   6.067 -0.5508 -1.9885 -0.9844
  144OSM   H14C15782   4.169   5.342   5.990  0.3783 -0.7991  0.6257
  144OSM    C1315783   4.101   5.188   6.188  0.3623 -0.4871 -0.1791
  144OSM   H13A15784   4.105   5.129   6.279 -3.0462  1.6859  1.5818
  144OSM   H13B15785   4.144   5.130   6.108 -0.6061 -1.3452 -0.0942
  144OSM   H13C15786   3.998   5.212   6.167  0.9073  1.3958 -0.8336
  144OSM    C1215787   4.123   5.390   6.327 -0.4526  0.0369  0.7164
  144OSM   H12A15788   4.142   5.325   6.411  0.5009 -1.0930 -0.3256
  144OSM   H12B15789   4.017   5.405   6.316 -0.4824 -1.0833 -1.0107
  144OSM    C1115790   4.188   5.524   6.368 -0.4062 -0.7780  0.2613
  144OSM   H11A15791   4.298   5.520   6.383 -0.2011  0.3498 -0.8599
  144OSM   H11B15792   4.144   5.551   6.467  0.4275 -1.7180  0.9199
  144OSM      P15793   4.036   5.721   6.263  0.4054  0.0772  0.3132
  144OSM    O1315794   4.059   5.830   6.167 -0.1933  0.1933  0.6024
  144OSM    O1415795   3.930   5.626   6.224  0.1514  0.3306 -0.2887
  144OSM    O1115796   4.033   5.780   6.409 -0.2679 -0.1670  0.2346
  144OSM    O1215797   4.158   5.629   6.277 -0.1362  0.1901  0.6940
  144OSM    C1S15798   4.141   5.850   6.465 -0.2192 -0.3910  0.1126
  144OSM    H1S15799   4.164   5.949   6.421 -2.1908  0.6181  1.2346
  144OSM    H1T15800   4.240   5.800   6.480 -0.6966 -0.3199  5.2552
  144OSM     NF15801   4.176   5.991   6.678  0.7080  0.1708 -0.8148
  144OSM    HNF15802   4.231   5.958   6.754  0.5020  0.0347 -0.7240
  144OSM    C2S15803   4.088   5.892   6.610 -0.1402 -0.6515  0.0240
  144OSM    H2S15804   3.993   5.948   6.593  0.7190  0.5385 -1.0710
  144OSM    C3S15805   4.057   5.757   6.690 -0.9255 -0.2009  0.2294
  144OSM    H3S15806   4.141   5.685   6.679 -0.2986  0.5645 -0.0530
  144OSM     O315807   3.955   5.674   6.640 -0.5956  0.0585  0.7903
  144OSM    HO315808   3.946   5.713   6.552 -1.0686 -1.3306  0.2077
  144OSM    C4S15809   4.031   5.793   6.837 -0.3116  0.8830  1.0775
  144OSM    H4S15810   4.127   5.799   6.889  1.2157 -0.7152 -1.3430
  144OSM    C5S15811   3.913   5.810   6.899 -0.4470  0.2928 -0.4037
  144OSM    H5S15812   3.822   5.806   6.838 -0.9263  2.9341 -0.0172
  144OSM    C6S15813   3.884   5.849   7.048 -1.0432 -0.0222  0.5095
  144OSM    H6S15814   3.980   5.840   7.104 -0.9445 -3.0496  0.0472
  144OSM    H6T15815   3.815   5.772   7.088 -0.5814  0.2283  1.8352
  144OSM    C7S15816   3.825   5.987   7.062 -0.8110  0.0027 -0.3295
  144OSM    H7S15817   3.745   6.004   6.987 -0.1520  3.0031 -0.4927
  144OSM    H7T15818   3.912   6.056   7.060  0.1000 -1.1316 -2.2842
  144OSM    C8S15819   3.761   6.002   7.205  0.6088 -0.2360 -0.8654
  144OSM    H8S15820   3.678   5.929   7.207 -0.6081  1.1189  0.4381
  144OSM    H8T15821   3.713   6.102   7.211  0.0341 -0.5745  0.2603
  144OSM    C9S15822   3.856   5.997   7.321 -0.6934  0.3147  0.1968
  144OSM    H9S15823   3.949   6.048   7.288 -2.1504  1.8255 -1.8235
  144OSM    H9T15824   3.893   5.896   7.349  3.3712  1.7326  0.6500
  144OSM   C10S15825   3.805   6.066   7.448  0.1738 -0.5324  0.0118
  144OSM   H10S15826   3.709   6.019   7.477 -0.1627  0.4131  0.4718
  144OSM   H10T15827   3.803   6.174   7.424 -1.2661 -0.6027 -0.2638
  144OSM   C11S15828   3.892   6.037   7.568 -0.7439  0.9227  0.9869
  144OSM   H11S15829   3.998   6.064   7.551 -1.4740  3.1726 -0.4347
  144OSM   H11T15830   3.881   5.931   7.600 -1.2879  0.2065 -1.3457
  144OSM   C12S15831   3.855   6.133   7.684 -1.0048  0.1667 -0.1503
  144OSM   H12S15832   3.834   6.231   7.635  2.0659  0.2075 -1.6403
  144OSM   H12T15833   3.947   6.150   7.744 -0.7286 -0.4050 -0.4058
  144OSM   C13S15834   3.751   6.083   7.771 -0.3770  0.3295 -0.3796
  144OSM   H13S15835   3.681   6.024   7.708  1.9039  0.0419 -2.7994
  144OSM   H13T15836   3.701   6.162   7.831 -1.1539 -0.7197  0.3990
  144OSM   C14S15837   3.801   5.981   7.880  0.4252 -0.2993  0.5490
  144OSM   H14S15838   3.851   5.895   7.831  2.5769 -0.0109  2.0632
  144OSM   H14T15839   3.723   5.941   7.949  0.6625 -0.5361  0.6811
  144OSM   C15S15840   3.893   6.036   7.991  0.2682  0.0344  0.3067
  144OSM   H15S15841   3.844   6.116   8.051 -0.8719  0.4505 -1.0967
  144OSM   H15T15842   3.984   6.082   7.945  0.3737  3.8696  3.7770
  144OSM   C16S15843   3.950   5.939   8.086 -0.0646  0.4733  0.1343
  144OSM   H16S15844   4.035   5.988   8.139  0.1463  1.0034 -0.6769
  144OSM   H16T15845   3.995   5.845   8.048  0.1300  1.2298 -1.5501
  144OSM   C17S15846   3.858   5.886   8.192  0.0913  0.0214  0.3845
  144OSM   H17S15847   3.924   5.811   8.241  1.1038 -0.2151 -1.2565
  144OSM   H17T15848   3.763   5.837   8.163  0.2173 -0.1436  0.2456
  144OSM   C18S15849   3.836   5.992   8.305  0.5071 -0.3081  0.4954
  144OSM   H18S15850   3.935   6.032   8.336  0.5066  1.2003 -1.2945
  144OSM   H18T15851   3.796   5.933   8.391  0.2287  0.4976  0.9278
  144OSM   H18U15852   3.772   6.076   8.272 -0.8514 -1.4291  0.1452
  144OSM    C1F15853   4.182   6.115   6.640 -0.1334 -0.2230  0.1200
  144OSM     OF15854   4.104   6.164   6.562  0.1807 -0.3135  0.0650
  144OSM    C2F15855   4.296   6.191   6.705  0.1680  0.1224 -0.2637
  144OSM    H2F15856   4.369   6.224   6.628  0.9769 -0.8993  0.0415
  144OSM    H2G15857   4.347   6.124   6.778  0.1863  1.9151  1.4743
  144OSM    C3F15858   4.243   6.316   6.780 -0.4037  0.5450  0.6674
  144OSM    H3F15859   4.180   6.365   6.703  1.3352 -0.6969 -1.7154
  144OSM    H3G15860   4.330   6.380   6.804  0.1737 -0.1131  0.3962
  144OSM    C4F15861   4.183   6.277   6.920 -0.2221  0.6858 -0.2495
  144OSM    H4F15862   4.259   6.258   6.998 -0.1087 -3.2979 -1.1364
  144OSM    H4G15863   4.106   6.197   6.916  2.2177 -1.7595 -1.2145
  144OSM    C5F15864   4.102   6.393   6.978  0.0044  0.3149 -0.3442
  144OSM    H5F15865   4.018   6.398   6.906  0.3042  3.4530 -0.6233
  144OSM    H5G15866   4.157   6.490   6.981 -1.7156  1.2912  1.3343
  144OSM    C6F15867   4.047   6.364   7.121 -0.6989 -0.3107  0.9458
  144OSM    H6F15868   4.034   6.254   7.125 -0.7402 -0.3261  0.4738
  144OSM    H6G15869   3.952   6.421   7.125  0.4774  2.0031 -1.0853
  144OSM    C7F15870   4.145   6.408   7.229  0.2869  0.3505  0.4723
  144OSM    H7F15871   4.142   6.518   7.237  0.2448  0.4785 -1.0536
  144OSM    H7G15872   4.250   6.375   7.210 -0.2306 -0.8338 -0.5007
  144OSM    C8F15873   4.113   6.335   7.362  0.5017 -0.1272 -0.0007
  144OSM    H8F15874   4.150   6.231   7.350  2.2922  0.6217 -1.4482
  144OSM    H8G15875   4.002   6.328   7.359  0.4102  1.0185 -2.9343
  144OSM    C9F15876   4.171   6.410   7.483  0.2206 -0.4345  0.2195
  144OSM    H9F15877   4.142   6.513   7.508  3.9157  1.0426 -0.9090
  144OSM   C10F15878   4.246   6.343   7.575  0.0777 -0.6648  0.2209
  144OSM   H10F15879   4.293   6.408   7.651  1.2565 -1.4187  0.1751
  144OSM   C11F15880   4.270   6.192   7.583 -0.8836 -0.5427  0.2558
  144OSM   H11F15881   4.357   6.153   7.525 -2.0765 -0.3556 -1.7839
  144OSM   H11G15882   4.192   6.131   7.531 -1.5353  0.0991  0.4632
  144OSM   C12F15883   4.265   6.155   7.727 -0.0858  0.0083 -0.6719
  144OSM   H12F15884   4.236   6.049   7.741 -2.6570  0.7357 -0.1169
  144OSM   H12G15885   4.188   6.214   7.781 -1.2653  0.3798 -2.6682
  144OSM   C13F15886   4.400   6.181   7.804  0.8140  0.6767  0.0211
  144OSM   H13F15887   4.464   6.250   7.745 -0.0276  1.6748  0.2293
  144OSM   H13G15888   4.457   6.086   7.812 -2.9198 -1.7555  0.4021
  144OSM   C14F15889   4.381   6.249   7.946  0.2355 -0.5304  0.2300
  144OSM   H14F15890   4.305   6.330   7.955  0.1505 -0.5508 -0.3066
  144OSM   H14G15891   4.471   6.312   7.964 -0.0830  0.2877 -0.9261
  144OSM   C15F15892   4.357   6.139   8.051 -0.4765  0.6581 -0.0356
  144OSM   H15F15893   4.457   6.092   8.060 -1.0516 -0.3889  1.3824
  144OSM   H15G15894   4.277   6.069   8.017  0.9962 -0.5075 -1.2057
  144OSM   C16F15895   4.326   6.208   8.183 -0.4570  0.3847 -0.4327
  144OSM   H16F15896   4.403   6.287   8.200 -1.7267  1.6165 -0.2288
  144OSM   H16G15897   4.339   6.128   8.259  0.4436  1.1766  0.2707
  144OSM   C17F15898   4.184   6.261   8.197 -0.8469  0.7711  0.6468
  144OSM   H17F15899   4.109   6.180   8.186 -0.5866  0.2701  2.3375
  144OSM   H17G15900   4.170   6.340   8.120 -1.3952 -0.5236 -0.6047
  144OSM   C18F15901   4.154   6.326   8.329 -0.2293 -0.6356 -0.7545
  144OSM   H18F15902   4.068   6.396   8.333 -0.0926 -0.4512 -1.0194
  144OSM   H18G15903   4.239   6.378   8.377  0.5506 -1.6888 -0.9543
  144OSM   H18H15904   4.126   6.246   8.400  0.1421 -0.2870 -0.2147
  145SAPE     N15905   2.105   0.820  10.675 -0.3601  0.0594  0.1904
  145SAPE   HN115906   2.051   0.731  10.680 -1.8418  0.9621  0.9398
  145SAPE   HN215907   2.204   0.817  10.706 -0.4638  0.5188  0.5840
  145SAPE   HN315908   2.044   0.873  10.740 -1.7799 -0.0230 -1.0199
  145SAPE   C1215909   2.100   0.885  10.541 -0.4366 -0.9692 -0.5219
  145SAPE  H12A15910   2.123   0.810  10.463  0.3209  0.1824 -1.4487
  145SAPE  H12B15911   2.179   0.963  10.542 -0.5518 -0.8512 -0.4775
  145SAPE   C1115912   1.960   0.939  10.507  0.0299 -0.2034  0.0066
  145SAPE  H11A15913   1.892   0.851  10.494  1.1222 -0.7977 -1.9758
  145SAPE  H11B15914   1.969   0.983  10.406 -1.4121  1.3442  0.5120
  145SAPE     P15915   1.750   1.028  10.632 -0.4011  0.0920  0.2705
  145SAPE   O1315916   1.701   0.903  10.694 -0.8836  0.4703  0.0228
  145SAPE   O1415917   1.714   1.153  10.702 -0.1223 -0.2907  0.1880
  145SAPE   O1215918   1.907   1.019  10.614  0.1016 -0.0858 -0.3608
  145SAPE   O1115919   1.702   1.022  10.480 -0.4120 -0.6102 -0.6876
  145SAPE    C115920   1.721   1.131  10.390  0.7993  0.6177 -0.0934
  145SAPE    HA15921   1.660   1.217  10.423 -0.0875  0.7317 -1.9193
  145SAPE    HB15922   1.825   1.171  10.394  1.1781  0.0793 -2.7061
  145SAPE    C215923   1.689   1.093  10.242 -0.1124 -0.5044  0.0716
  145SAPE    HS15924   1.593   1.039  10.224  0.1755 -0.2997 -2.4320
  145SAPE   O2115925   1.790   1.008  10.190  0.5554 -0.4434 -0.0414
  145SAPE   C2115926   1.789   0.881  10.222 -0.0699 -0.1588 -0.1108
  145SAPE   O2215927   1.712   0.816  10.287  0.5654 -0.1763 -0.1442
  145SAPE   C2215928   1.920   0.820  10.162  0.1825 -0.3894  0.2388
  145SAPE   H2R15929   2.006   0.883  10.192 -1.0437  2.5538 -1.9282
  145SAPE   H2S15930   1.925   0.718  10.206  0.3441 -0.8021 -0.6972
  145SAPE    C315931   1.679   1.213  10.145  0.2741  0.0934  0.0473
  145SAPE    HX15932   1.764   1.280  10.169  0.7899 -1.1822  1.9780
  145SAPE    HY15933   1.591   1.274  10.174  0.0323 -0.6141  0.8361
  145SAPE   O3115934   1.653   1.164  10.005 -0.0501  0.0007  0.2423
  145SAPE   C3115935   1.761   1.183   9.931 -0.1759 -0.1577 -0.1414
  145SAPE   O3215936   1.874   1.214   9.973  0.7350  0.5850  0.4676
  145SAPE   C3215937   1.721   1.129   9.797  0.9498 -0.2002  0.4837
  145SAPE   H2X15938   1.637   1.190   9.759  2.4827  0.9732 -1.1785
  145SAPE   H2Y15939   1.690   1.022   9.807 -0.6480  0.1178 -0.6217
  145SAPE   C2315940   1.925   0.816  10.006 -0.1214 -0.3414 -0.3193
  145SAPE   H3R15941   1.911   0.924   9.982  1.6876  0.0599  0.3441
  145SAPE   H3S15942   1.839   0.765   9.956 -1.2185 -0.0629  1.2167
  145SAPE   C2415943   2.058   0.760   9.951 -0.1312  0.1672  0.5162
  145SAPE   H4R15944   2.142   0.814  10.001  0.1321  0.5361 -0.3101
  145SAPE   H4S15945   2.061   0.793   9.845  0.6085  0.0511  0.4958
  145SAPE   C2515946   2.067   0.610   9.949  0.0739  0.2722 -0.4249
  145SAPE   H5R15947   2.057   0.565  10.049 -1.1485 -0.5614 -0.8909
  145SAPE   C2615948   2.067   0.528   9.845 -0.3035 -0.1425 -0.0165
  145SAPE   H6R15949   2.065   0.420   9.865 -1.8462  0.0757  1.2232
  145SAPE   C2715950   2.076   0.568   9.697 -0.6358 -0.1098 -0.6450
  145SAPE   H7R15951   2.158   0.640   9.678 -1.4429  0.3381 -2.8381
  145SAPE   H7S15952   1.982   0.610   9.655 -0.9388  2.3774  2.2071
  145SAPE   C2815953   2.114   0.460   9.601 -0.8619  0.1699  0.3844
  145SAPE   H8R15954   2.076   0.361   9.630 -3.7928  1.1537  0.2216
  145SAPE   C2915955   2.143   0.477   9.469 -0.8516  0.4790  0.1834
  145SAPE   H9R15956   2.178   0.384   9.423 -0.7900  0.1360  0.9078
  145SAPE  C21015957   2.156   0.616   9.403 -0.4979 -0.0384  0.5864
  145SAPE  H10R15958   2.254   0.618   9.350 -0.4566  4.0050  0.5810
  145SAPE  H10S15959   2.151   0.704   9.470  0.1041  0.2147  0.3033
  145SAPE  C21115960   2.043   0.639   9.295 -0.2813  0.1962 -0.5016
  145SAPE  H11R15961   1.947   0.646   9.348 -0.0507 -0.0034 -0.0508
  145SAPE  C21215962   2.051   0.672   9.164  0.1709  0.1311  0.0139
  145SAPE  H12R15963   1.955   0.701   9.119 -1.0006 -0.1257  2.2274
  145SAPE  C21315964   2.167   0.696   9.082 -0.4824  0.8317  0.3986
  145SAPE  H13R15965   2.168   0.634   8.990 -1.6574 -0.0857  0.9896
  145SAPE  H13S15966   2.263   0.664   9.128  0.6013  1.6208 -1.2290
  145SAPE  C21415967   2.195   0.842   9.055 -0.3219  0.1899  0.4987
  145SAPE  H14R15968   2.134   0.910   9.116  0.7470 -1.1227  3.2050
  145SAPE  C21515969   2.279   0.897   8.964  0.2152  0.0436 -0.1862
  145SAPE  H15R15970   2.276   1.007   8.956 -2.0676  0.0480 -0.0753
  145SAPE  C21615971   2.370   0.820   8.874  0.3842  0.1782  0.6006
  145SAPE  H16R15972   2.394   0.718   8.910 -1.0537 -0.5134 -0.3158
  145SAPE  H16S15973   2.466   0.876   8.876  0.0680  0.7427  0.1951
  145SAPE  C21715974   2.310   0.811   8.725 -0.5111  0.3546  0.0799
  145SAPE  H17R15975   2.271   0.907   8.684 -1.3177  0.8591  1.8974
  145SAPE  H17S15976   2.216   0.753   8.741  0.3681 -0.6499  1.8705
  145SAPE  C21815977   2.406   0.731   8.631 -0.5623 -0.8687 -0.1543
  145SAPE  H18R15978   2.364   0.721   8.528  0.6475  1.2425 -0.9296
  145SAPE  H18S15979   2.430   0.631   8.672 -1.3018 -0.7216  0.6690
  145SAPE  C21915980   2.544   0.807   8.623  0.3086 -0.0792  0.1360
  145SAPE  H19R15981   2.574   0.806   8.730 -0.4741 -0.6100  0.3554
  145SAPE  H19S15982   2.529   0.911   8.584 -1.1930 -1.5251 -3.6431
  145SAPE  C22015983   2.653   0.751   8.526  0.1857  0.8314  0.2739
  145SAPE  H20R15984   2.648   0.640   8.530  1.2120  0.7825  0.4664
  145SAPE  H20S15985   2.758   0.774   8.553  0.9923 -1.3032 -0.7762
  145SAPE  H20T15986   2.648   0.787   8.421 -3.2280 -1.9378 -0.7196
  145SAPE   C3315987   1.836   1.149   9.695 -0.2008 -0.2893 -0.0677
  145SAPE   H3X15988   1.917   1.080   9.725  1.0538  1.1927  0.0359
  145SAPE   H3Y15989   1.862   1.256   9.711 -0.7371  0.3720 -2.9730
  145SAPE   C3415990   1.792   1.121   9.551 -0.0940  0.0072  0.6505
  145SAPE   H4X15991   1.705   1.183   9.519  0.0696 -0.7291 -1.3595
  145SAPE   H4Y15992   1.747   1.023   9.521 -1.2220  0.8890 -0.6739
  145SAPE   C3515993   1.910   1.139   9.452  0.0241  0.5600  0.1305
  145SAPE   H5X15994   1.977   1.053   9.475 -1.2831 -0.6833 -0.4893
  145SAPE   H5Y15995   1.963   1.233   9.475  0.4472  0.1673  0.8017
  145SAPE   C3615996   1.873   1.129   9.304 -0.4962 -0.7860 -0.1680
  145SAPE   H6X15997   1.933   1.208   9.255 -1.9393 -0.6804 -1.9015
  145SAPE   H6Y15998   1.770   1.168   9.290 -0.4561 -0.7796 -0.4394
  145SAPE   C3715999   1.891   0.997   9.230  0.8032 -0.1847 -0.0636
  145SAPE   H7X16000   1.821   0.932   9.287 -0.1198 -1.6942 -2.7809
  145SAPE   H7Y16001   2.000   0.977   9.238  0.7149 -1.6779 -1.8498
  145SAPE   C3816002   1.829   1.021   9.094  0.0436  0.6201  0.7162
  145SAPE   H8X16003   1.719   1.006   9.098 -0.0971  1.6328  0.9691
  145SAPE   H8Y16004   1.861   0.937   9.028  1.0407 -0.4060  2.4163
  145SAPE   C3916005   1.853   1.155   9.028 -0.1189  1.0587  0.1556
  145SAPE   H9X16006   1.961   1.178   9.039  0.6085 -2.2230  0.9941
  145SAPE   H9Y16007   1.773   1.226   9.057 -1.2845 -0.3025  0.4030
  145SAPE  C31016008   1.839   1.138   8.873  0.7689 -0.1149  0.1333
  145SAPE  H10X16009   1.774   1.050   8.853  2.9974 -1.5464 -1.2918
  145SAPE  H10Y16010   1.936   1.105   8.829  1.6904  0.5875  1.5468
  145SAPE  C31116011   1.793   1.259   8.791 -0.0029  0.3160 -0.6900
  145SAPE  H11X16012   1.880   1.328   8.783  0.4235 -0.2941 -1.5496
  145SAPE  H11Y16013   1.701   1.309   8.827  0.4132  0.6893 -0.1191
  145SAPE  C31216014   1.769   1.224   8.641  0.4966  0.1352 -0.0362
  145SAPE  H12X16015   1.861   1.196   8.585  1.0874  0.4627  0.7382
  145SAPE  H12Y16016   1.748   1.326   8.602  0.3742  0.2217  0.2546
  145SAPE  C31316017   1.660   1.127   8.607  0.4780  1.1860 -0.5103
  145SAPE  H13X16018   1.695   1.030   8.649 -0.4159  0.1729 -2.0174
  145SAPE  H13Y16019   1.655   1.112   8.497 -0.5867 -2.0190 -0.1185
  145SAPE  C31416020   1.515   1.145   8.661  0.2998 -0.6809 -0.1855
  145SAPE  H14X16021   1.461   1.214   8.591 -0.5654 -2.4413 -1.3267
  145SAPE  H14Y16022   1.506   1.202   8.756  0.6281 -1.4159  0.2908
  145SAPE  C31516023   1.441   1.011   8.681 -0.1633 -0.3843 -0.0692
  145SAPE  H15X16024   1.485   0.951   8.763 -0.3936  0.8932  1.0214
  145SAPE  H15Y16025   1.463   0.960   8.585  4.1467 -0.3460  0.7099
  145SAPE  C31616026   1.292   1.027   8.712  0.9627  0.1180  0.7477
  145SAPE  H16X16027   1.243   1.081   8.628  2.1481  0.6871  0.3888
  145SAPE  H16Y16028   1.279   1.096   8.798 -1.0287 -1.0460  1.4331
  145SAPE  C31716029   1.226   0.900   8.748  0.4708  0.0800 -0.0468
  145SAPE  H17X16030   1.123   0.915   8.788  0.3846  0.5965 -0.4470
  145SAPE  H17Y16031   1.286   0.851   8.827  2.0296  0.0776 -1.1838
  145SAPE  C31816032   1.197   0.798   8.639  0.6202  0.4876  0.0924
  145SAPE  H18X16033   1.297   0.774   8.596 -0.0586 -1.9594 -0.2599
  145SAPE  H18Y16034   1.137   0.851   8.562  0.5668  2.7458  1.6167
  145SAPE  H18Z16035   1.157   0.698   8.668 -0.2800  1.3394  1.9028
  146SAPE     N16036   0.510   1.686  10.718  0.2754  0.3047  0.2428
  146SAPE   HN116037   0.492   1.590  10.682  0.3293 -0.2888  1.7379
  146SAPE   HN216038   0.610   1.691  10.747  1.1718 -4.4333 -1.1099
  146SAPE   HN316039   0.451   1.704  10.801  1.7904  1.2174  1.1742
  146SAPE   C1216040   0.482   1.774  10.602 -0.2544 -0.6160  0.0250
  146SAPE  H12A16041   0.375   1.759  10.574 -1.4990  0.6848  3.5677
  146SAPE  H12B16042   0.554   1.735  10.527  1.5333  0.5084  1.1107
  146SAPE   C1116043   0.514   1.921  10.636  0.3629 -0.1373  0.2282
  146SAPE  H11A16044   0.428   1.957  10.697 -0.4665  2.3256 -2.1649
  146SAPE  H11B16045   0.508   1.983  10.544  3.4241  0.5407  0.3689
  146SAPE     P16046   0.771   1.965  10.616 -0.2949  0.1907 -0.4279
  146SAPE   O1316047   0.768   2.109  10.575 -0.3825 -0.4393  0.6063
  146SAPE   O1416048   0.897   1.921  10.690  0.5828 -0.1157  0.4950
  146SAPE   O1216049   0.641   1.934  10.704  0.1909  0.0560  0.1317
  146SAPE   O1116050   0.759   1.874  10.491  0.2192 -0.5865  0.0873
  146SAPE    C116051   0.853   1.776  10.459 -0.6954  0.0444 -0.1524
  146SAPE    HA16052   0.955   1.813  10.480 -0.2795 -0.9480 -0.3804
  146SAPE    HB16053   0.847   1.685  10.522 -1.0828 -0.0349 -0.2972
  146SAPE    C216054   0.846   1.737  10.314  0.1334  0.3870 -0.1312
  146SAPE    HS16055   0.945   1.696  10.288  0.2745  0.7227 -0.1335
  146SAPE   O2116056   0.808   1.847  10.230  0.1819  0.4599 -0.0622
  146SAPE   C2116057   0.883   1.956  10.250  0.7682  0.2798  0.0842
  146SAPE   O2216058   0.997   1.958  10.290  0.6190  0.4019 -0.3792
  146SAPE   C2216059   0.795   2.075  10.222  0.6332 -0.8564  0.2186
  146SAPE   H2R16060   0.716   2.058  10.145 -0.0887 -1.1838  1.0152
  146SAPE   H2S16061   0.736   2.112  10.309 -1.4448 -2.7703 -0.2669
  146SAPE    C316062   0.729   1.633  10.289 -0.2929 -0.4898  0.0701
  146SAPE    HX16063   0.636   1.688  10.314  0.8300  0.8787  1.4510
  146SAPE    HY16064   0.741   1.538  10.344 -0.6509  0.8771  2.6380
  146SAPE   O3116065   0.731   1.607  10.144  0.9281 -0.1943 -0.3927
  146SAPE   C3116066   0.645   1.518  10.104  0.1902 -0.6056 -0.0354
  146SAPE   O3216067   0.554   1.471  10.167  0.0163 -0.2159  0.1699
  146SAPE   C3216068   0.678   1.477   9.961 -0.5820 -0.3228 -0.6217
  146SAPE   H2X16069   0.783   1.443   9.967 -0.6441 -0.3173  0.8233
  146SAPE   H2Y16070   0.678   1.566   9.894 -0.7701  0.8007  0.8355
  146SAPE   C2316071   0.881   2.191  10.167  0.7426 -0.3535 -0.5819
  146SAPE   H3R16072   0.956   2.154  10.093  0.7296 -1.5195 -0.0342
  146SAPE   H3S16073   0.933   2.233  10.256 -0.3900 -0.4902  0.1572
  146SAPE   C2416074   0.791   2.299  10.095  0.2726  0.5554 -0.2442
  146SAPE   H4R16075   0.858   2.388  10.096 -0.6264  1.2541  0.6331
  146SAPE   H4S16076   0.708   2.323  10.166  0.0524 -2.5304  0.6589
  146SAPE   C2516077   0.735   2.250   9.959  0.0440  0.4990 -0.1095
  146SAPE   H5R16078   0.712   2.143   9.957  0.6335  0.2445  2.5931
  146SAPE   C2616079   0.741   2.314   9.840  0.0647 -0.4549 -0.2368
  146SAPE   H6R16080   0.710   2.262   9.749  0.2750  1.1491 -1.2546
  146SAPE   C2716081   0.783   2.460   9.812  0.4317  0.0945 -0.0513
  146SAPE   H7R16082   0.837   2.499   9.901 -0.9417 -0.9869  1.3184
  146SAPE   H7S16083   0.694   2.526   9.812 -0.1931 -0.5009  3.5831
  146SAPE   C2816084   0.859   2.478   9.692 -0.3649  0.6297 -0.1653
  146SAPE   H8R16085   0.951   2.419   9.687 -0.0786  1.0640 -0.0864
  146SAPE   C2916086   0.823   2.540   9.581  0.2051 -0.6313 -0.5084
  146SAPE   H9R16087   0.893   2.547   9.497 -1.2907  0.8990 -1.7005
  146SAPE  C21016088   0.692   2.612   9.549 -0.5445 -0.1213  0.2744
  146SAPE  H10R16089   0.700   2.694   9.474  1.0779  0.7222  1.3150
  146SAPE  H10S16090   0.652   2.666   9.637  3.0373  0.6546  1.5925
  146SAPE  C21116091   0.586   2.513   9.498  0.6527  0.7244  0.1284
  146SAPE  H11R16092   0.529   2.469   9.581 -1.3790  0.8501 -1.1334
  146SAPE  C21216093   0.549   2.470   9.370 -0.6040 -0.9087  0.2849
  146SAPE  H12R16094   0.469   2.395   9.361 -1.6412  0.1999 -0.0433
  146SAPE  C21316095   0.614   2.514   9.236  0.2201 -0.6203 -0.3098
  146SAPE  H13R16096   0.720   2.481   9.239  0.8839  1.3671 -0.0289
  146SAPE  H13S16097   0.621   2.625   9.237 -0.9792 -0.5405 -0.2186
  146SAPE  C21416098   0.556   2.473   9.105  0.1090  0.6631  0.7330
  146SAPE  H14R16099   0.465   2.532   9.089  0.0890 -0.0036 -2.0563
  146SAPE  C21516100   0.591   2.371   9.027  0.0677  0.4179  0.1880
  146SAPE  H15R16101   0.541   2.359   8.930 -0.4327  0.0738  0.4850
  146SAPE  C21616102   0.698   2.274   9.065 -0.2149  0.1294  0.0670
  146SAPE  H16R16103   0.672   2.176   9.019  0.0647  0.4104 -0.7017
  146SAPE  H16S16104   0.690   2.261   9.175  0.5986 -0.1944  0.0983
  146SAPE  C21716105   0.840   2.316   9.012 -0.9857  0.2287 -0.4719
  146SAPE  H17R16106   0.921   2.249   9.048 -0.8400  0.3029 -0.6626
  146SAPE  H17S16107   0.871   2.420   9.035  1.6293 -0.2141 -1.6296
  146SAPE  C21816108   0.846   2.315   8.856  0.2387  0.7413 -0.4443
  146SAPE  H18R16109   0.784   2.397   8.815 -0.6315  0.4810  0.3220
  146SAPE  H18S16110   0.799   2.222   8.818  0.3890  0.5015 -0.0527
  146SAPE  C21916111   0.987   2.331   8.804 -0.6719  0.5453 -0.1301
  146SAPE  H19R16112   1.055   2.254   8.847 -0.4194  1.7475  1.7751
  146SAPE  H19S16113   1.029   2.425   8.845 -2.1062  1.8464 -1.5300
  146SAPE  C22016114   0.995   2.332   8.651  0.2522 -0.4541 -0.2075
  146SAPE  H20R16115   1.100   2.339   8.617 -0.3182  1.5449 -1.8301
  146SAPE  H20S16116   0.940   2.416   8.603  0.9087 -1.8093 -3.6136
  146SAPE  H20T16117   0.960   2.243   8.595  0.9113 -0.5545 -0.4674
  146SAPE   C3316118   0.593   1.368   9.899  0.0385  0.0112 -0.3243
  146SAPE   H3X16119   0.491   1.412   9.893  0.1546  0.5808  1.4032
  146SAPE   H3Y16120   0.591   1.275   9.960  0.6764 -1.0055 -1.8008
  146SAPE   C3416121   0.648   1.330   9.761  0.7174  0.8646  0.0320
  146SAPE   H4X16122   0.753   1.296   9.777  0.4091  0.3198  0.9649
  146SAPE   H4Y16123   0.655   1.421   9.699 -0.2986  0.5517 -0.5646
  146SAPE   C3516124   0.569   1.215   9.689 -0.2224  0.6038  0.1436
  146SAPE   H5X16125   0.561   1.138   9.769 -3.2506  0.7045  0.0288
  146SAPE   H5Y16126   0.628   1.173   9.604 -2.8115 -1.1216 -0.9372
  146SAPE   C3616127   0.423   1.245   9.653 -0.6917  0.0732  0.1053
  146SAPE   H6X16128   0.405   1.353   9.635  0.7507  0.2096 -0.7241
  146SAPE   H6Y16129   0.369   1.207   9.742  0.2921  0.1598  0.7615
  146SAPE   C3716130   0.384   1.163   9.528  0.5704 -0.3623 -0.1971
  146SAPE   H7X16131   0.277   1.180   9.504  0.8599  0.0045 -1.3059
  146SAPE   H7Y16132   0.398   1.056   9.551  0.1150 -0.7514 -1.6331
  146SAPE   C3816133   0.452   1.206   9.395  0.3303  0.3395  0.0519
  146SAPE   H8X16134   0.562   1.222   9.407  0.0743  0.9300  1.8693
  146SAPE   H8Y16135   0.415   1.308   9.370 -2.6762 -0.2244  1.7905
  146SAPE   C3916136   0.426   1.109   9.279  0.1111  0.9759 -0.0213
  146SAPE   H9X16137   0.322   1.114   9.240  0.8460 -1.0132 -2.4619
  146SAPE   H9Y16138   0.428   1.006   9.320 -0.0616  1.6436  1.7655
  146SAPE  C31016139   0.525   1.122   9.159 -0.6035 -0.2993  0.5060
  146SAPE  H10X16140   0.488   1.058   9.077  3.1016 -1.7673 -0.2186
  146SAPE  H10Y16141   0.616   1.073   9.201  0.5310  1.1035 -0.2074
  146SAPE  C31116142   0.528   1.269   9.121 -0.0693 -0.7819 -0.4317
  146SAPE  H11X16143   0.562   1.327   9.210 -1.6072  0.1765 -0.4412
  146SAPE  H11Y16144   0.425   1.299   9.094 -0.3879 -0.0032  1.4801
  146SAPE  C31216145   0.622   1.277   8.998  0.2617 -0.0534  0.2079
  146SAPE  H12X16146   0.656   1.176   8.966  2.3963  0.1093  1.7506
  146SAPE  H12Y16147   0.721   1.315   9.031 -0.3033 -0.6228  2.8058
  146SAPE  C31316148   0.568   1.365   8.883  0.0298 -0.5965 -0.2348
  146SAPE  H13X16149   0.544   1.464   8.926 -2.6405 -1.6370  0.8896
  146SAPE  H13Y16150   0.466   1.325   8.862 -0.5916  0.3335  0.9053
  146SAPE  C31416151   0.648   1.396   8.754  0.2976 -0.0174  1.1195
  146SAPE  H14X16152   0.643   1.301   8.696  1.5680 -1.7382  3.6585
  146SAPE  H14Y16153   0.752   1.427   8.776  0.9518  0.3971 -2.0032
  146SAPE  C31516154   0.580   1.507   8.665 -0.2909 -0.1751 -0.4082
  146SAPE  H15X16155   0.642   1.507   8.573 -0.8466 -1.1897 -0.8068
  146SAPE  H15Y16156   0.597   1.611   8.700 -0.8021  0.2399 -1.3533
  146SAPE  C31616157   0.435   1.482   8.628  0.3904  0.7719 -0.4561
  146SAPE  H16X16158   0.366   1.488   8.714 -0.7033  0.2030 -1.2603
  146SAPE  H16Y16159   0.429   1.375   8.596  0.8323  0.6040  0.0200
  146SAPE  C31716160   0.365   1.564   8.523 -0.2576  0.9323  0.5991
  146SAPE  H17X16161   0.427   1.577   8.432  1.1134 -0.8006  1.2324
  146SAPE  H17Y16162   0.327   1.660   8.564 -1.3699  1.0155 -0.5207
  146SAPE  C31816163   0.231   1.491   8.489  0.6920  0.0644 -0.0540
  146SAPE  H18X16164   0.246   1.388   8.451 -0.3352 -0.7049  1.5177
  146SAPE  H18Y16165   0.175   1.549   8.412  1.0223  1.7626  0.9371
  146SAPE  H18Z16166   0.175   1.469   8.582  0.2907  1.0812 -0.0398
  147SAPE     N16167   4.540   4.260  10.810  0.3428 -0.0562  0.3273
  147SAPE   HN116168   4.623   4.215  10.767 -0.8430  0.3167 -2.6133
  147SAPE   HN216169   4.490   4.185  10.861  1.2754 -1.3895 -0.6731
  147SAPE   HN316170   4.487   4.296  10.728 -1.5050  0.1759  1.5500
  147SAPE   C1216171   4.580   4.374  10.896 -0.7692  0.0625  0.4522
  147SAPE  H12A16172   4.641   4.434  10.827 -1.1962 -0.7906 -0.7062
  147SAPE  H12B16173   4.644   4.355  10.985  0.8921  1.5765 -0.3826
  147SAPE   C1116174   4.461   4.468  10.933 -0.4211  0.4980 -0.2514
  147SAPE  H11A16175   4.509   4.549  10.991  1.5965 -0.8505  0.0604
  147SAPE  H11B16176   4.393   4.407  10.996 -0.0663 -0.1099 -0.4492
  147SAPE     P16177   4.251   4.570  10.812  0.0776 -0.0117  0.0468
  147SAPE   O1316178   4.175   4.538  10.938 -0.5441 -0.1041  0.0787
  147SAPE   O1416179   4.262   4.713  10.765 -0.6232  0.4598 -0.4230
  147SAPE   O1216180   4.400   4.518  10.816  0.1489 -0.2741 -0.3019
  147SAPE   O1116181   4.199   4.487  10.696 -0.5260 -0.8285 -0.2214
  147SAPE    C116182   4.070   4.513  10.640  0.1203  0.4542  0.1585
  147SAPE    HA16183   3.998   4.433  10.665  0.6483 -1.3066 -3.2965
  147SAPE    HB16184   4.028   4.610  10.672 -1.9852 -1.5760  4.4496
  147SAPE    C216185   4.069   4.492  10.479 -0.8011 -0.4690 -0.1847
  147SAPE    HS16186   4.136   4.404  10.474 -0.3849 -0.1016 -1.5804
  147SAPE   O2116187   4.131   4.606  10.412  0.6865  0.3327 -0.2996
  147SAPE   C2116188   4.258   4.601  10.384  0.3343  0.2103  0.2088
  147SAPE   O2216189   4.342   4.529  10.434  0.2055  0.3174  0.1711
  147SAPE   C2216190   4.273   4.705  10.279  0.4454 -0.9181  0.2901
  147SAPE   H2R16191   4.179   4.727  10.224  2.6185  1.9322 -2.7234
  147SAPE   H2S16192   4.296   4.799  10.333  1.8869 -0.8459 -0.3937
  147SAPE    C316193   3.933   4.456  10.423 -1.1003  0.0296  0.4562
  147SAPE    HX16194   3.853   4.531  10.438 -0.3275  1.5396 -2.3040
  147SAPE    HY16195   3.895   4.357  10.456 -0.0453 -0.9405 -1.0779
  147SAPE   O3116196   3.946   4.446  10.278  0.4675 -0.2539  1.0276
  147SAPE   C3116197   3.979   4.325  10.228 -0.0766  0.0708 -0.3948
  147SAPE   O3216198   4.001   4.226  10.299 -0.3238  0.2068 -0.1287
  147SAPE   C3216199   3.967   4.323  10.078 -0.2496  0.7160  0.0525
  147SAPE   H2X16200   4.034   4.392  10.024  0.4561 -2.0503 -2.9504
  147SAPE   H2Y16201   3.862   4.349  10.053  0.0413  0.7533 -1.1803
  147SAPE   C2316202   4.385   4.690  10.170 -0.0425 -0.0503  0.5716
  147SAPE   H3R16203   4.485   4.696  10.217  0.8290 -0.6066 -1.1345
  147SAPE   H3S16204   4.374   4.775  10.099 -2.4146  0.5487  1.5454
  147SAPE   C2416205   4.376   4.561  10.079 -0.9881 -0.2140  0.5604
  147SAPE   H4R16206   4.354   4.473  10.143 -4.1505 -0.5971 -0.8643
  147SAPE   H4S16207   4.474   4.535  10.032 -1.7324  1.3704 -2.0959
  147SAPE   C2516208   4.264   4.556   9.979  0.5485 -0.4733 -0.6109
  147SAPE   H5R16209   4.163   4.534  10.016  0.2040  0.4810 -0.9435
  147SAPE   C2616210   4.280   4.573   9.846 -0.5996 -0.2558 -0.4587
  147SAPE   H6R16211   4.193   4.569   9.779  0.3224  0.6952 -1.7586
  147SAPE   C2716212   4.406   4.619   9.782 -0.3369 -0.5886 -0.3607
  147SAPE   H7R16213   4.480   4.536   9.789 -1.6802 -1.7500  0.7494
  147SAPE   H7S16214   4.447   4.700   9.846 -0.3540 -1.0367  0.2207
  147SAPE   C2816215   4.388   4.687   9.651  0.0608 -0.8564  0.6429
  147SAPE   H8R16216   4.398   4.796   9.651  1.4509 -0.9541 -0.6841
  147SAPE   C2916217   4.351   4.622   9.535 -0.0672  0.2349  0.2247
  147SAPE   H9R16218   4.347   4.686   9.446 -1.6748  0.3566  0.3443
  147SAPE  C21016219   4.333   4.473   9.529 -0.0110 -0.8616 -0.2926
  147SAPE  H10R16220   4.320   4.419   9.625 -1.7105 -0.7349 -0.4318
  147SAPE  H10S16221   4.427   4.425   9.493 -0.0573 -0.5014 -0.9201
  147SAPE  C21116222   4.221   4.435   9.438  0.1120 -0.7609 -0.2413
  147SAPE  H11R16223   4.133   4.398   9.492 -1.2143 -0.2960 -2.0270
  147SAPE  C21216224   4.222   4.443   9.300  0.1895 -0.4994 -0.0893
  147SAPE  H12R16225   4.136   4.394   9.251  0.8821 -1.3323 -0.5098
  147SAPE  C21316226   4.333   4.491   9.207  0.0231  0.3274 -0.0515
  147SAPE  H13R16227   4.398   4.404   9.184 -0.1455  0.1324  0.1945
  147SAPE  H13S16228   4.397   4.563   9.262  0.0369 -1.5207  2.5489
  147SAPE  C21416229   4.288   4.540   9.070  0.8743  0.5887 -0.2146
  147SAPE  H14R16230   4.287   4.650   9.069  0.5338  0.6451  1.9830
  147SAPE  C21516231   4.251   4.491   8.953  0.0177 -0.0744  0.2832
  147SAPE  H15R16232   4.214   4.561   8.877  0.1196 -0.5599 -0.2212
  147SAPE  C21616233   4.262   4.345   8.909 -0.0170  0.0188  0.4630
  147SAPE  H16R16234   4.170   4.292   8.941 -0.2786  1.4709  2.3008
  147SAPE  H16S16235   4.348   4.307   8.969 -0.4985 -1.9593 -0.0206
  147SAPE  C21716236   4.294   4.341   8.757  0.5775 -0.7993  0.1236
  147SAPE  H17R16237   4.372   4.415   8.733 -1.2502  1.6766  1.3644
  147SAPE  H17S16238   4.199   4.370   8.706  1.3380  0.6178 -0.5202
  147SAPE  C21816239   4.341   4.200   8.714 -0.0616 -0.8372 -0.2503
  147SAPE  H18R16240   4.255   4.132   8.724  0.8399 -1.7342  2.1940
  147SAPE  H18S16241   4.420   4.167   8.785  2.1081  2.2676 -0.9861
  147SAPE  C21916242   4.398   4.204   8.573 -0.2628 -0.1413  0.5324
  147SAPE  H19R16243   4.321   4.251   8.508 -0.2723 -0.4706  0.3019
  147SAPE  H19S16244   4.414   4.100   8.539 -0.9579 -0.1273  0.1494
  147SAPE  C22016245   4.528   4.287   8.548  0.1080  0.1944 -0.2242
  147SAPE  H20R16246   4.588   4.251   8.462  0.3107 -0.0208  0.0039
  147SAPE  H20S16247   4.602   4.277   8.630  0.3394  2.3982 -0.1263
  147SAPE  H20T16248   4.523   4.397   8.537  0.4456  0.3063  0.6479
  147SAPE   C3316249   3.993   4.175  10.026  0.2152  0.0810 -0.3563
  147SAPE   H3X16250   3.911   4.109  10.063 -0.1673  1.3034  1.0585
  147SAPE   H3Y16251   4.077   4.131  10.084 -1.3199  2.0402  3.8250
  147SAPE   C3416252   4.026   4.166   9.877 -0.2156 -0.5963  0.0291
  147SAPE   H4X16253   4.045   4.057   9.867  0.4436 -0.5515  0.7254
  147SAPE   H4Y16254   4.113   4.232   9.859 -2.4110  2.4044 -0.3200
  147SAPE   C3516255   3.913   4.209   9.783  0.2608 -0.6913 -0.3949
  147SAPE   H5X16256   3.889   4.317   9.796  1.4621 -0.2437 -1.5264
  147SAPE   H5Y16257   3.824   4.148   9.806 -1.7589  2.3565  0.3657
  147SAPE   C3616258   3.945   4.198   9.632  0.6063 -0.6108 -0.0346
  147SAPE   H6X16259   3.938   4.093   9.594  0.1146 -0.3520 -0.6769
  147SAPE   H6Y16260   4.047   4.229   9.601 -0.6267  1.9167 -1.8375
  147SAPE   C3716261   3.831   4.278   9.561 -0.6023  0.5059  0.4877
  147SAPE   H7X16262   3.843   4.387   9.579  3.4922  0.6120 -1.5432
  147SAPE   H7Y16263   3.735   4.256   9.612  1.0158 -0.3616  3.4107
  147SAPE   C3816264   3.837   4.249   9.410  0.1148 -0.0704 -0.1301
  147SAPE   H8X16265   3.852   4.142   9.384  0.3679  0.2730 -1.4700
  147SAPE   H8Y16266   3.922   4.302   9.362  1.0538 -1.3238  0.0815
  147SAPE   C3916267   3.708   4.298   9.345  0.3707 -0.1678 -0.0111
  147SAPE   H9X16268   3.692   4.405   9.373 -2.6091  0.1920 -2.5691
  147SAPE   H9Y16269   3.622   4.246   9.392 -1.6599  1.3479 -1.7982
  147SAPE  C31016270   3.714   4.290   9.188 -0.1675 -0.4573 -0.0709
  147SAPE  H10X16271   3.613   4.304   9.145 -0.0422  1.2825  0.1665
  147SAPE  H10Y16272   3.762   4.192   9.165  0.8841 -0.4366  1.7998
  147SAPE  C31116273   3.819   4.397   9.143 -0.5025  0.3888 -0.0679
  147SAPE  H11X16274   3.880   4.431   9.230  2.1009 -1.5124 -1.0204
  147SAPE  H11Y16275   3.758   4.485   9.112 -2.2092 -0.4887  0.7060
  147SAPE  C31216276   3.904   4.363   9.018 -0.0085 -0.6490 -0.3408
  147SAPE  H12X16277   3.960   4.269   9.038 -2.3567 -1.9550  0.6140
  147SAPE  H12Y16278   3.977   4.446   9.012 -1.5748  1.2328  3.1613
  147SAPE  C31316279   3.817   4.359   8.891  0.0842  0.0303 -0.0832
  147SAPE  H13X16280   3.760   4.455   8.887 -0.0445 -0.0073  0.6487
  147SAPE  H13Y16281   3.745   4.275   8.904 -0.2566  0.3794  0.3350
  147SAPE  C31416282   3.878   4.330   8.760 -0.2573 -0.7262 -0.2577
  147SAPE  H14X16283   3.939   4.238   8.775  0.3870 -0.0759  1.4290
  147SAPE  H14Y16284   3.950   4.406   8.725  0.0972  0.2385  2.3007
  147SAPE  C31516285   3.792   4.291   8.637  0.4976  0.0598 -0.4163
  147SAPE  H15X16286   3.708   4.362   8.617  0.8801  0.9394  0.9202
  147SAPE  H15Y16287   3.737   4.202   8.675  1.0275 -0.3352 -0.5709
  147SAPE  C31616288   3.865   4.262   8.516  0.1231 -0.7129 -0.2319
  147SAPE  H16X16289   3.959   4.208   8.537  0.2008 -0.5478 -0.1509
  147SAPE  H16Y16290   3.886   4.355   8.458  3.0373 -0.6361  0.8157
  147SAPE  C31716291   3.790   4.173   8.413  0.3457 -0.7923  0.1458
  147SAPE  H17X16292   3.731   4.103   8.476  1.5523 -2.8836 -0.9606
  147SAPE  H17Y16293   3.851   4.098   8.359  0.5802 -0.6236  0.1733
  147SAPE  C31816294   3.717   4.250   8.304  0.2835  0.1409  0.0938
  147SAPE  H18X16295   3.782   4.312   8.239  0.1203  0.9261  0.6664
  147SAPE  H18Y16296   3.637   4.315   8.347  1.0665  1.0114  0.2619
  147SAPE  H18Z16297   3.672   4.166   8.246 -0.2988  1.2671 -1.1378
  148SAPE     N16298   3.941   6.379  11.063 -1.0067  0.3153 -0.2753
  148SAPE   HN116299   3.983   6.321  10.988 -0.7468  0.2185 -0.0544
  148SAPE   HN216300   4.018   6.418  11.121  2.1155 -2.5632 -2.1307
  148SAPE   HN316301   3.893   6.317  11.131 -3.3284 -1.0483 -2.9737
  148SAPE   C1216302   3.867   6.497  11.005  0.0491  0.4587  0.4495
  148SAPE  H12A16303   3.932   6.567  10.950 -0.7894 -0.1471 -1.3850
  148SAPE  H12B16304   3.814   6.543  11.092  0.8755  1.2981  0.5248
  148SAPE   C1116305   3.762   6.448  10.896  0.3263  0.3655 -0.0911
  148SAPE  H11A16306   3.691   6.528  10.868  2.7998  2.6486 -0.2051
  148SAPE  H11B16307   3.707   6.363  10.943  2.7248 -1.7281 -0.8402
  148SAPE     P16308   3.836   6.450  10.639  0.3226 -0.5716  0.1530
  148SAPE   O1316309   3.935   6.562  10.651  0.7691  0.5979 -0.8418
  148SAPE   O1416310   3.874   6.332  10.557 -0.0601 -1.1071 -0.5061
  148SAPE   O1216311   3.820   6.384  10.783 -0.2109 -0.1057  0.3655
  148SAPE   O1116312   3.682   6.501  10.611 -0.2129  0.4596 -0.0073
  148SAPE    C116313   3.661   6.612  10.536 -0.4545 -0.4547  0.5166
  148SAPE    HA16314   3.582   6.679  10.578 -0.4256  1.8826 -2.8090
  148SAPE    HB16315   3.750   6.672  10.509 -0.6104 -0.9425 -1.1693
  148SAPE    C216316   3.614   6.590  10.393  0.4633  0.3546  0.1857
  148SAPE    HS16317   3.511   6.551  10.411  1.2787 -0.8359  2.6503
  148SAPE   O2116318   3.705   6.501  10.331  0.0969 -0.7211  0.2037
  148SAPE   C2116319   3.669   6.379  10.336 -0.0304 -0.1250 -0.2340
  148SAPE   O2216320   3.570   6.338  10.400  0.3330 -0.2441  0.2231
  148SAPE   C2216321   3.770   6.292  10.255  0.1244 -0.1938 -0.6017
  148SAPE   H2R16322   3.868   6.342  10.271 -0.0278 -0.3919  1.1631
  148SAPE   H2S16323   3.775   6.190  10.299  3.7859 -0.2469 -0.8890
  148SAPE    C316324   3.603   6.723  10.315 -1.1217 -0.5094  0.3944
  148SAPE    HX16325   3.705   6.765  10.308 -1.7460  1.3148  1.5967
  148SAPE    HY16326   3.546   6.790  10.383 -0.5286  0.5320 -0.1129
  148SAPE   O3116327   3.552   6.710  10.175  0.2210 -0.2596 -0.0547
  148SAPE   C3116328   3.425   6.708  10.151  0.2362 -0.0810 -0.3745
  148SAPE   O3216329   3.340   6.672  10.229  0.0287  0.0599 -0.7849
  148SAPE   C3216330   3.393   6.740  10.000 -0.0566 -0.7661 -0.5651
  148SAPE   H2X16331   3.403   6.653   9.931  0.2185  0.2757 -1.8831
  148SAPE   H2Y16332   3.472   6.811   9.966  0.9209 -1.2349  0.6442
  148SAPE   C2316333   3.737   6.270  10.113  0.1648  0.0492 -0.0737
  148SAPE   H3R16334   3.698   6.365  10.071 -1.5915 -0.9822 -0.9452
  148SAPE   H3S16335   3.661   6.190  10.097 -1.4605  1.4287  0.4463
  148SAPE   C2416336   3.867   6.234  10.037  0.6019  0.2961 -0.1633
  148SAPE   H4R16337   3.943   6.311  10.063  3.6747 -2.0078 -1.6225
  148SAPE   H4S16338   3.839   6.247   9.930  0.7500 -1.5449 -0.4695
  148SAPE   C2516339   3.908   6.092  10.088 -0.9806  0.3317  0.9541
  148SAPE   H5R16340   3.915   6.084  10.198  1.5641  0.2391  0.8614
  148SAPE   C2616341   3.937   5.983  10.011  0.3802  0.7753  0.1928
  148SAPE   H6R16342   3.971   5.898  10.071 -0.2009  0.5145  0.1601
  148SAPE   C2716343   3.935   5.956   9.858  0.4476 -0.2572 -0.1857
  148SAPE   H7R16344   3.873   6.044   9.832  2.2889  1.0687 -0.2188
  148SAPE   H7S16345   3.879   5.862   9.836  0.2212  0.2414 -1.8729
  148SAPE   C2816346   4.074   5.952   9.798  0.0969  0.0623  0.7734
  148SAPE   H8R16347   4.158   5.958   9.869 -0.0452 -1.0540  1.0657
  148SAPE   C2916348   4.103   5.945   9.667  1.2918  0.3774 -0.3425
  148SAPE   H9R16349   4.206   5.945   9.627  0.7109  2.4524 -2.0462
  148SAPE  C21016350   3.994   5.944   9.565 -0.4306  0.2055  0.0827
  148SAPE  H10R16351   3.947   6.045   9.560 -0.2403  0.2904  0.0171
  148SAPE  H10S16352   3.926   5.861   9.594 -2.3353  2.9756  4.6701
  148SAPE  C21116353   4.049   5.898   9.429  0.1814 -0.3256  0.8608
  148SAPE  H11R16354   4.102   5.802   9.423 -1.1295 -1.0662  0.6934
  148SAPE  C21216355   4.048   5.984   9.321  0.3163  0.2068 -0.0974
  148SAPE  H12R16356   4.089   5.954   9.223  0.2856 -0.7934  0.1865
  148SAPE  C21316357   3.990   6.122   9.321 -0.1251  0.3643  0.1467
  148SAPE  H13R16358   4.047   6.167   9.238  0.8041 -0.7019  0.1747
  148SAPE  H13S16359   4.019   6.186   9.407  0.9959  1.5980 -1.1101
  148SAPE  C21416360   3.845   6.137   9.274 -1.0283  0.6384 -0.5611
  148SAPE  H14R16361   3.771   6.161   9.353 -0.8429 -2.8373  0.8639
  148SAPE  C21516362   3.803   6.129   9.148 -0.4869 -0.1948 -0.1671
  148SAPE  H15R16363   3.695   6.146   9.134 -0.6134 -1.0607 -0.3115
  148SAPE  C21616364   3.872   6.102   9.022 -0.0599 -0.3167  0.0797
  148SAPE  H16R16365   3.981   6.081   9.028 -0.2462 -1.6471 -0.7816
  148SAPE  H16S16366   3.869   6.203   8.978 -0.6046  0.4859  1.8465
  148SAPE  C21716367   3.801   5.998   8.925 -1.0523 -1.0453  0.9956
  148SAPE  H17R16368   3.728   6.056   8.865  0.8600  0.2313 -0.2165
  148SAPE  H17S16369   3.758   5.917   8.988 -0.8734  0.2286  2.8562
  148SAPE  C21816370   3.906   5.935   8.823  1.0191  0.8597  0.3654
  148SAPE  H18R16371   3.985   5.882   8.880  1.0045  0.7288  0.2636
  148SAPE  H18S16372   3.955   6.016   8.764  2.7481 -0.8153 -0.6398
  148SAPE  C21916373   3.838   5.831   8.722  0.0965 -0.6822  0.1082
  148SAPE  H19R16374   3.771   5.896   8.662  2.2173  2.6118  1.0451
  148SAPE  H19S16375   3.775   5.757   8.777  1.3609 -2.4351 -0.6976
  148SAPE  C22016376   3.939   5.752   8.627 -0.1890 -0.5064 -0.4349
  148SAPE  H20R16377   3.875   5.677   8.576 -1.7404  0.0198  0.6553
  148SAPE  H20S16378   4.015   5.701   8.690  1.3421  4.1740  2.0533
  148SAPE  H20T16379   3.994   5.820   8.559  0.7129  1.4971  2.1162
  148SAPE   C3316380   3.253   6.800   9.971 -0.1142 -0.3359 -0.0811
  148SAPE   H3X16381   3.239   6.894  10.030 -1.2057  0.2654 -1.2328
  148SAPE   H3Y16382   3.175   6.726  10.000 -0.9582  0.2946 -0.6542
  148SAPE   C3416383   3.231   6.855   9.831  0.3831 -0.1324 -0.0488
  148SAPE   H4X16384   3.306   6.935   9.812  1.6922 -1.4729 -0.6569
  148SAPE   H4Y16385   3.129   6.900   9.825  0.2422 -0.4965 -0.4099
  148SAPE   C3516386   3.246   6.755   9.711 -0.0344 -0.5844 -0.1563
  148SAPE   H5X16387   3.190   6.661   9.733 -0.0017 -0.3677  0.8990
  148SAPE   H5Y16388   3.352   6.724   9.709 -0.2023 -1.3084  1.0541
  148SAPE   C3616389   3.193   6.805   9.574 -0.6371 -0.8834 -1.3220
  148SAPE   H6X16390   3.223   6.908   9.546  0.3617 -0.7174  0.2613
  148SAPE   H6Y16391   3.086   6.825   9.593 -0.1251  1.5496 -0.7468
  148SAPE   C3716392   3.221   6.700   9.467 -0.3353  0.3894 -0.5044
  148SAPE   H7X16393   3.165   6.605   9.475 -1.9357  1.2499 -0.9827
  148SAPE   H7Y16394   3.331   6.704   9.449  0.6050 -0.5502  3.9977
  148SAPE   C3816395   3.158   6.753   9.337  0.0361 -0.6496 -0.3377
  148SAPE   H8X16396   3.199   6.854   9.315  0.1415 -0.2255  1.5880
  148SAPE   H8Y16397   3.050   6.766   9.362  0.3399 -0.3134  0.8866
  148SAPE   C3916398   3.177   6.650   9.228  0.0449  0.7039 -0.3792
  148SAPE   H9X16399   3.102   6.568   9.240  1.0319 -0.0078  1.2787
  148SAPE   H9Y16400   3.278   6.604   9.235 -0.1379  0.4075  0.3661
  148SAPE  C31016401   3.155   6.716   9.092 -0.1579  0.3780  0.0082
  148SAPE  H10X16402   3.225   6.802   9.100  0.0334  0.1761  0.5932
  148SAPE  H10Y16403   3.055   6.763   9.086  1.3213  3.8283  0.1810
  148SAPE  C31116404   3.179   6.625   8.973 -0.1011  0.0880  0.3027
  148SAPE  H11X16405   3.092   6.557   8.963  0.4638 -0.5507 -0.4430
  148SAPE  H11Y16406   3.273   6.566   8.969  1.1568  1.9872  0.7757
  148SAPE  C31216407   3.193   6.706   8.841 -0.1292  0.1228  0.7590
  148SAPE  H12X16408   3.264   6.790   8.858  0.8689 -0.5441 -0.0149
  148SAPE  H12Y16409   3.098   6.750   8.805 -1.3078 -3.2660 -0.6881
  148SAPE  C31316410   3.233   6.617   8.724  0.6368  0.6240  0.0098
  148SAPE  H13X16411   3.339   6.584   8.722  0.0494 -1.3440 -0.4836
  148SAPE  H13Y16412   3.220   6.686   8.638 -2.7992  1.2010  0.8372
  148SAPE  C31416413   3.141   6.495   8.719 -0.2613 -0.9165  0.9327
  148SAPE  H14X16414   3.037   6.533   8.711  1.8770  5.9007 -1.5683
  148SAPE  H14Y16415   3.146   6.426   8.806  1.0837  1.1288  2.5810
  148SAPE  C31516416   3.156   6.420   8.580 -0.7664  0.1033  0.7829
  148SAPE  H15X16417   3.261   6.408   8.548 -0.4953  1.5745  1.0763
  148SAPE  H15Y16418   3.108   6.477   8.498  0.4514 -0.8275 -0.6238
  148SAPE  C31616419   3.104   6.273   8.593  0.4360 -0.2481  0.6819
  148SAPE  H16X16420   2.999   6.256   8.622 -0.6353  0.1185 -2.5282
  148SAPE  H16Y16421   3.166   6.220   8.668 -0.1262  1.0864  2.1295
  148SAPE  C31716422   3.121   6.190   8.456  0.3926  0.1032  0.1518
  148SAPE  H17X16423   3.092   6.087   8.485 -0.3441  0.0460 -0.7319
  148SAPE  H17Y16424   3.228   6.203   8.430  0.6298  0.9768  1.4919
  148SAPE  C31816425   3.019   6.235   8.348 -0.3836  0.2249  0.5095
  148SAPE  H18X16426   3.043   6.335   8.306  2.5791 -1.1765 -1.4540
  148SAPE  H18Y16427   2.912   6.233   8.378 -0.3348  0.7063  0.7353
  148SAPE  H18Z16428   3.036   6.168   8.261 -1.3985 -1.8261  1.8176
  149SAPE     N16429   6.752   2.532  10.885  1.2650 -0.7211  0.0992
  149SAPE   HN116430   6.838   2.579  10.851  0.0512  1.9714  0.4938
  149SAPE   HN216431   6.764   2.429  10.887 -0.1615 -1.0029 -2.1021
  149SAPE   HN316432   6.670   2.552  10.824  1.2723  0.6075  0.4793
  149SAPE   C1216433   6.718   2.568  11.030 -0.3305  0.2651 -0.0708
  149SAPE  H12A16434   6.802   2.538  11.097 -0.5295  2.5836  1.3217
  149SAPE  H12B16435   6.631   2.507  11.063  2.2012 -3.7949 -0.2020
  149SAPE   C1116436   6.697   2.709  11.055 -0.1384 -0.5010 -0.1350
  149SAPE  H11A16437   6.764   2.775  10.996 -0.3095 -0.7132 -0.5711
  149SAPE  H11B16438   6.710   2.732  11.163  3.0541 -1.2762 -0.2543
  149SAPE     P16439   6.460   2.833  11.064 -0.0472 -0.2714 -0.0055
  149SAPE   O1316440   6.450   2.821  11.208 -0.2289  0.1678  0.2817
  149SAPE   O1416441   6.482   2.968  11.006  0.4071 -1.0349  0.2948
  149SAPE   O1216442   6.573   2.745  10.996 -0.1610 -0.3845  0.4447
  149SAPE   O1116443   6.322   2.775  10.992 -0.1161  0.3636 -0.3949
  149SAPE    C116444   6.278   2.645  11.025  1.0063 -0.1226 -0.4608
  149SAPE    HA16445   6.304   2.627  11.131 -2.1270  3.5115  1.1580
  149SAPE    HB16446   6.167   2.653  11.019  1.0018 -0.9980 -2.7097
  149SAPE    C216447   6.331   2.537  10.925 -0.2162  0.3499  0.3484
  149SAPE    HS16448   6.439   2.536  10.949  1.2934 -0.4381 -5.1618
  149SAPE   O2116449   6.310   2.592  10.791  0.1873  0.3028 -0.2712
  149SAPE   C2116450   6.415   2.583  10.715  0.0927 -0.4475  0.6716
  149SAPE   O2216451   6.525   2.539  10.747  0.5656  0.2487  0.1951
  149SAPE   C2216452   6.379   2.653  10.579  0.2574 -0.9662 -0.1970
  149SAPE   H2R16453   6.358   2.760  10.603 -0.5690 -1.1583 -0.0657
  149SAPE   H2S16454   6.475   2.655  10.523  0.8504 -1.2473  0.7713
  149SAPE    C316455   6.270   2.396  10.940 -0.1506 -0.3505 -0.5491
  149SAPE    HX16456   6.161   2.410  10.923 -0.2082  1.6845  1.1334
  149SAPE    HY16457   6.290   2.365  11.044 -0.9521 -0.8560 -0.5407
  149SAPE   O3116458   6.310   2.292  10.852 -0.1769  0.3516  1.0638
  149SAPE   C3116459   6.438   2.255  10.851  0.5530 -0.3691 -0.3512
  149SAPE   O3216460   6.513   2.289  10.941 -0.2058 -0.3393 -0.0182
  149SAPE   C3216461   6.471   2.162  10.731 -0.1173 -0.2535 -0.1337
  149SAPE   H2X16462   6.581   2.158  10.716 -0.2363  1.3611 -1.8069
  149SAPE   H2Y16463   6.423   2.214  10.645  0.3520  3.4827  1.7040
  149SAPE   C2316464   6.256   2.585  10.504  0.3618 -0.3648  0.6830
  149SAPE   H3R16465   6.172   2.578  10.576 -2.2777 -1.9421 -2.3228
  149SAPE   H3S16466   6.282   2.481  10.475  1.0018  0.2157 -0.9122
  149SAPE   C2416467   6.207   2.664  10.380 -0.0357 -0.0228 -0.1930
  149SAPE   H4R16468   6.166   2.754  10.430 -1.6916 -0.2685 -1.0498
  149SAPE   H4S16469   6.125   2.608  10.330  0.4697  0.3260 -1.4654
  149SAPE   C2516470   6.319   2.717  10.290 -0.3772  0.6435 -0.3294
  149SAPE   H5R16471   6.368   2.806  10.332  0.5017 -0.5467  1.2557
  149SAPE   C2616472   6.360   2.665  10.173 -0.0196  0.8351  0.2983
  149SAPE   H6R16473   6.432   2.732  10.124  2.1369 -0.2272  1.8308
  149SAPE   C2716474   6.313   2.542  10.099  0.0123  0.1793  0.1747
  149SAPE   H7R16475   6.226   2.572  10.037 -0.2074 -1.6255 -0.4649
  149SAPE   H7S16476   6.267   2.474  10.174  1.7475  1.3784  2.4254
  149SAPE   C2816477   6.414   2.460  10.016  0.1133  0.4470  0.2274
  149SAPE   H8R16478   6.512   2.453  10.064  0.6995 -2.1544 -1.1416
  149SAPE   C2916479   6.398   2.400   9.895 -0.0134 -0.2978 -0.1791
  149SAPE   H9R16480   6.479   2.338   9.852 -0.5640 -2.5115  1.7443
  149SAPE  C21016481   6.273   2.409   9.814 -0.6474  0.8667  0.7477
  149SAPE  H10R16482   6.182   2.402   9.878 -0.7598 -3.4715  0.4596
  149SAPE  H10S16483   6.271   2.325   9.740  2.4137 -0.8370  2.3698
  149SAPE  C21116484   6.269   2.542   9.753  0.4095 -0.5801  0.3867
  149SAPE  H11R16485   6.314   2.625   9.810  0.7503  0.4593 -1.3239
  149SAPE  C21216486   6.214   2.577   9.638 -1.0006  0.1296 -0.7589
  149SAPE  H12R16487   6.219   2.683   9.608 -1.4819 -0.2093 -2.0884
  149SAPE  C21316488   6.148   2.478   9.541 -0.0149  0.3362  0.1170
  149SAPE  H13R16489   6.072   2.412   9.588 -1.6738  1.1036 -1.3823
  149SAPE  H13S16490   6.234   2.410   9.520  0.9805  1.4830  0.3412
  149SAPE  C21416491   6.084   2.528   9.416  0.2908  0.4626 -0.1281
  149SAPE  H14R16492   5.977   2.507   9.407 -0.1708  1.6484  1.9199
  149SAPE  C21516493   6.131   2.609   9.315  0.0127  0.4908  0.3720
  149SAPE  H15R16494   6.061   2.620   9.231  0.7107 -1.7018 -0.5554
  149SAPE  C21616495   6.266   2.664   9.296 -0.2661 -0.0209 -0.6233
  149SAPE  H16R16496   6.327   2.646   9.387 -0.4591  1.2697 -0.2237
  149SAPE  H16S16497   6.272   2.773   9.275 -1.7250  0.6266  1.9193
  149SAPE  C21716498   6.332   2.589   9.175 -0.0222 -0.1875 -0.4423
  149SAPE  H17R16499   6.281   2.619   9.081  2.0754 -2.3953 -2.4237
  149SAPE  H17S16500   6.324   2.479   9.191 -1.5692  0.0636  0.7291
  149SAPE  C21816501   6.478   2.626   9.152 -0.2415 -0.0189 -0.6542
  149SAPE  H18R16502   6.547   2.596   9.234  0.1306 -0.1229 -1.0009
  149SAPE  H18S16503   6.493   2.736   9.164  1.2649 -0.4735  3.0292
  149SAPE  C21916504   6.531   2.601   9.015 -0.4484  0.5943 -0.3080
  149SAPE  H19R16505   6.629   2.651   8.997  0.4013 -0.8393  0.1808
  149SAPE  H19S16506   6.460   2.637   8.937 -1.5755  3.1193  1.7575
  149SAPE  C22016507   6.537   2.447   8.996  0.0206 -0.0185  0.7350
  149SAPE  H20R16508   6.443   2.392   8.975 -0.0474  0.6074 -0.6793
  149SAPE  H20S16509   6.593   2.405   9.083  3.2927  3.1951  0.4471
  149SAPE  H20T16510   6.602   2.433   8.907  2.4438  3.1073  1.8076
  149SAPE   C3316511   6.409   2.019  10.736  0.4039  0.1167 -0.3090
  149SAPE   H3X16512   6.300   2.034  10.751  0.3618 -0.3915 -0.1138
  149SAPE   H3Y16513   6.443   1.962  10.825  1.6522 -0.2516 -0.9952
  149SAPE   C3416514   6.447   1.941  10.609 -0.8527  0.4997  0.3224
  149SAPE   H4X16515   6.400   1.841  10.621  0.1173  0.0366  0.3663
  149SAPE   H4Y16516   6.557   1.927  10.606 -1.0697 -1.4062 -0.0421
  149SAPE   C3516517   6.401   2.011  10.478 -0.4742  0.1785  0.2426
  149SAPE   H5X16518   6.436   1.942  10.397  1.7800 -1.1381  2.1865
  149SAPE   H5Y16519   6.466   2.100  10.472 -0.2542 -0.0493 -1.1074
  149SAPE   C3616520   6.254   2.067  10.454 -0.0636 -0.2932 -0.1766
  149SAPE   H6X16521   6.249   2.143  10.534  2.3697  2.4130 -2.3810
  149SAPE   H6Y16522   6.179   1.987  10.477 -0.4316  0.8717  3.1249
  149SAPE   C3716523   6.245   2.115  10.309  0.4072  0.0202  0.0228
  149SAPE   H7X16524   6.340   2.168  10.286  0.2619  1.3738  2.2394
  149SAPE   H7Y16525   6.166   2.193  10.309 -1.5025 -1.8024 -1.5179
  149SAPE   C3816526   6.210   2.010  10.199 -0.1591  0.1483 -0.5452
  149SAPE   H8X16527   6.122   1.948  10.229  0.3396  0.7471  2.5542
  149SAPE   H8Y16528   6.294   1.939  10.187  0.7327  1.1087 -0.1830
  149SAPE   C3916529   6.201   2.068  10.060 -1.0204  0.6954  0.1957
  149SAPE   H9X16530   6.305   2.103  10.042 -0.4949  0.2484  2.1124
  149SAPE   H9Y16531   6.130   2.153  10.052 -0.4525  1.3583  1.7992
  149SAPE  C31016532   6.160   1.968   9.951 -0.3123  0.1384  1.0213
  149SAPE  H10X16533   6.056   1.939   9.976 -0.4770 -1.0918 -0.8856
  149SAPE  H10Y16534   6.231   1.882   9.950 -0.1894  0.2343 -0.0182
  149SAPE  C31116535   6.156   2.042   9.806 -0.3638  0.3925 -0.6353
  149SAPE  H11X16536   6.106   2.138   9.829 -2.4142 -1.1559  1.9682
  149SAPE  H11Y16537   6.079   1.991   9.744 -0.1951  2.4891 -2.6890
  149SAPE  C31216538   6.290   2.055   9.739  0.0623  0.8476  0.5027
  149SAPE  H12X16539   6.333   1.955   9.720 -0.4784  0.2085  2.4021
  149SAPE  H12Y16540   6.356   2.122   9.798  0.1021 -0.0217  1.4742
  149SAPE  C31316541   6.287   2.111   9.592  0.0557 -0.3352  0.1431
  149SAPE  H13X16542   6.210   2.191   9.597 -0.6688 -1.0719  2.7663
  149SAPE  H13Y16543   6.250   2.039   9.517  2.2438 -0.6484 -0.6878
  149SAPE  C31416544   6.431   2.161   9.547 -0.4639 -0.6798  0.4748
  149SAPE  H14X16545   6.508   2.089   9.582  0.7448  0.9035  1.2135
  149SAPE  H14Y16546   6.437   2.249   9.614  1.1858 -1.7529  1.8092
  149SAPE  C31516547   6.453   2.210   9.402  0.0424  0.6360  0.2790
  149SAPE  H15X16548   6.549   2.264   9.415  0.0032  0.3257  1.9543
  149SAPE  H15Y16549   6.366   2.272   9.370 -1.0090 -1.0903 -0.2970
  149SAPE  C31616550   6.463   2.089   9.306  0.3454 -0.4695  0.1406
  149SAPE  H16X16551   6.358   2.054   9.302  0.4293 -0.8899  1.2345
  149SAPE  H16Y16552   6.516   2.006   9.358 -1.7401 -0.8670  1.7601
  149SAPE  C31716553   6.529   2.112   9.169 -0.1255 -0.7796 -0.3629
  149SAPE  H17X16554   6.621   2.171   9.188  0.6610 -0.8653 -3.3874
  149SAPE  H17Y16555   6.464   2.189   9.121  0.1009  1.3420  2.5107
  149SAPE  C31816556   6.544   1.985   9.090 -0.1046 -0.2236 -0.1121
  149SAPE  H18X16557   6.614   2.009   9.008  2.3895 -2.4550  1.2272
  149SAPE  H18Y16558   6.447   1.955   9.043 -1.7851  0.6575  2.5506
  149SAPE  H18Z16559   6.587   1.903   9.151  1.9454 -0.4404 -1.7442
  150SAPE     N16560   1.275   0.820  11.166 -0.4223  0.3099 -0.5765
  150SAPE   HN116561   1.229   0.784  11.080  0.5641 -2.6014  0.0030
  150SAPE   HN216562   1.362   0.865  11.129 -0.6903  0.1110 -1.4576
  150SAPE   HN316563   1.300   0.741  11.228 -4.6281  0.9434  2.3012
  150SAPE   C1216564   1.195   0.928  11.239  0.4100  0.8518  0.8930
  150SAPE  H12A16565   1.242   0.937  11.339  0.6809  0.4960  0.7962
  150SAPE  H12B16566   1.091   0.893  11.256  0.5653  0.9425  2.1064
  150SAPE   C1116567   1.193   1.055  11.147  0.5142  0.3841  0.6348
  150SAPE  H11A16568   1.299   1.064  11.115 -0.1981  1.5750 -1.5539
  150SAPE  H11B16569   1.172   1.145  11.210  0.5874 -0.0472  1.2913
  150SAPE     P16570   1.143   1.023  10.894 -0.0366  0.3295  0.2237
  150SAPE   O1316571   1.027   0.964  10.820  0.3176  0.6401  0.0691
  150SAPE   O1416572   1.200   1.149  10.849  0.1541  0.1044  0.0330
  150SAPE   O1216573   1.092   1.046  11.038 -0.4586  0.1635  0.3121
  150SAPE   O1116574   1.257   0.913  10.910 -0.3642 -0.2916  0.1268
  150SAPE    C116575   1.338   0.897  10.792 -0.0095 -0.4299  0.1410
  150SAPE    HA16576   1.396   0.990  10.772 -0.8086  0.2964  1.1370
  150SAPE    HB16577   1.414   0.821  10.820 -0.8346 -0.5573  2.1789
  150SAPE    C216578   1.283   0.838  10.663  0.3861 -0.3084  0.7353
  150SAPE    HS16579   1.213   0.916  10.627 -2.1723 -1.4199  2.9917
  150SAPE   O2116580   1.216   0.707  10.681  0.2645 -0.4393  0.3795
  150SAPE   C2116581   1.127   0.677  10.583 -0.2379 -0.9812 -0.0721
  150SAPE   O2216582   1.102   0.753  10.489  0.1211  0.0650  0.3090
  150SAPE   C2216583   1.075   0.535  10.606 -0.0474 -0.4231 -0.0154
  150SAPE   H2R16584   1.110   0.501  10.706  0.1540  2.5700  1.0579
  150SAPE   H2S16585   0.964   0.544  10.609  0.0461  1.1940 -0.4809
  150SAPE    C316586   1.405   0.818  10.564 -0.1389 -0.8103 -0.4103
  150SAPE    HX16587   1.466   0.736  10.608 -0.2608 -1.8813 -2.1381
  150SAPE    HY16588   1.473   0.905  10.563 -2.0687  0.8148 -2.9414
  150SAPE   O3116589   1.370   0.770  10.432 -0.4218  0.4388  0.0637
  150SAPE   C3116590   1.313   0.865  10.359 -0.0634  0.1702  0.3221
  150SAPE   O3216591   1.283   0.979  10.396  0.8224  1.0508 -0.3116
  150SAPE   C3216592   1.299   0.811  10.216 -0.1050 -0.3209  0.3034
  150SAPE   H2X16593   1.214   0.869  10.176 -0.8405 -2.4660 -1.4106
  150SAPE   H2Y16594   1.260   0.708  10.222 -1.8374  0.3712  1.4690
  150SAPE   C2316595   1.107   0.441  10.486 -0.4147 -0.0542  0.0564
  150SAPE   H3R16596   1.071   0.473  10.385 -1.0398  0.1198  0.3306
  150SAPE   H3S16597   1.055   0.345  10.504 -1.9553  0.7402 -0.0159
  150SAPE   C2416598   1.257   0.393  10.475  0.4564 -0.4557 -0.0980
  150SAPE   H4R16599   1.280   0.381  10.583 -0.2882  2.6352  0.5226
  150SAPE   H4S16600   1.311   0.485  10.442  0.3057 -0.8194 -1.4019
  150SAPE   C2516601   1.288   0.271  10.395  0.5012 -0.6166  0.4699
  150SAPE   H5R16602   1.339   0.187  10.445  2.7798 -1.5706 -3.1011
  150SAPE   C2616603   1.254   0.248  10.267 -0.1470 -0.0041  1.0266
  150SAPE   H6R16604   1.264   0.145  10.230 -2.5400 -0.3790  1.2213
  150SAPE   C2716605   1.192   0.341  10.166 -0.0614  0.8343  0.1617
  150SAPE   H7R16606   1.228   0.444  10.186 -0.5289  0.4841  3.3751
  150SAPE   H7S16607   1.082   0.342  10.184 -0.8041  0.5388 -3.5954
  150SAPE   C2816608   1.205   0.298  10.019 -0.1841 -0.2803 -0.4421
  150SAPE   H8R16609   1.293   0.342   9.970 -1.4390  1.2917 -1.4227
  150SAPE   C2916610   1.133   0.223   9.940 -0.1304  0.0703 -0.3539
  150SAPE   H9R16611   1.166   0.206   9.836 -1.4704 -1.0845 -0.6147
  150SAPE  C21016612   1.005   0.158   9.979 -0.4151  0.3143  0.4435
  150SAPE  H10R16613   0.918   0.210   9.934  0.0099 -0.5045 -1.4378
  150SAPE  H10S16614   0.994   0.149  10.089  1.2811 -0.0090  0.6108
  150SAPE  C21116615   0.997   0.021   9.919  0.2403  0.4037  0.3873
  150SAPE  H11R16616   1.000  -0.059   9.994 -1.2437 -0.5576 -0.5176
  150SAPE  C21216617   0.972  -0.017   9.793  0.3715 -0.2935 -0.5104
  150SAPE  H12R16618   0.969  -0.126   9.775 -1.5149 -0.5344  0.9284
  150SAPE  C21316619   0.941   0.067   9.674  0.1303 -0.1920 -0.2680
  150SAPE  H13R16620   1.027   0.071   9.603 -0.1297  2.9108 -0.5734
  150SAPE  H13S16621   0.928   0.170   9.716  0.2099  0.4361 -1.7408
  150SAPE  C21416622   0.811   0.019   9.616  0.1411  0.3319  0.2424
  150SAPE  H14R16623   0.773  -0.079   9.647 -0.1564  0.0787 -0.8745
  150SAPE  C21516624   0.741   0.079   9.522 -0.6506  0.2545  0.3480
  150SAPE  H15R16625   0.667   0.016   9.470  2.3952 -1.2671 -2.5645
  150SAPE  C21616626   0.758   0.207   9.454 -0.2974  0.3455 -0.2274
  150SAPE  H16R16627   0.815   0.271   9.524 -1.7805  4.5073 -2.4496
  150SAPE  H16S16628   0.663   0.262   9.435  0.1583  1.5116  0.7823
  150SAPE  C21716629   0.845   0.207   9.329  0.0836 -0.2029  0.3270
  150SAPE  H17R16630   0.943   0.168   9.363  0.1037 -1.6609 -1.2712
  150SAPE  H17S16631   0.863   0.310   9.292 -1.6642 -0.2268 -0.6927
  150SAPE  C21816632   0.796   0.128   9.209 -0.6944  0.6027  0.7254
  150SAPE  H18R16633   0.723   0.195   9.159 -0.8965  1.7682  2.4635
  150SAPE  H18S16634   0.750   0.030   9.232  1.0844 -0.4108  0.1588
  150SAPE  C21916635   0.911   0.109   9.119  0.4375 -0.5000 -0.2828
  150SAPE  H19R16636   0.983   0.039   9.167 -0.9440 -2.0047 -0.3318
  150SAPE  H19S16637   0.959   0.208   9.104  0.4313 -0.3639  0.5385
  150SAPE  C22016638   0.871   0.052   8.984 -0.0284  0.1906 -0.1319
  150SAPE  H20R16639   0.804  -0.035   8.999  0.1625 -0.0985 -0.9469
  150SAPE  H20S16640   0.958   0.028   8.920 -0.3073  0.4961 -0.6287
  150SAPE  H20T16641   0.817   0.127   8.923 -3.0053 -1.4085  0.3031
  150SAPE   C3316642   1.424   0.809  10.124  0.1304  0.6037  0.8017
  150SAPE   H3X16643   1.509   0.746  10.160  1.2511  2.2701  1.1984
  150SAPE   H3Y16644   1.466   0.911  10.114 -0.4678  0.7633 -0.1522
  150SAPE   C3416645   1.388   0.751   9.985 -0.5270 -0.4122  0.8854
  150SAPE   H4X16646   1.285   0.781   9.956 -0.9492 -0.6246  2.1093
  150SAPE   H4Y16647   1.392   0.640   9.982 -1.9831 -0.4937  0.8436
  150SAPE   C3516648   1.488   0.798   9.873  0.9878 -0.2542  0.0667
  150SAPE   H5X16649   1.590   0.773   9.909  1.1713  0.7842  0.2999
  150SAPE   H5Y16650   1.480   0.909   9.863  2.2382  0.1165  2.3350
  150SAPE   C3616651   1.468   0.730   9.738 -0.1577  0.4224  0.4143
  150SAPE   H6X16652   1.364   0.726   9.701  0.8387  1.3265 -2.7921
  150SAPE   H6Y16653   1.489   0.622   9.756  3.0447  0.6586 -1.1622
  150SAPE   C3716654   1.582   0.756   9.636  0.0854 -0.1643  0.1394
  150SAPE   H7X16655   1.667   0.706   9.685 -1.2059 -1.7159  0.8917
  150SAPE   H7Y16656   1.593   0.866   9.647  1.9656 -0.5215  3.0139
  150SAPE   C3816657   1.565   0.702   9.491 -0.1238  0.1852 -0.0816
  150SAPE   H8X16658   1.456   0.705   9.470 -0.5198 -0.8437  1.5964
  150SAPE   H8Y16659   1.580   0.592   9.484 -2.1626 -0.1362 -0.1013
  150SAPE   C3916660   1.649   0.765   9.386  0.2153 -0.1798  1.0234
  150SAPE   H9X16661   1.758   0.773   9.409  0.4702  0.6324 -0.3665
  150SAPE   H9Y16662   1.608   0.867   9.373 -1.5765 -0.6718  2.3383
  150SAPE  C31016663   1.640   0.691   9.248  0.6973  0.2182  0.3742
  150SAPE  H10X16664   1.662   0.583   9.257 -0.0550  0.1438  1.6523
  150SAPE  H10Y16665   1.713   0.738   9.179 -0.6312  1.4293 -0.2503
  150SAPE  C31116666   1.498   0.700   9.172  0.1995 -0.1240 -0.3357
  150SAPE  H11X16667   1.467   0.804   9.150  0.4551 -0.2476 -1.3494
  150SAPE  H11Y16668   1.428   0.651   9.243  2.4041 -3.0933 -0.0303
  150SAPE  C31216669   1.492   0.619   9.040  0.1103 -0.9506 -0.3549
  150SAPE  H12X16670   1.536   0.518   9.056  0.4942 -1.3926 -3.5235
  150SAPE  H12Y16671   1.561   0.665   8.966  0.4927 -0.5362  0.2484
  150SAPE  C31316672   1.354   0.612   8.994  0.0651  0.3166 -0.5765
  150SAPE  H13X16673   1.310   0.713   8.980  2.0306  0.8954 -3.3624
  150SAPE  H13Y16674   1.291   0.563   9.071  0.8524  0.5030  0.2036
  150SAPE  C31416675   1.311   0.541   8.862 -0.5590  0.2708 -0.6567
  150SAPE  H14X16676   1.342   0.594   8.770  0.6321 -1.5730 -1.3869
  150SAPE  H14Y16677   1.200   0.541   8.857 -0.4987  0.5209 -3.5596
  150SAPE  C31516678   1.376   0.404   8.844  0.0544  0.6474  0.1442
  150SAPE  H15X16679   1.371   0.353   8.943  1.4342 -0.5619 -0.3619
  150SAPE  H15Y16680   1.485   0.406   8.825  0.3632 -0.9976  1.4620
  150SAPE  C31616681   1.302   0.314   8.741 -0.0373 -0.8234  0.1629
  150SAPE  H16X16682   1.361   0.220   8.738  2.5255  0.6731  0.5645
  150SAPE  H16Y16683   1.313   0.361   8.640  0.3528 -0.3080  0.4358
  150SAPE  C31716684   1.148   0.307   8.761 -0.6045  0.0859 -0.5916
  150SAPE  H17X16685   1.102   0.404   8.733  0.9272  1.6250  1.8791
  150SAPE  H17Y16686   1.134   0.294   8.871  2.2362  2.2383  0.1367
  150SAPE  C31816687   1.079   0.197   8.689  0.1028 -0.5908 -0.6670
  150SAPE  H18X16688   0.969   0.189   8.702  0.3458 -1.2867  1.4939
  150SAPE  H18Y16689   1.124   0.099   8.716  0.1877 -0.6496 -1.0255
  150SAPE  H18Z16690   1.095   0.200   8.580  1.1221  0.4677 -0.5049
  151SAPE     N16691   0.589   0.066  10.661 -0.6529 -0.0032 -0.5302
  151SAPE   HN116692   0.539   0.157  10.651 -0.0674  0.6600  1.8614
  151SAPE   HN216693   0.636   0.066  10.754 -2.3240 -0.0315  0.3708
  151SAPE   HN316694   0.660   0.063  10.586 -1.1033  0.3552 -0.9746
  151SAPE   C1216695   0.486  -0.047  10.659  0.5414  0.6807  0.5718
  151SAPE  H12A16696   0.446  -0.064  10.761 -1.4707  1.3441 -0.0789
  151SAPE  H12B16697   0.533  -0.146  10.638  1.9555  0.9359  2.2911
  151SAPE   C1116698   0.378  -0.018  10.549 -0.1027 -0.0054  0.0167
  151SAPE  H11A16699   0.304  -0.099  10.568  0.2605 -0.6540 -1.2086
  151SAPE  H11B16700   0.411  -0.023  10.443  0.8521  0.1035  0.3001
  151SAPE     P16701   0.199   0.169  10.514  0.1606  0.3252 -0.2140
  151SAPE   O1316702   0.096   0.135  10.616 -0.4078 -0.1827  0.5124
  151SAPE   O1416703   0.215   0.319  10.492  0.5671 -0.0443  0.0303
  151SAPE   O1216704   0.334   0.115  10.567 -0.0090  1.1001  0.4195
  151SAPE   O1116705   0.164   0.102  10.384 -0.0860  0.3608  0.2336
  151SAPE    C116706   0.081  -0.009  10.360  0.2784  0.4833  0.5993
  151SAPE    HA16707   0.115  -0.097  10.419 -2.1425 -0.1053  1.2062
  151SAPE    HB16708  -0.019   0.004  10.406 -0.5473 -1.5694 -0.4742
  151SAPE    C216709   0.068  -0.041  10.207  0.5140  0.1045 -0.1193
  151SAPE    HS16710  -0.006  -0.123  10.198  1.7908 -1.4478  2.3778
  151SAPE   O2116711   0.199  -0.070  10.151  0.4385 -0.1560 -0.1693
  151SAPE   C2116712   0.214  -0.197  10.118 -0.2209  0.5663 -0.2114
  151SAPE   O2216713   0.133  -0.288  10.145 -0.5917  0.0490  0.0448
  151SAPE   C2216714   0.354  -0.211  10.050 -0.2954  0.1615  0.6398
  151SAPE   H2R16715   0.377  -0.116   9.998 -3.2027  1.1359  0.9273
  151SAPE   H2S16716   0.434  -0.220  10.126  0.2309  2.3639  0.4024
  151SAPE    C316717   0.015   0.080  10.131  1.5365  0.2674  0.6171
  151SAPE    HX16718   0.089   0.160  10.154  0.4124  1.9453 -1.3203
  151SAPE    HY16719  -0.078   0.122  10.176  0.1091 -0.1260 -1.8152
  151SAPE   O3116720   0.004   0.066   9.983 -0.1229 -0.2824 -0.5812
  151SAPE   C3116721  -0.100  -0.007   9.939  0.0726 -0.0111  0.4061
  151SAPE   O3216722  -0.190  -0.048  10.003  0.6000  0.2926  0.4535
  151SAPE   C3216723  -0.088  -0.016   9.788  0.0065 -0.0538  0.3918
  151SAPE   H2X16724  -0.015  -0.098   9.771  1.9230  1.6060  0.2764
  151SAPE   H2Y16725  -0.041   0.075   9.745  1.8609 -1.5730 -0.9890
  151SAPE   C2316726   0.368  -0.335   9.953  0.3047  0.3721  0.0918
  151SAPE   H3R16727   0.286  -0.339   9.878  1.5284 -1.3579 -1.2234
  151SAPE   H3S16728   0.361  -0.423  10.021  1.5403  1.3222  1.4929
  151SAPE   C2416729   0.506  -0.317   9.873  0.8746 -0.3773 -0.0311
  151SAPE   H4R16730   0.540  -0.406   9.816  1.5406  0.8398 -1.5997
  151SAPE   H4S16731   0.595  -0.315   9.940 -0.8993 -0.0372  2.4885
  151SAPE   C2516732   0.512  -0.202   9.777 -0.8716 -0.9850  0.0313
  151SAPE   H5R16733   0.563  -0.115   9.821 -0.0345 -1.1628 -0.5572
  151SAPE   C2616734   0.452  -0.187   9.657  0.2101 -0.6484  0.3091
  151SAPE   H6R16735   0.464  -0.102   9.589 -2.1443 -1.2743 -0.9718
  151SAPE   C2716736   0.364  -0.291   9.587  0.5759 -0.1064  0.2524
  151SAPE   H7R16737   0.367  -0.389   9.640 -1.4064 -0.3125  0.0597
  151SAPE   H7S16738   0.405  -0.323   9.489 -2.8386  1.1088 -1.7286
  151SAPE   C2816739   0.221  -0.254   9.553 -0.5312  0.0629  0.6368
  151SAPE   H8R16740   0.148  -0.311   9.612 -0.9116  0.1099  0.2269
  151SAPE   C2916741   0.171  -0.166   9.471  1.0068 -0.5519 -0.1974
  151SAPE   H9R16742   0.063  -0.147   9.472  0.9155 -0.9074 -1.6053
  151SAPE  C21016743   0.253  -0.082   9.381  0.3030 -0.1627 -0.3576
  151SAPE  H10R16744   0.201  -0.068   9.284  0.5232  2.4851 -0.1792
  151SAPE  H10S16745   0.343  -0.135   9.346  0.6475 -0.0697  0.3740
  151SAPE  C21116746   0.290   0.058   9.438  0.3540  0.0780  0.1829
  151SAPE  H11R16747   0.240   0.078   9.534 -0.1204  1.2176 -0.2897
  151SAPE  C21216748   0.366   0.155   9.379 -0.2403  0.5107 -0.0275
  151SAPE  H12R16749   0.377   0.252   9.431  1.5989  0.9143 -1.0657
  151SAPE  C21316750   0.431   0.135   9.254  0.2962  0.3573  0.4612
  151SAPE  H13R16751   0.458   0.030   9.230  0.8417  0.6751 -0.3572
  151SAPE  H13S16752   0.528   0.186   9.270  1.0513 -1.3469  1.6411
  151SAPE  C21416753   0.355   0.197   9.140 -0.0392 -0.5215 -0.7763
  151SAPE  H14R16754   0.358   0.307   9.136 -1.0624 -0.3074  2.2376
  151SAPE  C21516755   0.282   0.140   9.046 -0.3101  1.7078 -0.9303
  151SAPE  H15R16756   0.216   0.202   8.983 -3.4044  0.5700  0.9683
  151SAPE  C21616757   0.244  -0.004   9.017 -0.5091  0.4474 -0.3204
  151SAPE  H16R16758   0.141  -0.027   9.051 -0.1385 -0.0781  0.4738
  151SAPE  H16S16759   0.316  -0.059   9.081  0.3613  1.2163 -0.6172
  151SAPE  C21716760   0.258  -0.078   8.881 -0.5221  0.8747  0.3844
  151SAPE  H17R16761   0.245  -0.188   8.897 -1.4316  0.9035 -0.0885
  151SAPE  H17S16762   0.362  -0.057   8.851 -0.1296  0.0002  1.0726
  151SAPE  C21816763   0.166  -0.027   8.763 -0.6719  0.0871 -0.7653
  151SAPE  H18R16764   0.207   0.075   8.745  1.3158  0.0488  2.6662
  151SAPE  H18S16765   0.062  -0.009   8.799 -0.6595  1.0428 -1.1919
  151SAPE  C21916766   0.169  -0.121   8.641 -0.6432 -0.4986 -0.3706
  151SAPE  H19R16767   0.079  -0.090   8.584 -1.7274  0.8474  1.9208
  151SAPE  H19S16768   0.132  -0.218   8.681 -0.7810 -0.7142 -1.0170
  151SAPE  C22016769   0.293  -0.120   8.549 -0.5399  0.1415  0.0643
  151SAPE  H20R16770   0.383  -0.136   8.613  1.3019  0.9827 -2.1689
  151SAPE  H20S16771   0.315  -0.019   8.508  1.8710 -0.0103  0.7906
  151SAPE  H20T16772   0.296  -0.197   8.470  1.7104 -1.4030  1.5166
  151SAPE   C3316773  -0.227  -0.025   9.720 -0.1593  0.3770 -0.1929
  151SAPE   H3X16774  -0.293   0.057   9.756 -1.0652 -0.6517  0.5709
  151SAPE   H3Y16775  -0.289  -0.108   9.762 -0.3032  0.6711  0.1798
  151SAPE   C3416776  -0.216  -0.032   9.566 -0.2833 -0.2292 -0.4411
  151SAPE   H4X16777  -0.318  -0.048   9.526 -0.8971 -1.7061  1.5333
  151SAPE   H4Y16778  -0.154  -0.119   9.538 -0.8885 -0.0140 -2.6067
  151SAPE   C3516779  -0.158   0.087   9.497 -0.2569  0.2134  0.1504
  151SAPE   H5X16780  -0.056   0.094   9.541 -0.5018  1.3154  0.5992
  151SAPE   H5Y16781  -0.213   0.174   9.539  1.7998  0.7913  1.8059
  151SAPE   C3616782  -0.172   0.080   9.344  0.0179  0.6059 -0.0123
  151SAPE   H6X16783  -0.269   0.048   9.299  2.4763 -4.5237 -2.6074
  151SAPE   H6Y16784  -0.102  -0.000   9.313  0.5479  1.2464 -0.5098
  151SAPE   C3716785  -0.130   0.213   9.276 -0.5326 -0.2839  0.8627
  151SAPE   H7X16786  -0.109   0.191   9.169  1.5168  2.5370  0.5802
  151SAPE   H7Y16787  -0.032   0.241   9.323  0.8874 -0.8951 -1.5777
  151SAPE   C3816788  -0.223   0.332   9.288  0.1176  0.2515 -0.3106
  151SAPE   H8X16789  -0.218   0.366   9.394 -0.3837 -0.6970  0.0238
  151SAPE   H8Y16790  -0.326   0.296   9.268  0.4881 -0.8439 -0.2813
  151SAPE   C3916791  -0.182   0.448   9.187  0.0209  0.4014  0.2636
  151SAPE   H9X16792  -0.191   0.402   9.086 -1.4181 -0.2920  0.6711
  151SAPE   H9Y16793  -0.075   0.452   9.216  0.1573 -1.7069  0.2042
  151SAPE  C31016794  -0.252   0.584   9.190 -0.6499 -0.8852 -0.4725
  151SAPE  H10X16795  -0.278   0.627   9.289 -2.1380 -1.2791 -0.6707
  151SAPE  H10Y16796  -0.350   0.572   9.139 -0.1351  2.3286 -2.5383
  151SAPE  C31116797  -0.178   0.690   9.106  0.6497  0.7283  0.3920
  151SAPE  H11X16798  -0.078   0.702   9.155  0.0761 -1.4846  2.3390
  151SAPE  H11Y16799  -0.236   0.784   9.112 -0.0893  0.3543 -0.7141
  151SAPE  C31216800  -0.164   0.648   8.956 -0.3611 -0.2937  0.6211
  151SAPE  H12X16801  -0.263   0.608   8.924  1.8085 -3.6250 -2.6851
  151SAPE  H12Y16802  -0.090   0.567   8.941  0.5543  0.9950 -2.5564
  151SAPE  C31316803  -0.135   0.769   8.872  0.3037  0.3241  0.4237
  151SAPE  H13X16804  -0.025   0.787   8.867  0.3629  0.3705  1.7235
  151SAPE  H13Y16805  -0.194   0.854   8.912 -0.2884 -0.8456  2.1318
  151SAPE  C31416806  -0.191   0.744   8.719 -0.1621  0.2460  0.0286
  151SAPE  H14X16807  -0.280   0.810   8.712  1.1770  2.2870  1.0925
  151SAPE  H14Y16808  -0.212   0.636   8.708  3.2234 -0.6426  0.9526
  151SAPE  C31516809  -0.092   0.789   8.602  0.3533 -0.1536 -0.7692
  151SAPE  H15X16810  -0.147   0.757   8.511  0.5682  0.0134 -0.9619
  151SAPE  H15Y16811   0.000   0.731   8.623  0.8157  1.0131  0.6561
  151SAPE  C31616812  -0.053   0.938   8.608 -0.0969 -0.4006 -0.2502
  151SAPE  H16X16813  -0.033   0.975   8.710  0.6925 -1.8927  0.1697
  151SAPE  H16Y16814  -0.143   0.997   8.581  0.4384 -0.2013 -1.7054
  151SAPE  C31716815   0.064   0.979   8.517 -0.3463  0.0100  0.0221
  151SAPE  H17X16816   0.156   0.934   8.559 -0.7179 -0.8031 -0.0271
  151SAPE  H17Y16817   0.081   1.089   8.521  0.4667 -0.0470 -1.2316
  151SAPE  C31816818   0.050   0.929   8.375  0.1751 -0.3052  0.0390
  151SAPE  H18X16819   0.054   0.818   8.373  1.7371 -0.2985  1.0622
  151SAPE  H18Y16820   0.146   0.958   8.329  1.0807  0.6804  2.3820
  151SAPE  H18Z16821  -0.042   0.977   8.334  0.7499  1.1692  0.4085
  152SAPE     N16822   1.696   5.375  10.687 -0.1495  0.3351  0.1420
  152SAPE   HN116823   1.721   5.283  10.727  0.6056  0.2205 -0.5825
  152SAPE   HN216824   1.783   5.413  10.644  0.2631 -1.2717 -0.5209
  152SAPE   HN316825   1.665   5.436  10.766 -1.7313  1.0474 -0.9567
  152SAPE   C1216826   1.579   5.366  10.593  0.0051  1.2060  0.4310
  152SAPE  H12A16827   1.622   5.322  10.501 -2.5359 -1.0156  0.1897
  152SAPE  H12B16828   1.533   5.465  10.570 -1.3456  0.2846 -1.0950
  152SAPE   C1116829   1.468   5.273  10.654 -0.0774  0.5895  0.5889
  152SAPE  H11A16830   1.392   5.249  10.577  1.9527 -1.8370 -0.8220
  152SAPE  H11B16831   1.425   5.320  10.746 -2.8984 -0.0979 -0.2766
  152SAPE     P16832   1.463   5.013  10.688  0.0859  0.2992  0.1976
  152SAPE   O1316833   1.570   4.914  10.720  0.3514 -0.5256  0.0814
  152SAPE   O1416834   1.345   5.027  10.778  0.5371 -0.0760  1.0853
  152SAPE   O1216835   1.529   5.150  10.695  0.1286 -0.0549  0.2517
  152SAPE   O1116836   1.420   5.010  10.537  1.0341  0.0321  0.1760
  152SAPE    C116837   1.513   5.028  10.432  0.4687 -0.2840 -0.7155
  152SAPE    HA16838   1.584   5.110  10.457  0.3250 -0.3569 -0.0477
  152SAPE    HB16839   1.587   4.945  10.425  1.8701  0.7388  0.8898
  152SAPE    C216840   1.447   5.053  10.300  0.3074 -0.8810  0.0164
  152SAPE    HS16841   1.359   4.986  10.286 -0.5487  0.0922  0.5501
  152SAPE   O2116842   1.542   5.034  10.200  0.0217 -0.6291 -0.8061
  152SAPE   C2116843   1.576   4.906  10.178  0.3352  0.0559  0.3139
  152SAPE   O2216844   1.523   4.811  10.234 -0.1767 -0.4489 -0.1473
  152SAPE   C2216845   1.659   4.899  10.047 -0.0721  0.3039  0.2728
  152SAPE   H2R16846   1.725   4.988  10.050 -1.2771  1.1958  1.3113
  152SAPE   H2S16847   1.722   4.810  10.072  0.4001 -0.5074 -3.2133
  152SAPE    C316848   1.398   5.202  10.284 -0.7991 -0.1109  0.8188
  152SAPE    HX16849   1.483   5.262  10.321  0.0948 -0.1672 -1.0376
  152SAPE    HY16850   1.316   5.225  10.356 -0.8916 -0.1251  0.7193
  152SAPE   O3116851   1.369   5.237  10.149 -0.0529 -0.7593 -0.3302
  152SAPE   C3116852   1.260   5.189  10.092  0.4941 -0.2820 -0.0920
  152SAPE   O3216853   1.162   5.144  10.153 -0.1572  0.5250  0.4137
  152SAPE   C3216854   1.265   5.184   9.942 -0.7126 -0.1626  0.0557
  152SAPE   H2X16855   1.373   5.192   9.915 -0.8585  2.4802  0.0577
  152SAPE   H2Y16856   1.214   5.275   9.903  1.1350  0.9121  0.0153
  152SAPE   C2316857   1.576   4.897   9.919  0.2447 -0.0385  0.5661
  152SAPE   H3R16858   1.511   4.981   9.888 -1.1573 -1.1594  0.3282
  152SAPE   H3S16859   1.504   4.814   9.937 -1.8280  1.4563 -0.4157
  152SAPE   C2416860   1.650   4.869   9.788  0.5946  0.0415 -0.1297
  152SAPE   H4R16861   1.586   4.844   9.700  1.6896 -2.3382 -0.3129
  152SAPE   H4S16862   1.687   4.767   9.809  2.2468  0.5483 -0.4289
  152SAPE   C2516863   1.780   4.946   9.759  0.0264 -0.3007 -0.4645
  152SAPE   H5R16864   1.838   4.958   9.851 -2.7084  0.8913  1.2487
  152SAPE   C2616865   1.821   4.984   9.643 -0.1790  0.2443  0.6092
  152SAPE   H6R16866   1.919   5.030   9.625 -1.9059  3.1642 -2.3299
  152SAPE   C2716867   1.745   4.958   9.510  0.1158 -0.1532 -0.6325
  152SAPE   H7R16868   1.650   5.013   9.526 -0.3238 -1.5520  2.3496
  152SAPE   H7S16869   1.712   4.852   9.505  2.2753 -0.8391 -1.2674
  152SAPE   C2816870   1.818   4.990   9.387  1.1824 -0.0586  0.0732
  152SAPE   H8R16871   1.923   5.022   9.401  0.3337  2.0284  2.4025
  152SAPE   C2916872   1.760   4.983   9.264  0.8211  0.0535 -0.3135
  152SAPE   H9R16873   1.820   5.019   9.179  0.6510  0.6320 -0.1923
  152SAPE  C21016874   1.616   4.949   9.235  0.2152  0.0420 -0.5300
  152SAPE  H10R16875   1.571   5.025   9.167 -0.8069  0.7337  0.8477
  152SAPE  H10S16876   1.554   4.964   9.327  0.3205  0.3531 -0.5075
  152SAPE  C21116877   1.601   4.814   9.178 -0.3169  0.0573 -0.4603
  152SAPE  H11R16878   1.623   4.737   9.253 -0.0030 -0.7359 -1.3394
  152SAPE  C21216879   1.579   4.784   9.053  0.0246  0.0453  0.0533
  152SAPE  H12R16880   1.567   4.679   9.024  0.4304 -0.1012  0.4105
  152SAPE  C21316881   1.563   4.886   8.945  0.4109  0.3643  0.2954
  152SAPE  H13R16882   1.665   4.905   8.904  0.5591 -1.6678 -0.3681
  152SAPE  H13S16883   1.517   4.980   8.983 -1.8036 -0.0631 -1.1607
  152SAPE  C21416884   1.462   4.843   8.838  0.6327  0.5841 -0.5040
  152SAPE  H14R16885   1.374   4.796   8.883  0.9052  0.5930  0.0444
  152SAPE  C21516886   1.453   4.872   8.705 -0.3288  0.5993 -0.4597
  152SAPE  H15R16887   1.377   4.830   8.637  0.6208 -1.2168 -0.4542
  152SAPE  C21616888   1.548   4.966   8.634 -0.0518 -0.0816  0.8146
  152SAPE  H16R16889   1.552   4.940   8.526 -0.2271 -1.2359  1.0728
  152SAPE  H16S16890   1.647   4.962   8.683 -0.1710 -1.0891  0.9780
  152SAPE  C21716891   1.497   5.112   8.642  0.3293  0.9094  0.0253
  152SAPE  H17R16892   1.564   5.188   8.596  0.9277  0.0356 -0.5698
  152SAPE  H17S16893   1.490   5.129   8.752 -0.4380  0.4093  0.0566
  152SAPE  C21816894   1.355   5.120   8.586  0.6498  0.3931 -0.1203
  152SAPE  H18R16895   1.320   5.224   8.606  2.0363  0.6163  1.3814
  152SAPE  H18S16896   1.282   5.048   8.628 -1.0032  1.7728 -0.5023
  152SAPE  C21916897   1.357   5.111   8.430  0.5031  1.0503 -0.0466
  152SAPE  H19R16898   1.345   5.006   8.398 -2.2476  1.9557 -2.4475
  152SAPE  H19S16899   1.451   5.146   8.384  0.5215  0.4850 -0.4391
  152SAPE  C22016900   1.237   5.178   8.363 -0.6639  0.2043  0.8930
  152SAPE  H20R16901   1.143   5.160   8.419 -0.5480  0.3182  1.1267
  152SAPE  H20S16902   1.228   5.147   8.256 -1.9204  0.7190  0.8222
  152SAPE  H20T16903   1.251   5.288   8.368 -1.9877  0.4877 -0.6531
  152SAPE   C3316904   1.206   5.050   9.883  0.4088  0.4636 -0.2499
  152SAPE   H3X16905   1.098   5.054   9.910  0.0346  0.6196 -1.6742
  152SAPE   H3Y16906   1.245   4.971   9.950  0.6812  0.2069 -0.7084
  152SAPE   C3416907   1.247   5.033   9.735 -0.1162 -0.7984  0.3746
  152SAPE   H4X16908   1.193   4.945   9.693 -1.7685  0.4608 -0.2228
  152SAPE   H4Y16909   1.354   5.003   9.748  0.4711  0.7906 -0.5163
  152SAPE   C3516910   1.252   5.147   9.626  0.4677  0.3642  0.1294
  152SAPE   H5X16911   1.334   5.217   9.652  1.4833 -0.7498  0.0340
  152SAPE   H5Y16912   1.155   5.202   9.623  0.9280  1.1595 -0.5735
  152SAPE   C3616913   1.287   5.092   9.483  0.5068  0.3176  0.0328
  152SAPE   H6X16914   1.230   4.999   9.460  1.7339 -0.4684  0.0859
  152SAPE   H6Y16915   1.394   5.073   9.458  0.5252  2.4700 -1.8452
  152SAPE   C3716916   1.235   5.181   9.367  0.7902 -0.4151  0.2765
  152SAPE   H7X16917   1.298   5.272   9.364  0.8746 -0.4756  0.1808
  152SAPE   H7Y16918   1.133   5.213   9.394 -0.0806 -2.5476 -0.2653
  152SAPE   C3816919   1.241   5.133   9.218 -0.1559 -0.2569  0.3378
  152SAPE   H8X16920   1.349   5.107   9.205  0.1267  1.3951 -0.8904
  152SAPE   H8Y16921   1.206   5.215   9.152 -0.9473 -1.3672 -0.6741
  152SAPE   C3916922   1.150   5.017   9.179 -0.1048 -0.2411  0.1662
  152SAPE   H9X16923   1.059   5.020   9.243 -0.1023 -1.2330  0.2298
  152SAPE   H9Y16924   1.209   4.926   9.203 -1.2608 -0.5084  2.1923
  152SAPE  C31016925   1.114   5.016   9.033 -0.4339 -0.3225 -0.7005
  152SAPE  H10X16926   1.197   5.001   8.961 -0.4420 -1.5640 -0.4671
  152SAPE  H10Y16927   1.074   5.120   9.023 -0.0251  0.5808  4.3152
  152SAPE  C31116928   1.004   4.920   8.987  0.2817  0.2444 -0.2084
  152SAPE  H11X16929   0.923   4.920   9.063  1.4218  0.1963  1.0565
  152SAPE  H11Y16930   1.049   4.818   8.990 -1.3520 -0.4924  0.6207
  152SAPE  C31216931   0.927   4.941   8.854  0.1519 -0.0207 -0.5258
  152SAPE  H12X16932   0.860   5.029   8.857 -1.2733 -1.0787  2.0418
  152SAPE  H12Y16933   0.856   4.856   8.856  0.9484 -0.7614 -1.9131
  152SAPE  C31316934   1.018   4.922   8.733 -0.4053 -0.2382  1.0385
  152SAPE  H13X16935   1.046   4.815   8.725  0.7184  0.0401  1.0837
  152SAPE  H13Y16936   1.120   4.966   8.736  1.0921 -3.3591  0.0435
  152SAPE  C31416937   0.948   4.961   8.599 -0.1279  0.0755  0.3306
  152SAPE  H14X16938   1.019   4.947   8.516 -0.7899 -0.8415 -0.0956
  152SAPE  H14Y16939   0.927   5.071   8.602  0.1046  0.1008  1.5415
  152SAPE  C31516940   0.813   4.896   8.569  0.1266 -0.1664  0.4885
  152SAPE  H15X16941   0.733   4.964   8.604 -1.0734 -2.1201  1.7513
  152SAPE  H15Y16942   0.799   4.803   8.628 -1.0694 -0.3007  0.0140
  152SAPE  C31616943   0.778   4.877   8.422 -0.1183 -0.1357  0.5765
  152SAPE  H16X16944   0.856   4.810   8.378 -1.5667 -1.4340 -0.0878
  152SAPE  H16Y16945   0.780   4.975   8.370 -1.6600 -1.2162 -1.7177
  152SAPE  C31716946   0.633   4.840   8.399 -0.3012 -0.1233 -0.5248
  152SAPE  H17X16947   0.611   4.819   8.292 -1.5461  2.0574 -0.7515
  152SAPE  H17Y16948   0.570   4.927   8.427 -0.8918  0.1944 -2.6396
  152SAPE  C31816949   0.570   4.720   8.472  0.0717 -0.1141  0.4025
  152SAPE  H18X16950   0.470   4.690   8.433  0.2743  0.5608 -0.6749
  152SAPE  H18Y16951   0.568   4.733   8.583  1.2664 -0.0598  0.4293
  152SAPE  H18Z16952   0.643   4.639   8.450  0.4303  0.8311 -2.2430
  153SAPE     N16953   6.641   0.810  10.891 -0.1357  0.2702  0.5476
  153SAPE   HN116954   6.724   0.751  10.914 -1.6543 -1.4859  1.7935
  153SAPE   HN216955   6.630   0.896  10.948  0.5581  0.0102  1.1007
  153SAPE   HN316956   6.552   0.757  10.903  0.6997 -1.2329  0.3996
  153SAPE   C1216957   6.645   0.852  10.746  0.2940 -0.5852  0.3618
  153SAPE  H12A16958   6.736   0.913  10.726  0.7590 -1.3219  0.1909
  153SAPE  H12B16959   6.557   0.914  10.717  2.1023  0.8829 -2.4251
  153SAPE   C1116960   6.642   0.725  10.652  0.1560 -1.4185 -0.7542
  153SAPE  H11A16961   6.743   0.679  10.648  2.4496  2.9485  0.4353
  153SAPE  H11B16962   6.616   0.760  10.550 -0.7006  0.1686 -0.0430
  153SAPE     P16963   6.530   0.505  10.753  0.4992 -0.1744 -0.0513
  153SAPE   O1316964   6.639   0.492  10.850  0.3383 -0.3775  0.0108
  153SAPE   O1416965   6.391   0.482  10.798  1.1085 -0.1796 -0.1086
  153SAPE   O1216966   6.540   0.644  10.686  0.1804  0.1501 -0.0618
  153SAPE   O1116967   6.548   0.393  10.644 -0.0552 -0.0655 -0.4167
  153SAPE    C116968   6.468   0.387  10.526  0.0618 -0.9606 -0.0442
  153SAPE    HA16969   6.437   0.281  10.517 -0.9645 -0.7216  0.4826
  153SAPE    HB16970   6.370   0.431  10.554  0.1598 -0.7115 -0.0896
  153SAPE    C216971   6.530   0.444  10.399 -0.1179  0.9639  0.8422
  153SAPE    HS16972   6.552   0.550  10.424 -1.0107  0.8791  2.1161
  153SAPE   O2116973   6.441   0.450  10.293  0.2482  0.4058  0.1367
  153SAPE   C2116974   6.349   0.541  10.301  0.4167  0.5399  0.6006
  153SAPE   O2216975   6.338   0.631  10.383  0.1634  0.1061  0.0933
  153SAPE   C2216976   6.253   0.526  10.180 -0.3166 -0.1612  0.6049
  153SAPE   H2R16977   6.306   0.518  10.083 -3.4906 -2.8766 -1.1064
  153SAPE   H2S16978   6.205   0.428  10.199 -0.9382 -0.0531 -0.3167
  153SAPE    C316979   6.647   0.351  10.355 -0.1607  0.2794  0.3716
  153SAPE    HX16980   6.611   0.248  10.379 -1.8058  0.6405 -0.3443
  153SAPE    HY16981   6.736   0.367  10.419 -1.2979 -0.4931  2.2330
  153SAPE   O3116982   6.678   0.363  10.211 -0.3163  0.4451  0.5078
  153SAPE   C3116983   6.736   0.472  10.181  0.3972  0.3471 -0.2509
  153SAPE   O3216984   6.770   0.562  10.259 -0.0154  0.5570  0.9205
  153SAPE   C3216985   6.759   0.475  10.030  0.5708 -0.1530  0.8310
  153SAPE   H2X16986   6.802   0.381   9.988 -1.5341  0.1492 -2.3529
  153SAPE   H2Y16987   6.832   0.554  10.003  2.0362 -1.7591 -0.1741
  153SAPE   C2316988   6.150   0.632  10.164 -0.2295  0.3385 -0.5852
  153SAPE   H3R16989   6.207   0.722  10.133 -0.0161  1.0413  1.6969
  153SAPE   H3S16990   6.084   0.661  10.248  0.7047 -1.6416  0.8994
  153SAPE   C2416991   6.061   0.591  10.046  0.3395 -0.1512  0.0811
  153SAPE   H4R16992   5.992   0.507  10.071 -2.3124  1.0855 -2.4023
  153SAPE   H4S16993   6.119   0.552   9.959  0.1705 -1.6391  0.6147
  153SAPE   C2516994   5.973   0.710  10.013  0.4523 -0.1886  0.0435
  153SAPE   H5R16995   5.901   0.737  10.091  0.5495 -0.1521  0.1193
  153SAPE   C2616996   5.960   0.770   9.895 -0.2131 -0.0298  0.0987
  153SAPE   H6R16997   5.882   0.847   9.888 -0.5088 -0.1387  1.8298
  153SAPE   C2716998   6.046   0.749   9.771 -0.0429  0.0351  0.5255
  153SAPE   H7R16999   6.132   0.686   9.802  0.5917 -0.0661 -1.3017
  153SAPE   H7S17000   6.078   0.846   9.728 -2.3221  0.9118  0.6613
  153SAPE   C2817001   5.970   0.658   9.674 -0.2562  0.5606 -1.0247
  153SAPE   H8R17002   5.929   0.570   9.726  0.3151  0.6196 -0.4635
  153SAPE   C2917003   5.964   0.680   9.539  0.4629 -0.7988 -0.6439
  153SAPE   H9R17004   5.906   0.621   9.466 -0.5836 -0.9461  0.2866
  153SAPE  C21017005   6.024   0.805   9.473  0.8309  0.2006 -0.2534
  153SAPE  H10R17006   5.999   0.894   9.535 -1.2811  0.7081 -1.7245
  153SAPE  H10S17007   5.982   0.833   9.374  1.2921  2.2604  0.0788
  153SAPE  C21117008   6.175   0.794   9.467 -0.0498 -0.5290 -0.5818
  153SAPE  H11R17009   6.229   0.850   9.545 -1.5206 -2.1558  1.7573
  153SAPE  C21217010   6.244   0.755   9.360 -0.4068 -0.3916 -0.5332
  153SAPE  H12R17011   6.354   0.748   9.368 -0.2457 -0.1764 -2.2057
  153SAPE  C21317012   6.183   0.690   9.237 -0.5143  0.4266  0.4790
  153SAPE  H13R17013   6.073   0.682   9.245 -0.6044  0.5739 -0.4452
  153SAPE  H13S17014   6.212   0.584   9.221 -0.4809  0.4327  0.5004
  153SAPE  C21417015   6.203   0.770   9.103 -0.8135 -1.0171  0.1879
  153SAPE  H14R17016   6.252   0.868   9.110  0.4060 -1.5748 -0.2839
  153SAPE  C21517017   6.164   0.723   8.981  0.9112  0.0077 -0.2525
  153SAPE  H15R17018   6.206   0.779   8.896  0.3418 -0.0201 -0.5550
  153SAPE  C21617019   6.105   0.588   8.959 -0.7918  0.2044  0.4721
  153SAPE  H16R17020   6.032   0.568   9.039 -0.7303  0.8714  0.6985
  153SAPE  H16S17021   6.181   0.507   8.962  1.3952  1.9411 -2.2756
  153SAPE  C21717022   6.022   0.574   8.837 -0.5525 -0.1543  0.5739
  153SAPE  H17R17023   5.965   0.665   8.808  2.4206  1.0746 -1.8314
  153SAPE  H17S17024   5.946   0.496   8.861  2.2286 -3.4804 -0.6623
  153SAPE  C21817025   6.101   0.537   8.705 -0.6373 -0.0459  0.0464
  153SAPE  H18R17026   6.021   0.522   8.629  0.4359 -0.8956 -0.9515
  153SAPE  H18S17027   6.163   0.448   8.730 -2.0638 -1.2287 -0.4775
  153SAPE  C21917028   6.194   0.650   8.654 -0.3093 -0.0326  0.1475
  153SAPE  H19R17029   6.279   0.669   8.724  1.1696  1.5093 -1.9285
  153SAPE  H19S17030   6.134   0.743   8.651  1.6824  1.2846 -1.0650
  153SAPE  C22017031   6.259   0.621   8.513  0.5033 -0.6139  0.2086
  153SAPE  H20R17032   6.321   0.703   8.470  1.2541 -2.4899 -2.5308
  153SAPE  H20S17033   6.169   0.609   8.450  0.0599  3.4998 -0.1996
  153SAPE  H20T17034   6.323   0.530   8.507 -0.5303 -1.2808 -1.3339
  153SAPE   C3317035   6.632   0.509   9.947  0.7047 -0.3510  0.3470
  153SAPE   H3X17036   6.664   0.539   9.845 -0.6790 -0.7257 -0.2260
  153SAPE   H3Y17037   6.587   0.593  10.003  2.4053 -0.3485  1.7976
  153SAPE   C3417038   6.529   0.400   9.946 -0.1391 -0.0344 -0.7186
  153SAPE   H4X17039   6.490   0.390  10.050 -0.3332  0.0978 -0.7782
  153SAPE   H4Y17040   6.581   0.305   9.924  0.4579 -0.3724  1.7922
  153SAPE   C3517041   6.415   0.418   9.849 -0.3070 -0.3605 -0.0746
  153SAPE   H5X17042   6.453   0.426   9.745 -1.0780  1.2710 -0.2491
  153SAPE   H5Y17043   6.367   0.515   9.872  0.8767  0.3214 -0.3878
  153SAPE   C3617044   6.301   0.318   9.851  0.2959  0.4908 -0.0736
  153SAPE   H6X17045   6.264   0.315   9.956 -0.2047  0.0971 -0.2612
  153SAPE   H6Y17046   6.352   0.222   9.829  1.7973  1.3097 -0.3562
  153SAPE   C3717047   6.176   0.349   9.763 -1.2690  0.2462 -0.5216
  153SAPE   H7X17048   6.126   0.431   9.818  0.9912  0.4756  1.3770
  153SAPE   H7Y17049   6.111   0.259   9.771  0.0084 -0.8639 -1.9459
  153SAPE   C3817050   6.204   0.390   9.618 -0.4649  0.0251  0.1115
  153SAPE   H8X17051   6.269   0.480   9.624  1.4498 -1.3167  0.7586
  153SAPE   H8Y17052   6.111   0.425   9.569 -1.0773  0.6139  1.6184
  153SAPE   C3917053   6.277   0.278   9.546 -0.3653  1.0405  0.0906
  153SAPE   H9X17054   6.367   0.242   9.600 -0.0021  0.6293 -0.7668
  153SAPE   H9Y17055   6.323   0.320   9.454  2.5978  0.6632  1.2752
  153SAPE  C31017056   6.197   0.148   9.525 -0.3494  0.0802  0.5243
  153SAPE  H10X17057   6.185   0.100   9.624  2.5807 -0.9730  0.4498
  153SAPE  H10Y17058   6.265   0.091   9.459  0.2310  0.0017  1.1781
  153SAPE  C31117059   6.059   0.158   9.454  0.2723 -0.5289  0.1169
  153SAPE  H11X17060   5.985   0.213   9.515  1.6196  1.3668  0.1446
  153SAPE  H11Y17061   6.019   0.055   9.453 -0.4876 -0.2626 -1.8707
  153SAPE  C31217062   6.064   0.212   9.305  0.4399  0.9425  0.5002
  153SAPE  H12X17063   6.124   0.305   9.312  0.4112  1.1959 -1.8820
  153SAPE  H12Y17064   5.964   0.227   9.260  0.2420 -1.2357  0.0830
  153SAPE  C31317065   6.137   0.113   9.216 -0.4143  0.4680 -0.3140
  153SAPE  H13X17066   6.104   0.014   9.254  1.1759 -0.6423 -1.7142
  153SAPE  H13Y17067   6.246   0.119   9.235 -0.5857  1.5687  0.4679
  153SAPE  C31417068   6.119   0.120   9.065  0.2245 -0.6025  0.2533
  153SAPE  H14X17069   6.210   0.081   9.015  0.5325  0.8962 -0.3904
  153SAPE  H14Y17070   6.134   0.223   9.027  1.4825 -0.8107  0.1241
  153SAPE  C31517071   5.986   0.062   9.005  0.1670 -0.1673 -0.3185
  153SAPE  H15X17072   5.907   0.122   9.054 -0.3627 -2.7356  2.1845
  153SAPE  H15Y17073   5.961  -0.041   9.037 -1.1650 -0.0812 -0.9994
  153SAPE  C31617074   5.973   0.061   8.855  0.1239  0.4789 -0.0608
  153SAPE  H16X17075   5.876   0.016   8.823 -2.8584  5.1535  1.4266
  153SAPE  H16Y17076   6.056  -0.007   8.827 -0.6662  0.1531 -1.7582
  153SAPE  C31717077   5.977   0.198   8.775  0.4804 -0.0373 -0.8524
  153SAPE  H17X17078   6.084   0.226   8.759  1.5725 -3.4096 -0.4178
  153SAPE  H17Y17079   5.921   0.273   8.834 -0.0248 -1.7075  0.9003
  153SAPE  C31817080   5.904   0.198   8.643 -0.3014 -0.1083 -0.0126
  153SAPE  H18X17081   5.803   0.163   8.671 -0.2931 -0.2491 -0.1570
  153SAPE  H18Y17082   5.958   0.121   8.584  1.2622  0.6153  0.4082
  153SAPE  H18Z17083   5.899   0.301   8.602  1.3827  0.2538  0.6153
  154SAPE     N17084   1.408   6.670  11.086 -0.0228 -0.4365 -0.1925
  154SAPE   HN117085   1.489   6.704  11.141  0.8790  1.3585 -2.4655
  154SAPE   HN217086   1.327   6.686  11.149  0.5887  2.3533  0.0431
  154SAPE   HN317087   1.422   6.569  11.065 -0.6364 -0.7010  0.6574
  154SAPE   C1217088   1.417   6.742  10.953  0.6443  0.8280  0.3799
  154SAPE  H12A17089   1.524   6.762  10.934  0.3470  2.6721  0.4685
  154SAPE  H12B17090   1.364   6.840  10.956 -2.9982 -0.7713 -3.0840
  154SAPE   C1117091   1.343   6.659  10.844 -0.1266 -0.4249 -0.1565
  154SAPE  H11A17092   1.378   6.554  10.850  3.3575  0.5115 -1.7843
  154SAPE  H11B17093   1.390   6.697  10.750  1.6651 -0.0554  0.8558
  154SAPE     P17094   1.107   6.559  10.774 -0.3547  0.2534 -0.0890
  154SAPE   O1317095   1.127   6.417  10.790  0.1330 -0.3516  0.5623
  154SAPE   O1417096   0.965   6.605  10.779 -0.0024  0.4044 -0.1971
  154SAPE   O1217097   1.199   6.656  10.860 -0.8263  0.1710 -0.7303
  154SAPE   O1117098   1.156   6.601  10.631 -0.2219 -0.3050 -0.5575
  154SAPE    C117099   1.129   6.731  10.577 -0.4284 -0.6344 -0.4854
  154SAPE    HA17100   1.083   6.791  10.659  2.8651 -0.9369  1.7389
  154SAPE    HB17101   1.226   6.778  10.549 -1.4692  2.2815  0.3659
  154SAPE    C217102   1.019   6.726  10.458 -0.4878 -0.3688 -0.1693
  154SAPE    HS17103   0.935   6.677  10.511 -0.8753  0.5090  0.0316
  154SAPE   O2117104   1.073   6.651  10.344  0.5439  0.1376 -0.3170
  154SAPE   C2117105   0.990   6.558  10.298 -0.2914 -0.3258 -0.0694
  154SAPE   O2217106   0.884   6.521  10.339  0.2592 -0.2320 -0.0607
  154SAPE   C2217107   1.065   6.474  10.187  0.6090 -0.2023  0.2351
  154SAPE   H2R17108   1.077   6.553  10.109  2.2270 -0.1955  0.4430
  154SAPE   H2S17109   1.164   6.443  10.226  0.5026 -1.0573 -0.1372
  154SAPE    C317110   0.955   6.869  10.427 -0.0052 -0.3121  0.7678
  154SAPE    HX17111   1.028   6.950  10.407  0.2955 -0.4582  1.2426
  154SAPE    HY17112   0.902   6.900  10.520 -1.9703 -0.5928 -0.2170
  154SAPE   O3117113   0.870   6.871  10.308 -0.9170 -0.4274  0.0107
  154SAPE   C3117114   0.756   6.806  10.321  0.2837  0.7047 -0.5204
  154SAPE   O3217115   0.703   6.770  10.425 -0.2168 -0.4230  0.2980
  154SAPE   C3217116   0.700   6.782  10.183 -0.1702  0.3993 -0.3564
  154SAPE   H2X17117   0.697   6.671  10.171  0.4666  0.2221  0.9443
  154SAPE   H2Y17118   0.760   6.822  10.099  0.2647  0.5762  0.0290
  154SAPE   C2317119   0.985   6.350  10.130  0.0712 -0.2956 -0.7668
  154SAPE   H3R17120   0.930   6.292  10.208 -1.4855  1.4189 -0.5179
  154SAPE   H3S17121   1.066   6.285  10.090 -1.6476 -2.2279 -1.2992
  154SAPE   C2417122   0.888   6.381  10.011  0.3233  0.1688  0.2129
  154SAPE   H4R17123   0.942   6.436   9.931  0.5702 -2.6506 -1.7352
  154SAPE   H4S17124   0.800   6.438  10.048 -0.1680 -0.9519  0.8153
  154SAPE   C2517125   0.832   6.255   9.956 -0.0786  0.3360  0.3119
  154SAPE   H5R17126   0.783   6.194  10.033  0.5675  0.2514  0.6607
  154SAPE   C2617127   0.863   6.213   9.836 -0.1566 -0.2556  0.5856
  154SAPE   H6R17128   0.826   6.111   9.817 -0.2203  0.0216 -0.8848
  154SAPE   C2717129   0.934   6.281   9.718 -0.3545 -0.1241  0.3938
  154SAPE   H7R17130   1.039   6.250   9.737 -1.0105 -2.2438  0.9062
  154SAPE   H7S17131   0.921   6.391   9.717  2.9802  0.3619  0.8754
  154SAPE   C2817132   0.893   6.218   9.585  0.6699  0.0258 -0.3694
  154SAPE   H8R17133   0.944   6.127   9.551  0.9491  0.6091 -1.5896
  154SAPE   C2917134   0.817   6.288   9.500  0.0151 -0.3524  0.3889
  154SAPE   H9R17135   0.797   6.227   9.410  0.8853 -1.2655  0.7915
  154SAPE  C21017136   0.758   6.428   9.504  0.5628 -0.3559  0.0034
  154SAPE  H10R17137   0.764   6.473   9.606  0.7906 -0.4527  0.0330
  154SAPE  H10S17138   0.649   6.424   9.483  0.4796 -0.5335  0.4573
  154SAPE  C21117139   0.823   6.520   9.401  0.2863  0.3081 -1.0434
  154SAPE  H11R17140   0.917   6.573   9.422  0.1112  0.8198 -1.5371
  154SAPE  C21217141   0.763   6.557   9.287  0.0696 -0.1857 -0.6643
  154SAPE  H12R17142   0.822   6.617   9.216  1.1288  0.4857  0.7564
  154SAPE  C21317143   0.635   6.492   9.226  0.3709 -0.2939  0.0949
  154SAPE  H13R17144   0.556   6.514   9.301 -0.2099  1.4166 -0.9539
  154SAPE  H13S17145   0.639   6.381   9.230 -1.2858 -0.3610  0.2861
  154SAPE  C21417146   0.606   6.542   9.088 -0.3834 -0.2957 -0.2213
  154SAPE  H14R17147   0.603   6.652   9.086  1.1706 -0.1395  2.0558
  154SAPE  C21517148   0.562   6.473   8.984  0.0943 -0.2257 -0.2050
  154SAPE  H15R17149   0.543   6.530   8.892  3.0653  0.3892 -0.5170
  154SAPE  C21617150   0.534   6.322   8.969  0.0095  0.1526 -0.4090
  154SAPE  H16R17151   0.427   6.306   8.944  0.4054 -0.5721 -1.7230
  154SAPE  H16S17152   0.572   6.255   9.048  1.2458  0.9548 -0.2995
  154SAPE  C21717153   0.606   6.279   8.844  0.0915  0.2016 -0.3300
  154SAPE  H17R17154   0.616   6.169   8.851  2.1430  0.4632  2.5566
  154SAPE  H17S17155   0.710   6.318   8.836  0.4989  0.0215  2.8789
  154SAPE  C21817156   0.530   6.328   8.719 -0.3221 -0.0739  0.1068
  154SAPE  H18R17157   0.551   6.434   8.694 -0.0807 -0.0260  0.5143
  154SAPE  H18S17158   0.422   6.306   8.734 -0.9354  0.2915 -3.0625
  154SAPE  C21917159   0.574   6.258   8.587 -0.0929  0.9749 -0.1356
  154SAPE  H19R17160   0.503   6.289   8.508  0.5599  3.5738  0.2151
  154SAPE  H19S17161   0.554   6.149   8.602  2.2862  0.1764 -2.2034
  154SAPE  C22017162   0.717   6.280   8.533  0.0240  0.4425  0.1474
  154SAPE  H20R17163   0.728   6.382   8.489  0.3350  0.5224  0.4061
  154SAPE  H20S17164   0.747   6.204   8.458  0.7711 -0.2634  1.1285
  154SAPE  H20T17165   0.791   6.272   8.615 -0.4382 -0.5792  0.4783
  154SAPE   C3317166   0.555   6.835  10.177 -0.0316  0.3746 -0.0680
  154SAPE   H3X17167   0.487   6.791  10.253  0.7561 -2.3503 -0.8397
  154SAPE   H3Y17168   0.517   6.802  10.078 -0.2087 -5.2782  1.5234
  154SAPE   C3417169   0.553   6.989  10.181 -0.1334 -0.0447  1.1191
  154SAPE   H4X17170   0.644   7.037  10.139 -0.6082 -0.2168 -0.1431
  154SAPE   H4Y17171   0.567   7.020  10.286  0.5355 -0.5454  1.1856
  154SAPE   C3517172   0.423   7.048  10.122 -1.2389  0.6668  0.4966
  154SAPE   H5X17173   0.428   7.159  10.130  0.8808  0.6800 -0.2047
  154SAPE   H5Y17174   0.343   7.000  10.182  0.4985  0.1761  2.5790
  154SAPE   C3617175   0.412   7.015   9.967 -0.1931 -0.2505  0.0171
  154SAPE   H6X17176   0.399   6.907   9.946  0.2470 -0.0591 -1.3496
  154SAPE   H6Y17177   0.504   7.044   9.912  0.1550  0.4662  0.9452
  154SAPE   C3717178   0.292   7.090   9.912 -0.3375  0.0992 -0.4606
  154SAPE   H7X17179   0.314   7.196   9.936 -1.2211  0.8967 -2.8461
  154SAPE   H7Y17180   0.205   7.063   9.975  2.2506 -0.4540  3.1866
  154SAPE   C3817181   0.256   7.072   9.758 -0.4922 -0.2119 -0.3706
  154SAPE   H8X17182   0.250   6.961   9.752  1.4279 -0.3147 -0.9304
  154SAPE   H8Y17183   0.339   7.108   9.694 -0.0179  0.0321  0.3686
  154SAPE   C3917184   0.126   7.139   9.718 -0.0010  0.5483 -0.8167
  154SAPE   H9X17185   0.050   7.107   9.792 -0.3445 -1.5296 -1.9849
  154SAPE   H9Y17186   0.094   7.097   9.620  0.1985 -1.6048 -0.0083
  154SAPE  C31017187   0.133   7.296   9.703  0.2453 -0.0999  0.0621
  154SAPE  H10X17188   0.158   7.356   9.794  0.4963  1.0463 -0.7424
  154SAPE  H10Y17189   0.026   7.324   9.696 -0.4681 -1.3050  3.6741
  154SAPE  C31117190   0.207   7.348   9.577 -0.0628  0.0282  0.3515
  154SAPE  H11X17191   0.308   7.305   9.593  0.6192  1.3143 -0.3365
  154SAPE  H11Y17192   0.204   7.459   9.570 -3.1081  0.0796  1.1410
  154SAPE  C31217193   0.158   7.281   9.448 -0.2399 -0.1591 -0.4185
  154SAPE  H12X17194   0.049   7.291   9.431 -0.1249  1.6617 -0.3353
  154SAPE  H12Y17195   0.173   7.171   9.454 -1.3830 -0.2752  0.9208
  154SAPE  C31317196   0.239   7.323   9.327 -0.6031 -0.7333  0.0476
  154SAPE  H13X17197   0.218   7.253   9.244  0.0212 -0.9985  0.1072
  154SAPE  H13Y17198   0.348   7.312   9.345  0.0233 -0.0944 -2.7366
  154SAPE  C31417199   0.220   7.475   9.287  0.2248 -0.1682  0.0730
  154SAPE  H14X17200   0.262   7.541   9.366  1.5412 -0.1288 -0.6518
  154SAPE  H14Y17201   0.110   7.491   9.275  0.1191 -0.0571  1.0748
  154SAPE  C31517202   0.288   7.524   9.154  0.5095 -0.1562 -0.2637
  154SAPE  H15X17203   0.394   7.491   9.148 -0.1630 -2.3325 -1.1793
  154SAPE  H15Y17204   0.284   7.634   9.144 -2.9807 -0.2733 -1.6529
  154SAPE  C31617205   0.210   7.460   9.038  0.4095 -0.4887  0.1512
  154SAPE  H16X17206   0.111   7.510   9.035 -0.9322 -2.9161  1.3269
  154SAPE  H16Y17207   0.203   7.353   9.065 -0.7439  0.0621  2.2598
  154SAPE  C31717208   0.272   7.478   8.900  0.4090 -0.0746  0.0608
  154SAPE  H17X17209   0.378   7.446   8.897  0.5106  0.3241 -0.9058
  154SAPE  H17Y17210   0.263   7.585   8.871  1.5930 -0.2864 -1.2165
  154SAPE  C31817211   0.203   7.388   8.801  0.1971 -0.7084 -0.1929
  154SAPE  H18X17212   0.099   7.426   8.793  0.0335 -0.8635  1.0055
  154SAPE  H18Y17213   0.202   7.280   8.830 -2.9186 -0.8773 -0.5552
  154SAPE  H18Z17214   0.249   7.393   8.700  2.6206 -1.7263  0.7763
  155SAPE     N17215   3.379   6.334  10.603  0.2682  0.6015  0.2536
  155SAPE   HN117216   3.320   6.249  10.616 -0.9390  0.8152 -2.9815
  155SAPE   HN217217   3.311   6.387  10.545 -0.4050  0.5324  0.9640
  155SAPE   HN317218   3.465   6.310  10.551 -0.8826 -1.8298 -0.6718
  155SAPE   C1217219   3.416   6.386  10.732 -0.1026  0.0899 -0.1479
  155SAPE  H12A17220   3.466   6.485  10.721  0.6517 -0.2395  0.1762
  155SAPE  H12B17221   3.488   6.317  10.782 -1.3370  0.4800  2.3505
  155SAPE   C1117222   3.301   6.393  10.836 -0.1979 -0.0866  0.2185
  155SAPE  H11A17223   3.359   6.454  10.909  1.2922  0.9175 -1.6946
  155SAPE  H11B17224   3.258   6.297  10.871 -0.7116  0.3149  0.7006
  155SAPE     P17225   3.088   6.533  10.865 -0.4355  0.3375  0.1937
  155SAPE   O1317226   3.063   6.443  10.977 -0.4528  0.1263 -0.1272
  155SAPE   O1417227   3.132   6.671  10.895 -0.2923 -0.2592 -0.2927
  155SAPE   O1217228   3.202   6.473  10.775  0.2496  0.2515  0.6785
  155SAPE   O1117229   2.962   6.522  10.770 -0.4661 -0.2820 -0.6460
  155SAPE    C117230   2.896   6.401  10.748  0.1502 -0.7352 -0.3364
  155SAPE    HA17231   2.910   6.331  10.832  0.8893 -1.2730 -0.8918
  155SAPE    HB17232   2.790   6.433  10.733  0.2467  1.7341  3.0478
  155SAPE    C217233   2.932   6.329  10.617 -0.9640 -0.1478  0.0090
  155SAPE    HS17234   3.036   6.293  10.632 -1.0474  0.7567  3.5763
  155SAPE   O2117235   2.924   6.412  10.495  0.5339 -0.3490 -0.1163
  155SAPE   C2117236   3.028   6.482  10.467  0.1615 -0.6136 -0.5752
  155SAPE   O2217237   3.143   6.474  10.503 -0.0995 -0.6575  0.4294
  155SAPE   C2217238   2.984   6.599  10.374 -0.1265  0.3727 -0.0466
  155SAPE   H2R17239   3.065   6.628  10.303 -0.3765  0.6122 -0.2396
  155SAPE   H2S17240   2.897   6.565  10.314 -0.2752  1.3392 -0.4022
  155SAPE    C317241   2.845   6.200  10.593  0.7390  0.3053  0.2429
  155SAPE    HX17242   2.739   6.232  10.604 -0.5102 -3.4835  0.7642
  155SAPE    HY17243   2.870   6.127  10.674 -0.6681 -2.6690 -1.8152
  155SAPE   O3117244   2.853   6.137  10.462 -0.5281  0.1809  0.0812
  155SAPE   C3117245   2.750   6.134  10.370 -0.2202 -0.7460  0.2720
  155SAPE   O3217246   2.642   6.188  10.394  0.0966 -0.7834 -0.0853
  155SAPE   C3217247   2.792   6.090  10.229 -0.8793 -0.7751 -0.6583
  155SAPE   H2X17248   2.707   6.027  10.195 -0.9025  0.0353 -2.2274
  155SAPE   H2Y17249   2.885   6.031  10.244 -1.5731 -1.1395  3.3625
  155SAPE   C2317250   2.924   6.733  10.443 -0.8785 -0.0991  0.0303
  155SAPE   H3R17251   2.877   6.703  10.539  1.7983  0.0351  1.4922
  155SAPE   H3S17252   2.843   6.770  10.377 -0.5510  0.9459  0.1886
  155SAPE   C2417253   3.031   6.829  10.472 -0.4214  0.6421 -0.0445
  155SAPE   H4R17254   3.092   6.839  10.380 -0.2445 -0.2618 -0.0318
  155SAPE   H4S17255   3.099   6.793  10.552 -1.0501  0.1955  0.2920
  155SAPE   C2517256   2.965   6.957  10.511  0.3080  0.3337  0.1134
  155SAPE   H5R17257   2.910   6.957  10.606 -0.1154 -0.2657 -0.1244
  155SAPE   C2617258   2.971   7.069  10.432  0.2873 -0.0964  0.9399
  155SAPE   H6R17259   2.909   7.158  10.446  0.8282  0.7096 -1.2821
  155SAPE   C2717260   3.048   7.068  10.302  0.1320  0.0191 -0.1828
  155SAPE   H7R17261   2.989   7.017  10.222  1.4294 -1.2642 -0.3506
  155SAPE   H7S17262   3.141   7.009  10.312  0.3333  0.2192 -0.8040
  155SAPE   C2817263   3.102   7.191  10.238  0.0322 -0.1675 -0.3055
  155SAPE   H8R17264   3.142   7.257  10.316 -2.3941  1.2546 -0.1616
  155SAPE   C2917265   3.100   7.222  10.109 -0.2860  0.3963 -0.0798
  155SAPE   H9R17266   3.141   7.316  10.071 -0.6002  0.0345 -1.3823
  155SAPE  C21017267   3.043   7.137   9.994 -0.6213 -0.1285 -0.4329
  155SAPE  H10R17268   3.060   7.031  10.023  0.8486  0.1918 -0.0253
  155SAPE  H10S17269   3.106   7.156   9.904  0.2316 -1.3872 -0.1240
  155SAPE  C21117270   2.892   7.148   9.971 -0.2074 -0.5549  0.6817
  155SAPE  H11R17271   2.830   7.160  10.061 -0.2213  0.4716  0.5520
  155SAPE  C21217272   2.825   7.147   9.853  0.3554  0.0823  0.5732
  155SAPE  H12R17273   2.718   7.173   9.859  0.8087  2.9903 -1.6021
  155SAPE  C21317274   2.872   7.145   9.708 -1.0328 -0.0360 -0.1453
  155SAPE  H13R17275   2.798   7.087   9.649 -2.6829  1.7768  0.0664
  155SAPE  H13S17276   2.961   7.078   9.698 -0.6402  0.8128 -3.4992
  155SAPE  C21417277   2.903   7.274   9.644  0.9233 -0.4654 -0.5918
  155SAPE  H14R17278   2.871   7.367   9.692 -0.9473 -1.1681 -0.3786
  155SAPE  C21517279   2.942   7.287   9.517 -0.0493  0.1199  0.4970
  155SAPE  H15R17280   2.968   7.389   9.488  1.3268 -0.0936  0.9151
  155SAPE  C21617281   2.976   7.164   9.433  0.0005  0.3011 -0.5778
  155SAPE  H16R17282   2.911   7.077   9.459  1.6527 -1.3528 -1.7383
  155SAPE  H16S17283   3.082   7.136   9.452 -0.7096 -1.5319  0.9976
  155SAPE  C21717284   2.962   7.196   9.284  1.0324  0.6747  0.3102
  155SAPE  H17R17285   3.020   7.288   9.260 -1.7730  2.7674  0.8975
  155SAPE  H17S17286   2.860   7.238   9.268  1.2838  0.5887 -1.8438
  155SAPE  C21817287   2.976   7.080   9.190  0.8289  0.1175  0.5777
  155SAPE  H18R17288   2.913   6.997   9.228 -0.7810  1.4710  0.9873
  155SAPE  H18S17289   3.080   7.043   9.197  1.9117  2.4232 -1.4276
  155SAPE  C21917290   2.949   7.120   9.039 -0.2413 -0.3072 -0.7026
  155SAPE  H19R17291   3.016   7.200   9.002  0.6620 -1.2409 -1.1426
  155SAPE  H19S17292   2.845   7.160   9.044 -0.4459 -0.7074 -1.5901
  155SAPE  C22017293   2.944   7.007   8.944  0.3590  0.9650  0.2745
  155SAPE  H20R17294   2.911   6.912   8.992  3.4739 -1.8187 -2.5690
  155SAPE  H20S17295   3.043   6.993   8.897 -0.6549 -1.8364 -1.3053
  155SAPE  H20T17296   2.873   7.015   8.858 -0.9599 -0.9192  1.1075
  155SAPE   C3317297   2.804   6.219  10.144  0.0719  0.0996 -0.0886
  155SAPE   H3X17298   2.886   6.285  10.177 -1.7266  3.4872 -1.8367
  155SAPE   H3Y17299   2.718   6.288  10.157  1.0013  1.3453 -0.3464
  155SAPE   C3417300   2.833   6.177  10.000  0.6090 -0.1543  0.0614
  155SAPE   H4X17301   2.738   6.128   9.971  0.1638  1.7670 -1.9950
  155SAPE   H4Y17302   2.919   6.108   9.987  0.5456 -0.3276  0.5444
  155SAPE   C3517303   2.823   6.308   9.911  0.2031 -0.2070  0.5130
  155SAPE   H5X17304   2.908   6.372   9.942 -0.4196  0.1929  1.4241
  155SAPE   H5Y17305   2.728   6.358   9.939 -0.8131 -2.4412  1.2693
  155SAPE   C3617306   2.806   6.274   9.768 -0.1516  0.5790  0.2481
  155SAPE   H6X17307   2.762   6.357   9.709 -0.4798  1.0933  1.2052
  155SAPE   H6Y17308   2.750   6.180   9.746 -0.1967  0.0700  2.3527
  155SAPE   C3717309   2.942   6.254   9.708 -0.9768  0.4888 -0.1106
  155SAPE   H7X17310   2.998   6.166   9.746  2.7662  1.1754 -3.3096
  155SAPE   H7Y17311   2.994   6.348   9.735  0.7467 -1.3316  3.5753
  155SAPE   C3817312   2.952   6.230   9.554 -0.2200 -0.1533 -0.3523
  155SAPE   H8X17313   2.878   6.303   9.517  0.5943  0.7671 -0.2097
  155SAPE   H8Y17314   2.915   6.127   9.536  1.3569 -0.5023 -1.8126
  155SAPE   C3917315   3.094   6.228   9.484 -0.8416 -0.0892 -0.5066
  155SAPE   H9X17316   3.153   6.150   9.535 -1.7387  0.8608  2.1760
  155SAPE   H9Y17317   3.152   6.321   9.503  1.1705 -1.0577 -1.6148
  155SAPE  C31017318   3.079   6.194   9.333  0.0171 -0.1555  0.3473
  155SAPE  H10X17319   3.016   6.276   9.292 -0.4908 -0.5592  0.3140
  155SAPE  H10Y17320   3.028   6.099   9.307  0.6009 -0.2081 -0.6331
  155SAPE  C31117321   3.214   6.206   9.265  0.4222 -0.0568 -0.5070
  155SAPE  H11X17322   3.291   6.143   9.313  0.6434  0.0206 -0.7574
  155SAPE  H11Y17323   3.255   6.304   9.299 -1.2176  0.7949 -0.8632
  155SAPE  C31217324   3.211   6.196   9.110  0.6201  0.1367  0.0902
  155SAPE  H12X17325   3.146   6.281   9.083  0.3797  1.1923  3.5409
  155SAPE  H12Y17326   3.186   6.090   9.086  0.1127  0.5168 -1.0918
  155SAPE  C31317327   3.354   6.233   9.050 -0.5585 -0.0051 -0.1731
  155SAPE  H13X17328   3.435   6.169   9.091 -0.5231 -0.4414 -0.8859
  155SAPE  H13Y17329   3.371   6.339   9.074 -1.0014  0.0555 -0.1190
  155SAPE  C31417330   3.358   6.224   8.899 -1.2648  0.1081 -0.3335
  155SAPE  H14X17331   3.262   6.273   8.874 -2.2947 -2.5974 -2.0567
  155SAPE  H14Y17332   3.353   6.114   8.886  1.6442 -0.0216 -1.1455
  155SAPE  C31517333   3.480   6.294   8.834  0.6475  0.0184  0.9608
  155SAPE  H15X17334   3.576   6.284   8.889  0.9134  1.0283  0.7129
  155SAPE  H15Y17335   3.450   6.401   8.830 -2.9516 -0.9087 -1.1473
  155SAPE  C31617336   3.508   6.238   8.686  0.1450 -0.1049 -0.5349
  155SAPE  H16X17337   3.410   6.239   8.633  0.1816  3.7393 -0.8225
  155SAPE  H16Y17338   3.543   6.133   8.677 -1.9459 -0.6949 -2.8714
  155SAPE  C31717339   3.606   6.328   8.613  0.4434  0.1808 -0.1192
  155SAPE  H17X17340   3.578   6.435   8.625 -1.4195 -0.1653 -1.1271
  155SAPE  H17Y17341   3.596   6.304   8.505 -0.3220 -2.4465  0.4729
  155SAPE  C31817342   3.756   6.305   8.658  0.1562  0.2053  0.1746
  155SAPE  H18X17343   3.775   6.333   8.764  2.7972  1.4095 -0.5381
  155SAPE  H18Y17344   3.811   6.372   8.589  0.9570 -1.0255 -0.4239
  155SAPE  H18Z17345   3.775   6.199   8.631 -2.5591 -0.2634 -0.1414
  156SAPE     N17346   5.841   6.654  10.572 -0.7379 -0.3898 -0.5971
  156SAPE   HN117347   5.747   6.685  10.605 -0.4343  0.1347 -0.2158
  156SAPE   HN217348   5.872   6.568  10.622 -2.6505 -0.4543  0.5823
  156SAPE   HN317349   5.909   6.726  10.603 -2.0512  0.1708  1.1081
  156SAPE   C1217350   5.843   6.609  10.428 -0.3921 -0.0936  0.1613
  156SAPE  H12A17351   5.802   6.688  10.362 -0.5043  0.3783  0.7930
  156SAPE  H12B17352   5.789   6.512  10.419 -1.1798  0.3197  0.3057
  156SAPE   C1117353   6.000   6.602  10.394 -0.4473  0.3578  1.2338
  156SAPE  H11A17354   6.049   6.699  10.415  0.8262 -0.5892  2.8634
  156SAPE  H11B17355   6.020   6.582  10.286 -0.4737  1.3364  1.0399
  156SAPE     P17356   6.066   6.348  10.442  0.3147 -0.2656 -0.1553
  156SAPE   O1317357   6.188   6.289  10.502 -0.5218 -0.4914 -0.2445
  156SAPE   O1417358   5.937   6.274  10.466 -0.0954 -0.0269  1.0155
  156SAPE   O1217359   6.060   6.504  10.483 -0.3836  0.2526 -0.1627
  156SAPE   O1117360   6.093   6.355  10.284 -0.0108 -0.0856 -0.6533
  156SAPE    C117361   6.219   6.406  10.237  0.3973 -0.3929 -0.1624
  156SAPE    HA17362   6.187   6.476  10.157  2.7029 -0.3135 -1.0863
  156SAPE    HB17363   6.272   6.468  10.312  0.1805 -0.3311 -0.0577
  156SAPE    C217364   6.303   6.287  10.192  0.1726  0.4244  0.8406
  156SAPE    HS17365   6.320   6.215  10.276 -1.2922  0.2298  0.9956
  156SAPE   O2117366   6.421   6.350  10.138 -0.2487 -0.1506  0.6681
  156SAPE   C2117367   6.534   6.292  10.163 -1.0097  0.1526 -0.0358
  156SAPE   O2217368   6.549   6.183  10.215 -0.3213 -0.2483  0.6431
  156SAPE   C2217369   6.647   6.393  10.119  0.2781  0.5123 -0.6012
  156SAPE   H2R17370   6.598   6.491  10.140 -1.3125 -0.6108  1.3789
  156SAPE   H2S17371   6.728   6.392  10.195 -0.6921 -0.7641  0.4784
  156SAPE    C317372   6.228   6.207  10.082  0.2055  0.4221  0.2374
  156SAPE    HX17373   6.196   6.274   9.999  0.2713  0.9014  0.5958
  156SAPE    HY17374   6.131   6.163  10.115  0.0917 -1.0837 -1.8729
  156SAPE   O3117375   6.315   6.110  10.017 -0.1979  0.1121 -0.5219
  156SAPE   C3117376   6.327   5.994  10.078  0.6481  0.5423  0.0746
  156SAPE   O3217377   6.258   5.955  10.170  0.0542  0.2139 -0.1701
  156SAPE   C3217378   6.429   5.899  10.003 -0.1008 -0.2087 -0.4628
  156SAPE   H2X17379   6.479   5.841  10.083  0.0958  2.0994  1.2185
  156SAPE   H2Y17380   6.500   5.955   9.939 -1.5742  0.8041 -1.2853
  156SAPE   C2317381   6.686   6.389   9.968 -0.9676 -0.0477  0.1838
  156SAPE   H3R17382   6.719   6.491   9.939  2.2580 -1.3516 -1.1780
  156SAPE   H3S17383   6.600   6.366   9.902 -1.3450  3.8150 -0.9385
  156SAPE   C2417384   6.802   6.290   9.935 -0.2867 -0.2724 -0.2048
  156SAPE   H4R17385   6.884   6.311  10.007  1.9374 -1.7974 -2.1002
  156SAPE   H4S17386   6.834   6.299   9.828  2.4328  1.4078  0.6316
  156SAPE   C2517387   6.771   6.141   9.949 -0.1975  0.3873  0.5486
  156SAPE   H5R17388   6.718   6.116  10.042 -2.2148 -0.1302 -0.6695
  156SAPE   C2617389   6.806   6.037   9.870 -0.3731  0.1276  0.0113
  156SAPE   H6R17390   6.774   5.935   9.896  0.6466 -0.6011 -1.4836
  156SAPE   C2717391   6.881   6.038   9.747  0.9494  0.2067  0.4864
  156SAPE   H7R17392   6.969   5.972   9.753 -0.2316 -1.2942  2.3721
  156SAPE   H7S17393   6.924   6.140   9.733 -0.4577  0.7797  0.0683
  156SAPE   C2817394   6.792   6.007   9.625 -0.6805 -0.7855 -0.0451
  156SAPE   H8R17395   6.683   6.023   9.631 -1.0186 -2.5872 -0.8229
  156SAPE   C2917396   6.835   5.983   9.501  0.1673 -0.1672 -0.2556
  156SAPE   H9R17397   6.755   5.963   9.429  0.1684 -0.8462 -0.0703
  156SAPE  C21017398   6.976   5.983   9.461 -0.3134 -0.3847 -0.5949
  156SAPE  H10R17399   7.027   5.889   9.491  0.2012  0.0734 -0.0127
  156SAPE  H10S17400   7.038   6.061   9.511 -1.8647  0.3303  0.2545
  156SAPE  C21117401   7.001   6.004   9.316 -0.0605  0.3640  0.6301
  156SAPE  H11R17402   7.043   5.917   9.263  0.3009  1.5068 -1.0280
  156SAPE  C21217403   6.958   6.107   9.238  0.2554  1.0264  0.1104
  156SAPE  H12R17404   6.980   6.097   9.130  1.2536 -0.8680  0.4520
  156SAPE  C21317405   6.898   6.235   9.290 -0.2254 -0.3696  0.3962
  156SAPE  H13R17406   6.915   6.255   9.398 -0.4402  0.6817  0.2400
  156SAPE  H13S17407   6.789   6.248   9.278 -0.3540 -0.3444  1.5486
  156SAPE  C21417408   6.968   6.354   9.214  0.3981  0.1362  0.1471
  156SAPE  H14R17409   7.036   6.419   9.270  0.3895 -0.4593  0.8711
  156SAPE  C21517410   6.953   6.395   9.086 -0.2802 -0.3919 -0.2385
  156SAPE  H15R17411   7.017   6.474   9.045 -0.0226 -0.4401  0.0695
  156SAPE  C21617412   6.864   6.328   8.990 -0.3269 -0.3525  0.3791
  156SAPE  H16R17413   6.795   6.250   9.030 -1.1032 -0.4030 -1.0103
  156SAPE  H16S17414   6.938   6.269   8.932 -0.1494 -1.3281  1.5473
  156SAPE  C21717415   6.779   6.422   8.912 -0.2092  0.3146 -0.0279
  156SAPE  H17R17416   6.750   6.390   8.810 -0.4771 -0.4431  0.2830
  156SAPE  H17S17417   6.833   6.519   8.903  2.7792 -0.9677  2.2372
  156SAPE  C21817418   6.649   6.456   8.990  0.2867 -0.5280 -0.1433
  156SAPE  H18R17419   6.670   6.461   9.099 -1.8887  5.7462  0.3708
  156SAPE  H18S17420   6.573   6.374   8.987 -0.9913  0.6169 -0.2029
  156SAPE  C21917421   6.586   6.587   8.946  0.4126  0.5454  0.0350
  156SAPE  H19R17422   6.658   6.667   8.975  0.7570  0.3518 -0.2786
  156SAPE  H19S17423   6.488   6.597   8.998  1.2263  0.7496  1.5690
  156SAPE  C22017424   6.554   6.582   8.799 -0.1152  0.6529 -0.0128
  156SAPE  H20R17425   6.481   6.663   8.776  1.0679  1.5172 -0.8768
  156SAPE  H20S17426   6.512   6.483   8.770 -2.1105  1.1705  0.8986
  156SAPE  H20T17427   6.633   6.612   8.727 -0.7556  0.5957 -0.7613
  156SAPE   C3317428   6.369   5.797   9.905  0.1442 -0.1435 -0.9996
  156SAPE   H3X17429   6.328   5.854   9.819 -2.8776  0.5242  0.7209
  156SAPE   H3Y17430   6.284   5.741   9.951  1.0888 -1.4657 -0.8179
  156SAPE   C3417431   6.478   5.698   9.863  0.4856 -0.7368  0.1830
  156SAPE   H4X17432   6.484   5.618   9.939 -1.1457 -0.7855  0.2946
  156SAPE   H4Y17433   6.574   5.751   9.848  0.9458 -1.4314  0.6203
  156SAPE   C3517434   6.461   5.627   9.725 -0.2321 -0.3717  0.7441
  156SAPE   H5X17435   6.357   5.596   9.705 -0.6783  0.2477  1.9801
  156SAPE   H5Y17436   6.523   5.534   9.723  2.4845  1.3109  1.0034
  156SAPE   C3617437   6.497   5.717   9.592  0.6432  0.2801 -0.7153
  156SAPE   H6X17438   6.599   5.761   9.598  0.9373 -0.0825 -2.4383
  156SAPE   H6Y17439   6.423   5.799   9.605  0.1802 -0.0689 -1.1127
  156SAPE   C3717440   6.484   5.643   9.458 -0.7129 -0.2120 -0.1703
  156SAPE   H7X17441   6.378   5.617   9.440 -0.9769  2.1743 -2.5978
  156SAPE   H7Y17442   6.551   5.554   9.468 -0.0683  0.0852 -1.5755
  156SAPE   C3817443   6.537   5.714   9.333 -0.4160 -0.2792  0.5311
  156SAPE   H8X17444   6.539   5.637   9.253  0.3030  1.6175 -1.3782
  156SAPE   H8Y17445   6.640   5.750   9.352  1.1798 -0.6216 -5.4058
  156SAPE   C3917446   6.455   5.837   9.285  0.0041 -0.2603 -0.4968
  156SAPE   H9X17447   6.461   5.902   9.375 -0.1823  0.1250 -0.7599
  156SAPE   H9Y17448   6.350   5.804   9.273 -1.4603  3.5191  0.6105
  156SAPE  C31017449   6.503   5.901   9.160 -0.2176  0.0599 -0.0134
  156SAPE  H10X17450   6.447   5.996   9.141 -1.9754 -1.1701 -1.3018
  156SAPE  H10Y17451   6.473   5.824   9.085  0.7840 -1.0672  0.7201
  156SAPE  C31117452   6.651   5.933   9.140 -0.1589  0.1720  0.6220
  156SAPE  H11X17453   6.725   5.850   9.151  0.7434  1.0023  1.0453
  156SAPE  H11Y17454   6.666   6.013   9.215 -1.0110  2.6520 -1.6896
  156SAPE  C31217455   6.681   6.002   9.003 -0.1252 -0.1279 -0.0455
  156SAPE  H12X17456   6.782   6.043   9.024 -0.3579  0.8616 -0.7980
  156SAPE  H12Y17457   6.604   6.082   8.996  0.3743  0.2697 -1.1548
  156SAPE  C31317458   6.697   5.916   8.881 -0.4209 -0.1382 -0.6415
  156SAPE  H13X17459   6.616   5.840   8.875 -0.3622 -0.3007  0.5250
  156SAPE  H13Y17460   6.788   5.856   8.900 -1.4115 -1.8638 -1.0845
  156SAPE  C31417461   6.725   5.972   8.751  1.1299  0.1475  0.0315
  156SAPE  H14X17462   6.704   5.895   8.674  1.5831  0.4077 -0.3559
  156SAPE  H14Y17463   6.827   6.015   8.738  1.2066 -0.4847 -1.6960
  156SAPE  C31517464   6.624   6.090   8.705 -0.1335  0.4813 -0.4357
  156SAPE  H15X17465   6.662   6.170   8.773  1.1293  0.5287 -1.1657
  156SAPE  H15Y17466   6.520   6.065   8.733  0.3325 -0.0376  0.9100
  156SAPE  C31617467   6.642   6.123   8.553  0.4302 -0.0046 -0.3227
  156SAPE  H16X17468   6.598   6.044   8.489 -0.6046  1.7604 -1.8931
  156SAPE  H16Y17469   6.750   6.132   8.530  0.4716  1.5004  0.3256
  156SAPE  C31717470   6.593   6.261   8.512 -0.3635 -0.6084 -0.8562
  156SAPE  H17X17471   6.666   6.337   8.548 -1.9205  1.2620 -1.4934
  156SAPE  H17Y17472   6.496   6.274   8.564 -0.5798 -0.9401 -1.1725
  156SAPE  C31817473   6.578   6.290   8.359  0.8217  0.4870 -0.0111
  156SAPE  H18X17474   6.671   6.260   8.306  1.6727  2.1187  0.5026
  156SAPE  H18Y17475   6.558   6.398   8.344 -1.9847  0.3771  2.0053
  156SAPE  H18Z17476   6.497   6.223   8.325  0.9389 -0.7838  1.9965
  157SAPE     N17477   6.360   4.805  10.540 -0.5758  0.3502  0.2378
  157SAPE   HN117478   6.462   4.825  10.532 -0.5295 -0.1623 -0.6332
  157SAPE   HN217479   6.340   4.765  10.633 -2.3123  1.2921  0.3107
  157SAPE   HN317480   6.340   4.725  10.477 -1.1483 -0.2080  1.1164
  157SAPE   C1217481   6.295   4.936  10.517  0.0316 -0.5841 -0.1690
  157SAPE  H12A17482   6.187   4.925  10.541  0.3703  0.4060  2.0128
  157SAPE  H12B17483   6.317   4.950  10.409  0.8484  0.5903  0.1268
  157SAPE   C1117484   6.350   5.050  10.599  0.2767 -0.4924 -0.9268
  157SAPE  H11A17485   6.324   5.150  10.560  0.1051 -0.2311 -0.1590
  157SAPE  H11B17486   6.460   5.061  10.591  0.0688  0.5992 -3.0361
  157SAPE     P17487   6.182   5.094  10.798  0.2712  0.0314 -0.2328
  157SAPE   O1317488   6.101   4.982  10.841  0.0583  0.1853  0.4315
  157SAPE   O1417489   6.214   5.194  10.904  0.4108  0.0288  0.5445
  157SAPE   O1217490   6.317   5.043  10.740  0.3520 -0.4336 -0.0615
  157SAPE   O1117491   6.101   5.169  10.680 -0.4929  0.2855 -0.1374
  157SAPE    C117492   6.117   5.303  10.662 -0.6781 -0.9223  0.3664
  157SAPE    HA17493   6.104   5.362  10.755 -0.0905  0.2806 -0.2883
  157SAPE    HB17494   6.221   5.325  10.628 -1.2297 -1.4034 -1.8140
  157SAPE    C217495   6.022   5.345  10.543  0.5379 -1.1180  0.3263
  157SAPE    HS17496   5.916   5.354  10.575  0.1253  0.8746 -1.4041
  157SAPE   O2117497   6.033   5.253  10.433 -0.3498  0.0459  0.5149
  157SAPE   C2117498   5.928   5.176  10.412  0.8080  0.4395 -0.2185
  157SAPE   O2217499   5.817   5.181  10.464  0.5641 -0.1721  0.3899
  157SAPE   C2217500   5.974   5.064  10.313 -0.0651  0.7000 -0.1069
  157SAPE   H2R17501   6.070   5.099  10.269 -0.0006  0.3448 -0.2604
  157SAPE   H2S17502   5.986   4.978  10.382 -1.5734  0.6567  0.1279
  157SAPE    C317503   6.055   5.485  10.497  0.3647  0.6750  0.5406
  157SAPE    HX17504   6.165   5.500  10.486  0.1518  1.1368 -1.2868
  157SAPE    HY17505   6.024   5.562  10.571 -0.2021  2.4005 -1.3654
  157SAPE   O3117506   5.984   5.523  10.382 -0.4397 -0.4280 -0.7391
  157SAPE   C3117507   6.061   5.544  10.274 -0.0109  0.6371 -0.4129
  157SAPE   O3217508   6.182   5.532  10.278  0.1387 -0.0460 -0.0461
  157SAPE   C3217509   5.981   5.559  10.147 -0.6315  0.2623 -0.0860
  157SAPE   H2X17510   6.051   5.587  10.066  0.2036  2.1928  1.2088
  157SAPE   H2Y17511   5.899   5.633  10.162 -1.9182 -0.9633 -0.8236
  157SAPE   C2317512   5.876   5.025  10.192 -0.3031 -0.8316 -0.0695
  157SAPE   H3R17513   5.853   5.118  10.136 -1.3620 -0.3135  1.1828
  157SAPE   H3S17514   5.782   4.993  10.241 -0.9688 -0.7294 -1.2640
  157SAPE   C2417515   5.943   4.919  10.101 -0.2755  0.3300 -1.3691
  157SAPE   H4R17516   5.860   4.881  10.038 -1.1390 -2.9159  1.4571
  157SAPE   H4S17517   5.965   4.830  10.163 -3.1874  0.9816  0.8325
  157SAPE   C2517518   6.057   4.970  10.021  0.8930 -0.7768 -0.8567
  157SAPE   H5R17519   6.151   4.975  10.076  0.8936 -2.0348 -0.7064
  157SAPE   C2617520   6.041   5.022   9.894 -0.1113 -0.3625  0.3708
  157SAPE   H6R17521   6.133   5.040   9.837  0.3635 -1.6445  0.7057
  157SAPE   C2717522   5.914   5.036   9.819  0.4714 -0.0052  0.7542
  157SAPE   H7R17523   5.917   5.136   9.770  2.5674  0.5316  1.8303
  157SAPE   H7S17524   5.832   5.027   9.893  0.4859 -1.0345  0.6541
  157SAPE   C2817525   5.895   4.923   9.716  1.0206  0.0449 -0.9566
  157SAPE   H8R17526   5.833   4.841   9.754  0.8768  0.7991  0.5178
  157SAPE   C2917527   5.950   4.907   9.593 -0.5161  0.2224  0.0214
  157SAPE   H9R17528   5.925   4.811   9.545 -1.1645 -1.5782  3.5779
  157SAPE  C21017529   6.044   5.003   9.528  0.9933 -0.4471 -0.0072
  157SAPE  H10R17530   6.037   5.095   9.591  1.9930 -1.3296  1.4249
  157SAPE  H10S17531   6.010   5.027   9.425 -1.7107  0.2170  0.9368
  157SAPE  C21117532   6.178   4.945   9.525 -0.5864 -0.0972  1.1833
  157SAPE  H11R17533   6.196   4.913   9.629 -3.0167  0.2490  1.7575
  157SAPE  C21217534   6.264   4.930   9.424 -0.0129 -0.2985 -0.3492
  157SAPE  H12R17535   6.366   4.901   9.451 -0.0140  0.0658  0.0585
  157SAPE  C21317536   6.256   4.991   9.287 -0.1869 -0.3042  0.7041
  157SAPE  H13R17537   6.356   5.035   9.268 -0.0165  0.2913  2.7323
  157SAPE  H13S17538   6.180   5.071   9.275 -1.8313 -1.7272  1.1514
  157SAPE  C21417539   6.229   4.884   9.181 -0.6509 -0.5382  0.1771
  157SAPE  H14R17540   6.215   4.777   9.203  0.0758 -0.7436 -0.3206
  157SAPE  C21517541   6.202   4.912   9.053  0.7261  0.1872  0.4713
  157SAPE  H15R17542   6.181   4.835   8.978 -1.6361  1.8839 -0.7724
  157SAPE  C21617543   6.180   5.051   8.994 -0.1697  0.5127  0.7420
  157SAPE  H16R17544   6.174   5.130   9.072 -1.7693  0.6648  0.4946
  157SAPE  H16S17545   6.080   5.063   8.947  0.3563  2.0124 -0.0664
  157SAPE  C21717546   6.291   5.075   8.891  0.2695  0.6695 -0.3431
  157SAPE  H17R17547   6.382   5.014   8.908  0.1656  0.7480  0.5175
  157SAPE  H17S17548   6.326   5.179   8.911 -1.0271  0.9403  0.7088
  157SAPE  C21817549   6.243   5.060   8.744 -0.1482  0.4438  0.5219
  157SAPE  H18R17550   6.156   5.130   8.738  0.9371  1.8125  0.1739
  157SAPE  H18S17551   6.215   4.954   8.726 -2.7069  1.1959 -0.3754
  157SAPE  C21917552   6.343   5.122   8.644  0.7102  0.3345 -0.2926
  157SAPE  H19R17553   6.305   5.095   8.544 -2.0117 -0.6804  0.9349
  157SAPE  H19S17554   6.442   5.075   8.662  0.1001 -0.3196  1.5210
  157SAPE  C22017555   6.351   5.273   8.666  0.0577  0.2261  0.1175
  157SAPE  H20R17556   6.380   5.312   8.766  0.2633 -2.2219  1.0808
  157SAPE  H20S17557   6.262   5.321   8.620  0.9748  1.9151  0.0283
  157SAPE  H20T17558   6.435   5.304   8.600  1.9175  0.8832  2.6682
  157SAPE   C3317559   5.909   5.436  10.110  0.4961  0.2917 -0.5125
  157SAPE   H3X17560   5.834   5.415  10.189  0.5232 -0.0361 -0.5734
  157SAPE   H3Y17561   5.977   5.348  10.106 -1.2494 -1.1810  0.5554
  157SAPE   C3417562   5.845   5.448   9.969 -0.5038 -0.1084 -0.1337
  157SAPE   H4X17563   5.786   5.541   9.960  1.6394  1.3060 -0.3520
  157SAPE   H4Y17564   5.785   5.355   9.965  1.4626 -1.4781  0.3837
  157SAPE   C3517565   5.955   5.427   9.861  0.4825  0.2642  0.4128
  157SAPE   H5X17566   6.010   5.332   9.877  0.6585  0.5335  1.4966
  157SAPE   H5Y17567   6.023   5.515   9.865  0.3614  0.3184  1.3273
  157SAPE   C3617568   5.901   5.428   9.719  0.3794 -0.2918  0.4427
  157SAPE   H6X17569   5.852   5.527   9.703  0.7633  0.0913  1.5621
  157SAPE   H6Y17570   5.820   5.353   9.713  1.0905 -1.1582  1.4846
  157SAPE   C3717571   6.000   5.400   9.613  0.3927 -0.2387 -0.0225
  157SAPE   H7X17572   6.043   5.298   9.618  0.9582  0.0453  1.4272
  157SAPE   H7Y17573   6.087   5.467   9.629 -0.3418  1.1188 -1.4136
  157SAPE   C3817574   5.945   5.428   9.469  0.1863 -0.3851 -0.7759
  157SAPE   H8X17575   6.026   5.434   9.393  1.6069  0.7820  0.7516
  157SAPE   H8Y17576   5.894   5.526   9.464  0.0357 -0.3632  0.7988
  157SAPE   C3917577   5.855   5.315   9.419 -0.2325  0.6094 -0.0670
  157SAPE   H9X17578   5.767   5.292   9.482 -1.0506 -0.3079 -1.4994
  157SAPE   H9Y17579   5.917   5.223   9.415  1.4509  1.5653  1.9470
  157SAPE  C31017580   5.804   5.361   9.288 -0.3809 -1.2281  0.1518
  157SAPE  H10X17581   5.787   5.471   9.287 -0.5839 -1.2541 -0.8493
  157SAPE  H10Y17582   5.714   5.304   9.256  0.9873 -2.7643 -1.1587
  157SAPE  C31117583   5.908   5.335   9.172 -0.3664  0.0451  0.3296
  157SAPE  H11X17584   5.947   5.232   9.187  0.2684 -0.1997 -2.3945
  157SAPE  H11Y17585   5.997   5.402   9.177 -1.6466  1.8335  0.0307
  157SAPE  C31217586   5.833   5.349   9.042 -0.1193  0.0543  0.2251
  157SAPE  H12X17587   5.789   5.451   9.040  0.6474  0.3930  0.2896
  157SAPE  H12Y17588   5.747   5.281   9.025 -0.0514  0.0029  0.0843
  157SAPE  C31317589   5.929   5.337   8.927  0.2112  0.5413 -0.8369
  157SAPE  H13X17590   5.945   5.231   8.900  0.4374  0.8358 -1.8915
  157SAPE  H13Y17591   6.028   5.371   8.963  0.9540 -2.0249 -0.2441
  157SAPE  C31417592   5.897   5.429   8.807 -0.6660  0.2293 -0.7345
  157SAPE  H14X17593   5.897   5.536   8.838 -0.6686 -0.2412  1.0093
  157SAPE  H14Y17594   5.797   5.400   8.768 -1.4408  2.8429 -0.8415
  157SAPE  C31517595   6.008   5.419   8.698 -0.0130 -0.5704  0.4083
  157SAPE  H15X17596   6.015   5.314   8.662 -4.6023 -1.4920  1.6601
  157SAPE  H15Y17597   6.100   5.449   8.754 -1.0224  0.8214  1.3796
  157SAPE  C31617598   5.991   5.516   8.579  0.2769 -0.1588 -0.3608
  157SAPE  H16X17599   5.967   5.611   8.632  0.3477  0.3882 -1.2806
  157SAPE  H16Y17600   5.900   5.502   8.516  0.3141 -1.0761 -0.2251
  157SAPE  C31717601   6.119   5.541   8.498  0.7771  0.3746 -0.3480
  157SAPE  H17X17602   6.210   5.539   8.561  1.0844 -1.5026 -0.8135
  157SAPE  H17Y17603   6.113   5.640   8.447  0.6925 -0.1184 -1.3267
  157SAPE  C31817604   6.149   5.432   8.396  0.3106  0.1360  1.4373
  157SAPE  H18X17605   6.061   5.405   8.334  1.0145  1.4526 -0.2191
  157SAPE  H18Y17606   6.173   5.342   8.457  2.5522 -0.1781  0.2076
  157SAPE  H18Z17607   6.229   5.445   8.319 -0.6896 -4.5585 -0.7716
  158SAPE     N17608   6.241   5.437  11.000 -0.2672 -0.0631  0.2619
  158SAPE   HN117609   6.169   5.502  10.963  1.2802  1.4069 -0.2461
  158SAPE   HN217610   6.229   5.352  10.940 -2.1405  0.5795 -0.3462
  158SAPE   HN317611   6.223   5.416  11.101  0.8370  3.2497  1.2585
  158SAPE   C1217612   6.380   5.489  10.991  0.3119  0.4595  0.2457
  158SAPE  H12A17613   6.450   5.431  11.055 -1.7960 -1.8718  0.6273
  158SAPE  H12B17614   6.377   5.597  11.019 -0.9752  0.5095 -0.0274
  158SAPE   C1117615   6.417   5.467  10.840 -0.8388  0.1397 -0.2048
  158SAPE  H11A17616   6.419   5.357  10.824  0.3440  0.1664 -0.3155
  158SAPE  H11B17617   6.523   5.499  10.827 -0.2835 -1.5263  0.0199
  158SAPE     P17618   6.379   5.678  10.695 -0.2142  0.1969  0.0732
  158SAPE   O1317619   6.278   5.727  10.595  0.1193  0.3525 -0.1730
  158SAPE   O1417620   6.426   5.770  10.798  0.5365 -0.5300 -0.1568
  158SAPE   O1217621   6.336   5.540  10.751  0.1400 -0.4944 -0.6216
  158SAPE   O1117622   6.507   5.632  10.619  0.3949 -0.7594  0.5154
  158SAPE    C117623   6.512   5.514  10.537 -0.0397  0.2946 -0.2591
  158SAPE    HA17624   6.488   5.426  10.600 -0.6583  1.0939  0.6489
  158SAPE    HB17625   6.448   5.518  10.446  0.6168  2.5337 -0.6848
  158SAPE    C217626   6.652   5.490  10.466 -0.9745  0.1990 -0.1809
  158SAPE    HS17627   6.721   5.473  10.551 -1.3506 -1.6200 -0.2092
  158SAPE   O2117628   6.688   5.610  10.393  0.6453  0.1759 -0.0053
  158SAPE   C2117629   6.805   5.591  10.328  0.2496  0.1611 -0.1938
  158SAPE   O2217630   6.898   5.515  10.358  0.5404 -0.2027 -0.3889
  158SAPE   C2217631   6.817   5.691  10.215  0.1823 -0.6564  0.3600
  158SAPE   H2R17632   6.785   5.789  10.258  1.7983 -0.9097  2.2711
  158SAPE   H2S17633   6.918   5.709  10.172  0.1032 -2.8815 -0.8886
  158SAPE    C317634   6.654   5.367  10.374  0.4261  0.0597  0.0794
  158SAPE    HX17635   6.612   5.291  10.443 -0.2776 -0.1348 -0.5417
  158SAPE    HY17636   6.759   5.335  10.359  1.0103  1.0530  1.8179
  158SAPE   O3117637   6.585   5.389  10.249 -0.1826  0.6275 -0.1299
  158SAPE   C3117638   6.500   5.291  10.224 -0.4037  0.3600  0.0148
  158SAPE   O3217639   6.482   5.188  10.291  0.2363 -0.4260 -0.0485
  158SAPE   C3217640   6.413   5.330  10.096 -0.1175  0.2864 -0.5096
  158SAPE   H2X17641   6.488   5.378  10.030 -2.2466  3.6691 -0.6662
  158SAPE   H2Y17642   6.350   5.411  10.137 -0.8669  0.9408 -2.8038
  158SAPE   C2317643   6.724   5.650  10.100  0.1248 -0.0045 -0.8644
  158SAPE   H3R17644   6.688   5.743  10.050 -2.0009 -0.1180  0.3326
  158SAPE   H3S17645   6.626   5.621  10.143  1.3038  1.0284  2.8229
  158SAPE   C2417646   6.774   5.549   9.999  0.8286 -0.0486 -0.8622
  158SAPE   H4R17647   6.708   5.540   9.910  0.3226 -0.1914 -0.4790
  158SAPE   H4S17648   6.764   5.448  10.045 -1.7619  0.4581 -0.1476
  158SAPE   C2517649   6.919   5.565   9.963  0.4044  0.4068  0.2358
  158SAPE   H5R17650   6.983   5.524  10.042 -1.2152 -0.2209  1.2875
  158SAPE   C2617651   6.970   5.613   9.847 -0.2272  0.4655 -1.2494
  158SAPE   H6R17652   7.079   5.608   9.833  0.2011 -4.0446  1.7159
  158SAPE   C2717653   6.891   5.677   9.735  0.6579 -1.1892 -0.1297
  158SAPE   H7R17654   6.963   5.749   9.690  0.0585 -0.0041  0.7435
  158SAPE   H7S17655   6.808   5.734   9.781  1.6017  0.7872 -0.7677
  158SAPE   C2817656   6.836   5.602   9.614 -0.2607  0.2568  0.1898
  158SAPE   H8R17657   6.729   5.575   9.608  0.2717 -1.8608 -0.7267
  158SAPE   C2917658   6.901   5.552   9.506  0.6058 -0.2750  0.1621
  158SAPE   H9R17659   6.841   5.507   9.426  0.3182  1.0053 -0.3654
  158SAPE  C21017660   7.053   5.557   9.488  0.0430 -0.2411 -0.9232
  158SAPE  H10R17661   7.110   5.526   9.578 -1.1427  1.6057  0.5498
  158SAPE  H10S17662   7.095   5.651   9.447  0.1702 -0.5129 -1.4271
  158SAPE  C21117663   7.088   5.448   9.387 -0.4215  0.1464  0.0051
  158SAPE  H11R17664   7.115   5.351   9.430 -1.6164  0.7132  2.1566
  158SAPE  C21217665   7.085   5.459   9.249 -0.1986 -0.5246  0.4264
  158SAPE  H12R17666   7.137   5.386   9.185 -1.7134 -0.3919 -1.0210
  158SAPE  C21317667   7.062   5.593   9.173  0.6063  0.0404 -0.0855
  158SAPE  H13R17668   7.095   5.677   9.238 -0.3735  0.6563 -0.3657
  158SAPE  H13S17669   6.957   5.618   9.149  0.5444  1.3033  1.2820
  158SAPE  C21417670   7.159   5.605   9.054 -0.3577  0.1615  0.0305
  158SAPE  H14R17671   7.253   5.662   9.060 -0.7806  0.9066 -0.3923
  158SAPE  C21517672   7.140   5.541   8.935 -0.2011 -0.1532 -0.2946
  158SAPE  H15R17673   7.217   5.550   8.857 -2.4365  1.5461 -2.4567
  158SAPE  C21617674   7.020   5.456   8.899 -0.2602 -0.0034 -0.3428
  158SAPE  H16R17675   6.943   5.445   8.979 -1.1030  0.3178 -1.0912
  158SAPE  H16S17676   7.043   5.352   8.868 -0.4263  0.1271 -0.9006
  158SAPE  C21717677   6.933   5.515   8.783  0.8159 -0.0033  0.6883
  158SAPE  H17R17678   6.985   5.515   8.685 -2.3289 -0.1585 -1.1094
  158SAPE  H17S17679   6.889   5.615   8.801 -0.5680 -0.6329  0.9189
  158SAPE  C21817680   6.822   5.410   8.753 -0.2700  0.6213 -0.2542
  158SAPE  H18R17681   6.769   5.373   8.842 -0.8590  1.5416 -0.2096
  158SAPE  H18S17682   6.868   5.318   8.709 -3.0633 -1.3860  0.7657
  158SAPE  C21917683   6.720   5.461   8.653 -0.2930  0.5263 -0.1991
  158SAPE  H19R17684   6.656   5.377   8.617 -0.6318 -0.0503  1.6411
  158SAPE  H19S17685   6.776   5.491   8.561 -1.1866 -0.5864 -1.1492
  158SAPE  C22017686   6.634   5.572   8.712 -0.3164  0.3209 -0.2567
  158SAPE  H20R17687   6.595   5.538   8.810 -1.5026 -3.0721 -1.7783
  158SAPE  H20S17688   6.548   5.595   8.645 -1.0082  0.1021  0.5430
  158SAPE  H20T17689   6.696   5.664   8.724 -1.6498  1.0088  1.8616
  158SAPE   C3317690   6.336   5.215  10.037 -0.0198 -0.5497 -0.7536
  158SAPE   H3X17691   6.244   5.248   9.984  1.2293  2.1706 -1.4095
  158SAPE   H3Y17692   6.301   5.153  10.122  1.1701  0.3449  0.4120
  158SAPE   C3417693   6.426   5.132   9.942  0.9405  0.0837  0.2179
  158SAPE   H4X17694   6.356   5.048   9.920 -0.1103  0.9294  0.2331
  158SAPE   H4Y17695   6.508   5.094  10.005  1.0627  0.3329  0.2120
  158SAPE   C3517696   6.468   5.191   9.799  0.5581  0.3669  0.6371
  158SAPE   H5X17697   6.538   5.112   9.762 -0.5669 -0.2947 -0.1284
  158SAPE   H5Y17698   6.535   5.278   9.816 -0.6094  1.4734 -0.2929
  158SAPE   C3617699   6.361   5.234   9.692  0.4972  0.4013 -0.1297
  158SAPE   H6X17700   6.332   5.336   9.722 -1.3784  0.1587 -1.0089
  158SAPE   H6Y17701   6.280   5.159   9.695  1.6319 -0.9391 -1.2626
  158SAPE   C3717702   6.424   5.236   9.549  0.4067  0.4211 -0.3794
  158SAPE   H7X17703   6.455   5.133   9.523  0.8350 -0.4790  3.1348
  158SAPE   H7Y17704   6.521   5.290   9.556  0.4679  0.1072  2.3124
  158SAPE   C3817705   6.329   5.305   9.454 -0.1728  0.3809  0.6284
  158SAPE   H8X17706   6.302   5.407   9.487  0.6515  2.0182 -3.1627
  158SAPE   H8Y17707   6.234   5.248   9.461 -1.5336  2.3065 -1.0553
  158SAPE   C3917708   6.391   5.316   9.310 -0.0853  0.1242  0.1671
  158SAPE   H9X17709   6.416   5.217   9.267  0.9580  0.8274 -0.9258
  158SAPE   H9Y17710   6.485   5.373   9.319  0.6545 -1.3073  2.1296
  158SAPE  C31017711   6.301   5.399   9.216  0.0243 -0.0769 -0.4942
  158SAPE  H10X17712   6.253   5.478   9.279  1.1945 -0.7984  1.4004
  158SAPE  H10Y17713   6.210   5.341   9.190 -0.9500  0.0317  2.2956
  158SAPE  C31117714   6.360   5.443   9.080 -0.6053 -0.0789 -0.3927
  158SAPE  H11X17715   6.374   5.353   9.017  0.2710  0.2108 -0.6158
  158SAPE  H11Y17716   6.456   5.498   9.080 -0.3559 -0.4636 -2.0496
  158SAPE  C31217717   6.271   5.554   9.031  0.2550 -0.3953 -0.0629
  158SAPE  H12X17718   6.256   5.621   9.118  1.1288 -0.3119  0.0287
  158SAPE  H12Y17719   6.171   5.513   9.005  0.7749 -2.9110  1.5246
  158SAPE  C31317720   6.304   5.623   8.891 -0.9349 -0.2537 -0.9526
  158SAPE  H13X17721   6.293   5.545   8.812 -2.6934  0.1757 -1.1778
  158SAPE  H13Y17722   6.412   5.644   8.908 -1.3282  0.6361  0.6334
  158SAPE  C31417723   6.220   5.746   8.852 -1.2677  1.4398 -0.4049
  158SAPE  H14X17724   6.219   5.802   8.948  0.4906  1.1576 -0.1900
  158SAPE  H14Y17725   6.119   5.722   8.812 -1.4287 -2.4861  1.7583
  158SAPE  C31517726   6.281   5.835   8.747  0.0918 -0.3496  0.2925
  158SAPE  H15X17727   6.298   5.772   8.656  0.4825  1.3428 -0.8515
  158SAPE  H15Y17728   6.383   5.862   8.781  0.5066 -1.5123  0.0071
  158SAPE  C31617729   6.196   5.957   8.711  0.4544  0.3445  0.5793
  158SAPE  H16X17730   6.195   6.040   8.785  0.2113  1.6585 -0.8386
  158SAPE  H16Y17731   6.092   5.930   8.684 -0.1207  0.4034  2.5863
  158SAPE  C31717732   6.245   6.022   8.575 -0.0583 -0.3782 -0.4938
  158SAPE  H17X17733   6.249   5.946   8.494 -1.1955  1.0553 -1.9473
  158SAPE  H17Y17734   6.353   6.038   8.592 -0.1870 -2.4675  3.7533
  158SAPE  C31817735   6.180   6.151   8.525  0.7302  0.0934 -0.1828
  158SAPE  H18X17736   6.217   6.228   8.596 -2.9850  1.7264  0.1935
  158SAPE  H18Y17737   6.070   6.143   8.529  0.7721 -1.4207 -1.3749
  158SAPE  H18Z17738   6.202   6.181   8.421 -0.2103 -0.8825 -0.6817
  159SAPE     N17739   0.913   2.874   6.568  0.1758 -0.3912 -0.0014
  159SAPE   HN117740   0.888   2.847   6.664 -0.1445  1.2209  0.4019
  159SAPE   HN217741   0.870   2.804   6.504 -0.4091 -0.4913  0.4993
  159SAPE   HN317742   1.014   2.850   6.560  0.5671  1.5067 -1.7912
  159SAPE   C1217743   0.882   3.024   6.538 -0.7054  0.1111  0.0217
  159SAPE  H12A17744   0.924   3.046   6.438 -1.2642  1.1171 -0.0015
  159SAPE  H12B17745   0.938   3.068   6.624  1.3530 -0.2527 -1.0687
  159SAPE   C1117746   0.733   3.051   6.555  0.2464  0.5497  0.2507
  159SAPE  H11A17747   0.710   3.150   6.510 -1.0343 -0.3832 -1.2196
  159SAPE  H11B17748   0.710   3.056   6.664 -0.1577  1.5755  0.1346
  159SAPE     P17749   0.504   2.934   6.519 -0.5477  0.0579 -0.2113
  159SAPE   O1317750   0.429   3.048   6.461 -0.0377 -0.2580  0.1917
  159SAPE   O1417751   0.463   2.794   6.491  0.6180 -0.2975 -0.6666
  159SAPE   O1217752   0.654   2.952   6.485 -0.1241  0.2658 -0.7199
  159SAPE   O1117753   0.494   2.953   6.679 -0.8231  0.2953 -0.2439
  159SAPE    C117754   0.478   2.831   6.756  0.0679 -0.1775 -0.6604
  159SAPE    HA17755   0.379   2.789   6.730 -0.9746  1.5450  0.3784
  159SAPE    HB17756   0.562   2.761   6.732  0.5240  0.1481 -0.0306
  159SAPE    C217757   0.480   2.857   6.911  0.4102 -0.2606 -0.1842
  159SAPE    HS17758   0.581   2.898   6.935 -0.4355  0.5115  2.2712
  159SAPE   O2117759   0.450   2.740   6.993 -0.0976 -0.6465 -0.6163
  159SAPE   C2117760   0.554   2.655   7.008  0.1853  0.3378  0.0345
  159SAPE   O2217761   0.670   2.679   6.963 -0.4730  0.6815 -0.3401
  159SAPE   C2217762   0.508   2.537   7.089 -0.1577  0.1498 -0.4645
  159SAPE   H2R17763   0.428   2.565   7.162 -1.8395 -0.2297 -2.0970
  159SAPE   H2S17764   0.466   2.462   7.019 -0.0810  0.4901 -0.8799
  159SAPE    C317765   0.371   2.969   6.944  0.1449 -0.0828  0.0454
  159SAPE    HX17766   0.273   2.925   6.915  0.6454 -2.4887  1.6246
  159SAPE    HY17767   0.382   3.053   6.873 -0.4399  0.9127  1.0889
  159SAPE   O3117768   0.368   3.013   7.080  0.0047 -0.0141  0.0676
  159SAPE   C3117769   0.362   3.146   7.103  0.4793  0.6685  0.3196
  159SAPE   O3217770   0.364   3.229   7.013  0.4874 -0.3345  0.3238
  159SAPE   C3217771   0.345   3.181   7.249 -0.1390 -0.0330 -0.4349
  159SAPE   H2X17772   0.267   3.117   7.295  1.7177 -0.7216  1.9480
  159SAPE   H2Y17773   0.318   3.289   7.252  1.2824  0.3538 -0.8020
  159SAPE   C2317774   0.627   2.478   7.166 -0.1342 -0.3241 -0.6071
  159SAPE   H3R17775   0.698   2.446   7.087  1.5424  0.4046  0.5439
  159SAPE   H3S17776   0.600   2.391   7.229 -0.1293  0.8565  1.1104
  159SAPE   C2417777   0.703   2.562   7.267 -0.4129  0.0619  0.1020
  159SAPE   H4R17778   0.773   2.635   7.222 -1.6655  0.7482 -0.7761
  159SAPE   H4S17779   0.772   2.490   7.317 -1.3168 -1.5189 -0.8536
  159SAPE   C2517780   0.612   2.629   7.364 -0.4963 -0.2945  0.9240
  159SAPE   H5R17781   0.574   2.723   7.322  1.9906  1.0278  1.4163
  159SAPE   C2617782   0.578   2.590   7.485 -0.6896  0.2455  0.2502
  159SAPE   H6R17783   0.521   2.660   7.548  2.6129  1.5472  2.0368
  159SAPE   C2717784   0.627   2.469   7.560 -0.0074 -0.5961  0.5174
  159SAPE   H7R17785   0.655   2.389   7.488 -0.9250 -0.3682 -0.1169
  159SAPE   H7S17786   0.537   2.425   7.607 -0.6230  0.5609  0.4552
  159SAPE   C2817787   0.747   2.498   7.646  0.0364  0.9378 -0.0987
  159SAPE   H8R17788   0.827   2.551   7.591 -1.6108  0.2432 -3.4323
  159SAPE   C2917789   0.747   2.469   7.779  0.1433 -0.8636  0.4627
  159SAPE   H9R17790   0.835   2.500   7.837  1.3814  0.9754 -2.1755
  159SAPE  C21017791   0.630   2.410   7.853 -0.1530  0.1888  0.5381
  159SAPE  H10R17792   0.551   2.361   7.792  0.3281  2.4618 -2.1520
  159SAPE  H10S17793   0.587   2.500   7.900  0.1381  0.3345  0.5297
  159SAPE  C21117794   0.681   2.310   7.952 -0.4708 -0.3632  0.1822
  159SAPE  H11R17795   0.713   2.211   7.916 -1.5139 -0.2475 -1.1281
  159SAPE  C21217796   0.693   2.321   8.083  0.8258 -0.4112 -0.4944
  159SAPE  H12R17797   0.741   2.238   8.137  4.2106  1.5861 -0.1995
  159SAPE  C21317798   0.640   2.442   8.158  0.5719  0.0432  0.3812
  159SAPE  H13R17799   0.528   2.444   8.160  0.5603  0.3241 -0.3546
  159SAPE  H13S17800   0.656   2.532   8.095 -3.3657 -1.0176 -2.5097
  159SAPE  C21417801   0.710   2.464   8.294  0.4207  0.0515 -0.5316
  159SAPE  H14R17802   0.809   2.510   8.291  0.2766  0.5546  1.1849
  159SAPE  C21517803   0.644   2.440   8.414 -0.8132 -1.1888 -0.7699
  159SAPE  H15R17804   0.696   2.468   8.506 -2.4007  2.9764 -0.8947
  159SAPE  C21617805   0.505   2.394   8.433  0.2567  0.4914 -0.1146
  159SAPE  H16R17806   0.468   2.332   8.349 -1.7453  1.1662  0.2134
  159SAPE  H16S17807   0.449   2.489   8.445  1.2918  1.2083 -0.7762
  159SAPE  C21717808   0.478   2.303   8.551  0.6300 -0.1925 -0.1678
  159SAPE  H17R17809   0.368   2.289   8.548  0.8204 -2.0350  0.3617
  159SAPE  H17S17810   0.507   2.362   8.641  1.6535 -0.3469 -0.3817
  159SAPE  C21817811   0.538   2.159   8.536 -0.6922 -0.2870  0.1831
  159SAPE  H18R17812   0.646   2.178   8.519 -0.8821 -1.4128 -2.7888
  159SAPE  H18S17813   0.503   2.107   8.445  0.6186 -0.2122 -0.3835
  159SAPE  C21917814   0.509   2.067   8.654  0.2106  0.0344  0.9798
  159SAPE  H19R17815   0.401   2.077   8.676  0.1128 -1.5613  1.3483
  159SAPE  H19S17816   0.565   2.108   8.741  0.3810  0.3327  0.7305
  159SAPE  C22017817   0.544   1.922   8.634 -0.0942 -0.8109 -0.4017
  159SAPE  H20R17818   0.489   1.877   8.548  0.3864 -2.1733 -0.0256
  159SAPE  H20S17819   0.519   1.868   8.728  1.2103  1.9017  1.6362
  159SAPE  H20T17820   0.653   1.913   8.611 -0.3733 -1.7356 -1.5149
  159SAPE   C3317821   0.477   3.164   7.326 -0.3431  0.0689 -0.5400
  159SAPE   H3X17822   0.543   3.224   7.260 -0.5250  0.5846 -0.2540
  159SAPE   H3Y17823   0.500   3.055   7.321  0.8233  0.2842 -0.0311
  159SAPE   C3417824   0.475   3.200   7.468  0.8520  0.4105 -0.9789
  159SAPE   H4X17825   0.582   3.213   7.498  1.4294 -3.4882 -0.8915
  159SAPE   H4Y17826   0.429   3.115   7.522  0.0504  1.3773 -0.0910
  159SAPE   C3517827   0.395   3.327   7.491  0.1675  0.5659 -0.1924
  159SAPE   H5X17828   0.294   3.327   7.445  0.2762 -0.9002 -0.4850
  159SAPE   H5Y17829   0.448   3.416   7.451 -0.0470  1.9687  2.3674
  159SAPE   C3617830   0.359   3.339   7.635 -0.5843  0.3883 -0.5265
  159SAPE   H6X17831   0.312   3.240   7.655  2.7121 -0.8948  1.8187
  159SAPE   H6Y17832   0.283   3.417   7.652 -2.9684 -1.7076 -0.9569
  159SAPE   C3717833   0.474   3.354   7.737  0.3606 -0.0061  0.2055
  159SAPE   H7X17834   0.530   3.443   7.703 -1.6003  1.3615  0.4193
  159SAPE   H7Y17835   0.551   3.274   7.723  1.4412  0.7935  1.3494
  159SAPE   C3817836   0.425   3.391   7.876  0.0367 -0.0447  0.7135
  159SAPE   H8X17837   0.356   3.477   7.867  1.5992  0.9967 -2.6395
  159SAPE   H8Y17838   0.507   3.427   7.942  0.9508 -0.0908 -0.3752
  159SAPE   C3917839   0.344   3.276   7.944  0.3437 -0.1696  1.2899
  159SAPE   H9X17840   0.286   3.227   7.864  0.4923 -1.0891  1.7297
  159SAPE   H9Y17841   0.263   3.332   7.995 -0.5576  2.3876 -2.5561
  159SAPE  C31017842   0.402   3.176   8.041  0.1303  0.7486 -0.2475
  159SAPE  H10X17843   0.444   3.229   8.130  0.6429  0.6467 -0.4289
  159SAPE  H10Y17844   0.488   3.120   7.999  0.7612  1.5446 -0.0376
  159SAPE  C31117845   0.295   3.077   8.089  0.3746 -0.1424  0.2798
  159SAPE  H11X17846   0.270   3.017   7.999  0.1866  0.1382  0.1416
  159SAPE  H11Y17847   0.201   3.123   8.127  0.7718 -0.6428  1.9573
  159SAPE  C31217848   0.355   2.989   8.194 -0.3492  0.4232 -0.3060
  159SAPE  H12X17849   0.373   3.049   8.285 -2.4728  0.0196  0.4447
  159SAPE  H12Y17850   0.450   2.941   8.163 -0.4877  0.4516 -0.7797
  159SAPE  C31317851   0.269   2.878   8.249  0.8487 -0.1862  0.3742
  159SAPE  H13X17852   0.173   2.933   8.262  1.2088  0.2114  1.5282
  159SAPE  H13Y17853   0.312   2.849   8.348  0.5426 -2.4254 -0.0937
  159SAPE  C31417854   0.258   2.753   8.165 -0.5323 -0.3234  1.1835
  159SAPE  H14X17855   0.353   2.697   8.156  0.6506  1.7909 -0.2232
  159SAPE  H14Y17856   0.232   2.784   8.062  2.1133  1.2757  0.9080
  159SAPE  C31517857   0.159   2.660   8.238  0.2724 -0.1379  0.7340
  159SAPE  H15X17858   0.071   2.722   8.267 -0.8105 -1.4970  0.4564
  159SAPE  H15Y17859   0.213   2.621   8.327 -2.0481 -1.8779  1.4716
  159SAPE  C31617860   0.114   2.533   8.165  0.0749  0.1993  0.2918
  159SAPE  H16X17861   0.057   2.573   8.078 -0.8013 -1.3702  0.1011
  159SAPE  H16Y17862   0.031   2.482   8.219 -0.3538  0.9492  0.3598
  159SAPE  C31717863   0.223   2.437   8.127 -0.1137 -0.6795 -0.6330
  159SAPE  H17X17864   0.284   2.419   8.218 -1.4051  2.4039  0.9798
  159SAPE  H17Y17865   0.301   2.484   8.063 -0.5460  3.7874  1.7609
  159SAPE  C31817866   0.172   2.300   8.073 -0.4726  0.9117 -0.6299
  159SAPE  H18X17867   0.179   2.302   7.963 -0.1152 -0.8092 -0.6671
  159SAPE  H18Y17868   0.075   2.266   8.118 -0.7359  2.5326  0.0903
  159SAPE  H18Z17869   0.243   2.223   8.111 -1.4795  0.6135  0.7216
  160SAPE     N17870   5.243   4.347   6.368 -0.2563 -0.1234  0.2655
  160SAPE   HN117871   5.249   4.442   6.327 -0.8470  0.4001  1.3520
  160SAPE   HN217872   5.309   4.342   6.448 -0.6702 -0.0233  0.6166
  160SAPE   HN317873   5.273   4.274   6.300 -0.3987 -0.4947  0.5939
  160SAPE   C1217874   5.109   4.306   6.430 -0.4397  0.6079 -0.5744
  160SAPE  H12A17875   5.039   4.308   6.344 -1.1021 -0.3568 -0.0682
  160SAPE  H12B17876   5.074   4.384   6.501  0.8339  1.6427 -1.0210
  160SAPE   C1117877   5.103   4.165   6.482  0.0656  0.1671  0.3216
  160SAPE  H11A17878   5.011   4.158   6.544  0.2370  2.5019  0.9403
  160SAPE  H11B17879   5.182   4.146   6.559  0.4363 -0.6435 -0.2378
  160SAPE     P17880   5.096   3.910   6.397  0.2795  0.1730 -0.0804
  160SAPE   O1317881   4.981   3.845   6.325  0.0439  0.3653  0.2248
  160SAPE   O1417882   5.230   3.851   6.370 -0.5303 -0.3547 -0.3172
  160SAPE   O1217883   5.099   4.064   6.372 -0.1777  0.2637 -0.4104
  160SAPE   O1117884   5.061   3.912   6.554  0.1739 -0.0750 -0.5650
  160SAPE    C117885   5.161   3.897   6.653 -0.0731 -0.9313 -0.4035
  160SAPE    HA17886   5.247   3.963   6.630 -1.6328  1.8295  1.1175
  160SAPE    HB17887   5.124   3.952   6.742  1.4482 -0.1369 -0.2353
  160SAPE    C217888   5.198   3.760   6.692 -0.3642  0.4037 -0.2543
  160SAPE    HS17889   5.196   3.700   6.598 -0.8509  1.8407 -1.1924
  160SAPE   O2117890   5.107   3.709   6.793  0.5527  0.0400  0.6726
  160SAPE   C2117891   5.092   3.577   6.794 -0.5909  0.4970  0.4251
  160SAPE   O2217892   5.143   3.494   6.722 -0.3012 -0.0218 -0.1039
  160SAPE   C2217893   4.998   3.543   6.912  0.3585  0.2790 -0.7521
  160SAPE   H2R17894   4.948   3.631   6.958  0.6132  0.3167 -0.5451
  160SAPE   H2S17895   4.914   3.488   6.865 -0.0788 -0.4698  0.8414
  160SAPE    C317896   5.350   3.749   6.753 -0.3031  0.2694  0.4662
  160SAPE    HX17897   5.413   3.773   6.664  0.7541 -0.5086  0.9777
  160SAPE    HY17898   5.385   3.646   6.776 -2.0489 -0.5820 -0.5057
  160SAPE   O3117899   5.362   3.841   6.855 -0.3372 -0.8640  0.3088
  160SAPE   C3117900   5.407   3.800   6.976  0.2510 -0.1038  0.0122
  160SAPE   O3217901   5.453   3.691   6.998  0.0760  0.2792 -0.1634
  160SAPE   C3217902   5.402   3.924   7.069 -0.3792 -0.0110  0.2591
  160SAPE   H2X17903   5.297   3.952   7.093 -1.6599 -1.8478 -2.7004
  160SAPE   H2Y17904   5.460   4.006   7.021  1.2266 -1.1509  0.1547
  160SAPE   C2317905   5.041   3.443   7.018  0.0860 -0.4279 -0.9385
  160SAPE   H3R17906   5.090   3.361   6.962 -0.3044 -0.5085 -1.1654
  160SAPE   H3S17907   4.958   3.397   7.076  1.1109 -0.4413  0.6052
  160SAPE   C2417908   5.142   3.515   7.114  0.2139  0.3149 -0.1659
  160SAPE   H4R17909   5.088   3.588   7.179  0.7999  3.0273 -2.5471
  160SAPE   H4S17910   5.212   3.577   7.055 -0.2678  2.1227  1.0959
  160SAPE   C2517911   5.200   3.402   7.195  0.1461 -0.0664  0.1956
  160SAPE   H5R17912   5.222   3.307   7.143 -1.1734 -1.7388  2.4550
  160SAPE   C2617913   5.209   3.398   7.328 -0.4735  0.2755  0.1785
  160SAPE   H6R17914   5.247   3.305   7.373  0.8371 -0.0334 -1.4620
  160SAPE   C2717915   5.177   3.510   7.421  0.4002 -0.1200 -0.5304
  160SAPE   H7R17916   5.174   3.611   7.376 -3.2679  0.5346  0.7988
  160SAPE   H7S17917   5.255   3.510   7.500 -1.1788 -1.2010  1.1127
  160SAPE   C2817918   5.046   3.481   7.495 -0.2093  0.0786 -0.9418
  160SAPE   H8R17919   4.961   3.503   7.430 -0.6914  1.3684  0.0804
  160SAPE   C2917920   5.027   3.417   7.608 -0.0029  0.6088 -0.1929
  160SAPE   H9R17921   4.922   3.408   7.641  0.3747  1.1180  1.2146
  160SAPE  C21017922   5.134   3.359   7.707 -0.0723 -0.2737 -0.4002
  160SAPE  H10R17923   5.223   3.323   7.652 -1.2723 -0.4769 -2.2795
  160SAPE  H10S17924   5.103   3.263   7.755  2.5782 -0.7622  0.5232
  160SAPE  C21117925   5.171   3.454   7.819 -0.0712  0.5236  0.3564
  160SAPE  H11R17926   5.218   3.551   7.797 -0.5700  0.3077 -1.8563
  160SAPE  C21217927   5.144   3.431   7.947  0.2524 -0.7678 -0.4703
  160SAPE  H12R17928   5.157   3.516   8.016  0.1205 -0.6625 -0.5751
  160SAPE  C21317929   5.070   3.311   8.014 -0.2576 -0.1358 -0.1783
  160SAPE  H13R17930   5.022   3.257   7.929  2.4539 -1.7906 -0.7576
  160SAPE  H13S17931   4.995   3.352   8.086  0.0413  0.9211 -0.4526
  160SAPE  C21417932   5.161   3.224   8.095 -0.1451  0.6650 -0.6647
  160SAPE  H14R17933   5.230   3.162   8.036 -1.4981  0.4000 -2.0406
  160SAPE  C21517934   5.158   3.189   8.226  0.0651 -0.6828  0.6975
  160SAPE  H15R17935   5.233   3.118   8.265  0.2416 -1.1608 -0.4900
  160SAPE  C21617936   5.067   3.242   8.331  0.5322  0.1806  0.2782
  160SAPE  H16R17937   5.005   3.321   8.284 -1.0075  0.6436  2.8771
  160SAPE  H16S17938   5.122   3.293   8.413 -0.2505  2.0681 -0.3169
  160SAPE  C21717939   4.961   3.148   8.383  0.3022  0.4473  0.1789
  160SAPE  H17R17940   4.911   3.180   8.477 -2.8649 -1.7780 -0.5787
  160SAPE  H17S17941   5.003   3.049   8.413 -0.0358  1.1331  3.3065
  160SAPE  C21817942   4.842   3.123   8.285  0.2654 -0.1407  0.6663
  160SAPE  H18R17943   4.894   3.080   8.197 -0.4435  1.3301 -0.4931
  160SAPE  H18S17944   4.799   3.219   8.251  1.1481  1.2823  3.2369
  160SAPE  C21917945   4.733   3.037   8.347  0.6865 -0.2840  0.0590
  160SAPE  H19R17946   4.781   2.939   8.367  1.7888  0.1324 -0.4165
  160SAPE  H19S17947   4.654   3.013   8.272 -0.8323  0.5864  1.3250
  160SAPE  C22017948   4.648   3.101   8.455 -0.4627  0.2870 -0.2312
  160SAPE  H20R17949   4.600   3.194   8.417 -0.0238  0.2185 -0.9856
  160SAPE  H20S17950   4.705   3.123   8.548  0.5377 -2.1507 -0.2031
  160SAPE  H20T17951   4.570   3.038   8.502 -0.5224  0.2878 -0.3285
  160SAPE   C3317952   5.487   3.887   7.190 -0.3762 -0.2823  0.4388
  160SAPE   H3X17953   5.511   3.977   7.251 -1.3167 -0.4807  1.1178
  160SAPE   H3Y17954   5.579   3.830   7.165 -1.7102 -1.4350 -2.2054
  160SAPE   C3417955   5.405   3.798   7.283 -0.6752 -0.0428  0.0714
  160SAPE   H4X17956   5.359   3.709   7.236 -2.2612  0.3506  0.8092
  160SAPE   H4Y17957   5.319   3.862   7.311 -2.6192 -3.0011  1.4164
  160SAPE   C3517958   5.478   3.762   7.409  0.2659 -0.3550 -0.0525
  160SAPE   H5X17959   5.583   3.733   7.389  0.5952 -0.3952  1.5636
  160SAPE   H5Y17960   5.432   3.672   7.455  0.8613 -0.4001  0.4661
  160SAPE   C3617961   5.479   3.879   7.511 -0.5285 -0.1778  0.3692
  160SAPE   H6X17962   5.380   3.928   7.524 -0.4877 -0.3300  1.3416
  160SAPE   H6Y17963   5.553   3.955   7.478  0.3992 -1.3454 -0.3214
  160SAPE   C3717964   5.514   3.818   7.646 -0.6063  0.4056  0.0910
  160SAPE   H7X17965   5.612   3.767   7.650 -0.1317  1.2946 -0.0719
  160SAPE   H7Y17966   5.435   3.741   7.664 -0.7320  0.6640  0.6917
  160SAPE   C3817967   5.505   3.942   7.742 -0.3925  0.4178  0.1438
  160SAPE   H8X17968   5.399   3.975   7.737 -0.7677 -0.7154  0.1740
  160SAPE   H8Y17969   5.572   4.025   7.713  2.4486 -0.3184  3.8418
  160SAPE   C3917970   5.544   3.903   7.882  0.6963  0.4700 -0.6706
  160SAPE   H9X17971   5.556   3.992   7.947 -1.1963  0.1913  0.1234
  160SAPE   H9Y17972   5.641   3.849   7.890  0.5793  0.3299 -0.1384
  160SAPE  C31017973   5.432   3.815   7.946 -0.0794  0.1778  0.3750
  160SAPE  H10X17974   5.405   3.731   7.879  1.8660 -0.8513  0.8112
  160SAPE  H10Y17975   5.339   3.874   7.964 -0.4524 -0.3687  0.2756
  160SAPE  C31117976   5.476   3.767   8.089 -0.9164  0.1526 -0.2292
  160SAPE  H11X17977   5.503   3.857   8.149 -2.4188  1.0467 -0.8184
  160SAPE  H11Y17978   5.574   3.716   8.074  0.0247  1.2966  1.6147
  160SAPE  C31217979   5.373   3.680   8.163  0.5134  0.3208 -0.1757
  160SAPE  H12X17980   5.354   3.595   8.094  0.4854  0.5570 -0.4620
  160SAPE  H12Y17981   5.277   3.727   8.194  1.3625  1.1328  1.3331
  160SAPE  C31317982   5.427   3.619   8.291 -0.0279  0.4678 -0.0122
  160SAPE  H13X17983   5.446   3.701   8.364  1.9377 -0.2196  0.3007
  160SAPE  H13Y17984   5.529   3.584   8.263  0.5972  2.0364  0.2132
  160SAPE  C31417985   5.347   3.510   8.359  0.5325  0.1965 -0.3656
  160SAPE  H14X17986   5.341   3.413   8.305 -1.6600  0.6927 -1.1186
  160SAPE  H14Y17987   5.244   3.545   8.378  1.3804  2.3067  0.7093
  160SAPE  C31517988   5.415   3.464   8.493 -0.1508  0.4217  0.0461
  160SAPE  H15X17989   5.430   3.546   8.566  3.2840  2.0519 -2.2093
  160SAPE  H15Y17990   5.518   3.427   8.470 -0.6277 -0.3668 -0.9128
  160SAPE  C31617991   5.347   3.357   8.575 -0.0608 -0.4916 -0.2109
  160SAPE  H16X17992   5.326   3.266   8.515 -2.4943  0.3944 -0.8117
  160SAPE  H16Y17993   5.247   3.403   8.588 -0.1876 -1.2180  1.5453
  160SAPE  C31717994   5.412   3.317   8.713  0.5830  0.7425  0.7680
  160SAPE  H17X17995   5.413   3.410   8.775  1.3488  1.5274 -0.3828
  160SAPE  H17Y17996   5.507   3.261   8.707 -0.4688 -1.3017  2.1536
  160SAPE  C31817997   5.325   3.199   8.779 -0.7719  0.1056  0.3044
  160SAPE  H18X17998   5.372   3.159   8.871 -1.4538  0.2265  0.7073
  160SAPE  H18Y17999   5.298   3.125   8.700  0.9696  0.9552 -1.1662
  160SAPE  H18Z18000   5.233   3.244   8.821  1.0262  3.1556  1.3043
  161SAPE     N18001   0.073   1.731   6.249 -0.0421 -0.0344  0.2060
  161SAPE   HN118002   0.130   1.774   6.325  1.6429  0.3550 -1.2128
  161SAPE   HN218003   0.136   1.700   6.173  1.8344 -1.4590  2.2390
  161SAPE   HN318004   0.004   1.803   6.220 -0.4720  0.0796  1.4553
  161SAPE   C1218005  -0.017   1.622   6.316  0.3064  0.0303 -0.3096
  161SAPE  H12A18006  -0.084   1.579   6.239  0.6617  1.1337 -1.2724
  161SAPE  H12B18007  -0.078   1.677   6.390  0.3382  0.3238 -0.4990
  161SAPE   C1118008   0.063   1.512   6.382  1.7994  0.7477 -0.2279
  161SAPE  H11A18009   0.108   1.451   6.300 -0.2717  0.7203 -1.3963
  161SAPE  H11B18010  -0.005   1.438   6.430  1.8029  0.3515 -0.8274
  161SAPE     P18011   0.312   1.507   6.475 -0.3454 -0.3602  0.2229
  161SAPE   O1318012   0.315   1.388   6.556  0.5297 -0.6122  0.2252
  161SAPE   O1418013   0.371   1.491   6.340  0.2609 -0.1148 -0.3476
  161SAPE   O1218014   0.162   1.559   6.477  0.3158 -0.1679  0.2172
  161SAPE   O1118015   0.393   1.622   6.542  0.2229 -0.4187  0.4009
  161SAPE    C118016   0.341   1.753   6.585 -0.8259  0.7236 -0.0500
  161SAPE    HA18017   0.415   1.827   6.547 -0.6771 -0.1257 -1.4753
  161SAPE    HB18018   0.249   1.775   6.527 -1.2358 -2.1354 -0.6285
  161SAPE    C218019   0.310   1.776   6.736  0.3344  0.8566 -0.7684
  161SAPE    HS18020   0.253   1.871   6.749 -1.3518 -0.2628  0.4728
  161SAPE   O2118021   0.426   1.781   6.825  0.1143  0.1660 -0.4011
  161SAPE   C2118022   0.497   1.887   6.800 -0.4426 -0.1103  0.1684
  161SAPE   O2218023   0.466   1.981   6.726  0.1463 -0.0807  0.7488
  161SAPE   C2218024   0.626   1.882   6.886 -0.2192  0.2189  0.0820
  161SAPE   H2R18025   0.608   1.862   6.994 -3.9440  1.4076 -0.1752
  161SAPE   H2S18026   0.680   1.789   6.858  1.4423  1.3661 -0.6545
  161SAPE    C318027   0.205   1.680   6.783  0.3002 -0.2871 -0.0057
  161SAPE    HX18028   0.217   1.579   6.740 -0.7825 -0.4726  0.0822
  161SAPE    HY18029   0.107   1.719   6.747  0.8352  1.5368  0.4308
  161SAPE   O3118030   0.202   1.675   6.926  0.4945  0.3358  0.7352
  161SAPE   C3118031   0.244   1.566   6.979  1.1469 -0.6706  0.2495
  161SAPE   O3218032   0.270   1.458   6.929 -0.3398 -1.1486  0.0797
  161SAPE   C3218033   0.241   1.601   7.127  0.0514 -0.1961  0.2269
  161SAPE   H2X18034   0.150   1.662   7.149  1.8437  2.6222  0.3961
  161SAPE   H2Y18035   0.333   1.664   7.128  0.4043 -0.6902 -0.2691
  161SAPE   C2318036   0.719   2.000   6.855 -0.6065  0.4899  0.3014
  161SAPE   H3R18037   0.666   2.096   6.833 -1.2874  0.0141 -0.1825
  161SAPE   H3S18038   0.772   1.972   6.762 -1.4931  1.8068 -0.6412
  161SAPE   C2418039   0.811   2.037   6.972  0.0437 -0.8021 -0.5715
  161SAPE   H4R18040   0.884   2.108   6.927 -0.6333  0.6643  0.5855
  161SAPE   H4S18041   0.866   1.952   7.019  1.2404  1.1925  1.8474
  161SAPE   C2518042   0.737   2.109   7.088 -0.5105  0.2589 -0.4871
  161SAPE   H5R18043   0.636   2.143   7.063 -1.0802 -1.8126 -1.1834
  161SAPE   C2618044   0.785   2.122   7.211  0.1602  0.1025 -0.1044
  161SAPE   H6R18045   0.716   2.173   7.280 -0.8571  0.1701 -1.1572
  161SAPE   C2718046   0.918   2.068   7.260 -0.1435 -0.2157  0.2151
  161SAPE   H7R18047   0.996   2.031   7.190  1.5631 -0.1527  1.9744
  161SAPE   H7S18048   0.883   1.985   7.325  0.5598  0.2313  1.1976
  161SAPE   C2818049   0.986   2.187   7.325 -0.4889  0.4575 -0.8531
  161SAPE   H8R18050   1.013   2.268   7.256 -0.1017  1.7172  0.7124
  161SAPE   C2918051   1.024   2.204   7.458 -0.2809 -0.4620  0.5585
  161SAPE   H9R18052   1.078   2.296   7.486  0.0016 -0.1198 -1.0274
  161SAPE  C21018053   1.005   2.107   7.575  0.2536 -0.6687 -0.4890
  161SAPE  H10R18054   1.108   2.072   7.601 -0.0509 -0.2266  1.4438
  161SAPE  H10S18055   0.946   2.016   7.551 -0.1053 -0.0829 -1.9437
  161SAPE  C21118056   0.950   2.170   7.698 -0.7073  0.0679  0.2777
  161SAPE  H11R18057   0.857   2.226   7.679  0.4300  1.8367 -0.4251
  161SAPE  C21218058   1.007   2.177   7.819 -0.1913  0.4233 -0.2025
  161SAPE  H12R18059   0.945   2.226   7.895 -1.0964 -0.5726 -0.2792
  161SAPE  C21318060   1.141   2.121   7.866  0.4630  0.2269  0.0775
  161SAPE  H13R18061   1.193   2.205   7.916 -0.2395  1.5358 -1.2996
  161SAPE  H13S18062   1.204   2.092   7.779 -2.6072 -0.6289 -2.0222
  161SAPE  C21418063   1.118   2.000   7.948 -0.1226  0.6877 -0.1992
  161SAPE  H14R18064   1.069   1.915   7.899  0.9533 -1.4472  2.2439
  161SAPE  C21518065   1.145   1.988   8.078  0.3020 -0.3650  0.0144
  161SAPE  H15R18066   1.115   1.896   8.132  1.0140 -0.4998  0.1900
  161SAPE  C21618067   1.195   2.097   8.177  0.0990  0.4340 -0.2593
  161SAPE  H16R18068   1.190   2.202   8.143  2.6379  0.7775  0.2125
  161SAPE  H16S18069   1.305   2.088   8.195 -0.2136  0.4019  1.7626
  161SAPE  C21718070   1.121   2.072   8.313 -0.0368 -0.6704  0.1500
  161SAPE  H17R18071   1.171   2.133   8.392 -2.8454 -0.7894  2.1519
  161SAPE  H17S18072   1.122   1.964   8.338  0.6378 -0.9476 -0.9932
  161SAPE  C21818073   0.970   2.104   8.312  0.3219  0.4621 -0.5554
  161SAPE  H18R18074   0.938   2.106   8.206 -0.5905 -1.7761 -0.3742
  161SAPE  H18S18075   0.959   2.208   8.349  1.2424 -0.0653  1.3056
  161SAPE  C21918076   0.871   2.016   8.394  0.4961 -0.4988 -0.0933
  161SAPE  H19R18077   0.771   2.063   8.397  0.1925 -1.1577  2.4785
  161SAPE  H19S18078   0.907   2.023   8.499 -1.8047  0.8250  0.6839
  161SAPE  C22018079   0.858   1.871   8.347 -0.7639 -0.4176 -0.1620
  161SAPE  H20R18080   0.961   1.835   8.365 -0.2286  0.9039 -0.4054
  161SAPE  H20S18081   0.828   1.888   8.241 -2.3458  1.4048  0.5070
  161SAPE  H20T18082   0.783   1.812   8.404  0.2323 -0.6660  0.9423
  161SAPE   C3318083   0.267   1.480   7.221 -0.1879  0.5007  0.6128
  161SAPE   H3X18084   0.369   1.440   7.207  0.0149  0.0180  3.0089
  161SAPE   H3Y18085   0.218   1.381   7.203  0.7573  0.3234 -1.2058
  161SAPE   C3418086   0.262   1.528   7.364 -0.1328 -0.2913 -0.2183
  161SAPE   H4X18087   0.154   1.541   7.386 -0.9271 -1.2546 -3.1558
  161SAPE   H4Y18088   0.304   1.630   7.379  2.3221 -1.2832  0.2051
  161SAPE   C3518089   0.324   1.435   7.470  0.3701 -0.0003  0.4020
  161SAPE   H5X18090   0.427   1.409   7.437  0.7395  0.9651  0.7263
  161SAPE   H5Y18091   0.265   1.342   7.476  0.4316 -0.0746 -0.1080
  161SAPE   C3618092   0.329   1.504   7.605 -0.0722  0.2659  0.4154
  161SAPE   H6X18093   0.229   1.532   7.645  1.3615  2.8839  2.4974
  161SAPE   H6Y18094   0.382   1.601   7.595  0.8088 -0.3928 -2.0886
  161SAPE   C3718095   0.400   1.414   7.703  0.0733  0.4779  0.3991
  161SAPE   H7X18096   0.493   1.386   7.648 -0.8721  1.3209 -1.7297
  161SAPE   H7Y18097   0.332   1.330   7.730  1.2692 -0.3666  0.9081
  161SAPE   C3818098   0.429   1.469   7.846 -0.0518 -0.5005 -0.5726
  161SAPE   H8X18099   0.335   1.484   7.903  0.8956 -1.2807  1.2726
  161SAPE   H8Y18100   0.488   1.563   7.838 -0.0948 -0.1108  2.4006
  161SAPE   C3918101   0.512   1.368   7.928  0.1637  0.0505  0.3464
  161SAPE   H9X18102   0.621   1.393   7.929  0.3516 -0.6186  2.2465
  161SAPE   H9Y18103   0.496   1.265   7.889 -1.9289  1.4472 -2.8032
  161SAPE  C31018104   0.471   1.372   8.079  0.5526  0.4068 -0.0237
  161SAPE  H10X18105   0.367   1.341   8.106  0.9232  1.2714  2.6858
  161SAPE  H10Y18106   0.477   1.474   8.122 -0.2327  1.4813 -2.3147
  161SAPE  C31118107   0.554   1.271   8.164  0.1897  0.3195  0.2624
  161SAPE  H11X18108   0.662   1.294   8.151 -0.1892  2.4047  0.4278
  161SAPE  H11Y18109   0.542   1.173   8.113 -0.6289  1.5223 -2.0028
  161SAPE  C31218110   0.519   1.259   8.310 -0.0337 -0.5412 -0.5636
  161SAPE  H12X18111   0.409   1.253   8.327 -0.4226  2.6993 -1.2739
  161SAPE  H12Y18112   0.555   1.354   8.357  0.4955  0.1148 -2.2182
  161SAPE  C31318113   0.586   1.140   8.386 -0.4677 -1.1965 -0.4297
  161SAPE  H13X18114   0.674   1.187   8.434 -2.1392  2.2409 -0.4484
  161SAPE  H13Y18115   0.616   1.058   8.317  1.4150 -1.3399  0.4959
  161SAPE  C31418116   0.489   1.074   8.484  0.5891  0.9180 -0.3728
  161SAPE  H14X18117   0.413   1.024   8.421  0.3660  1.6933 -0.7311
  161SAPE  H14Y18118   0.439   1.142   8.556 -0.2677 -1.0476  0.9713
  161SAPE  C31518119   0.561   0.964   8.565  0.2727 -0.3830 -0.5801
  161SAPE  H15X18120   0.626   0.914   8.491  0.4779  0.8671 -1.2764
  161SAPE  H15Y18121   0.480   0.893   8.591 -0.1354 -0.8456 -2.8989
  161SAPE  C31618122   0.652   1.028   8.674 -0.2309  0.8517 -0.2239
  161SAPE  H16X18123   0.605   1.075   8.763  0.5886  1.9358 -0.3466
  161SAPE  H16Y18124   0.713   1.113   8.638 -0.0803  1.0877  0.5637
  161SAPE  C31718125   0.759   0.913   8.721  0.5662  0.3910  0.2763
  161SAPE  H17X18126   0.840   0.901   8.647 -0.3109 -1.0855 -0.5031
  161SAPE  H17Y18127   0.701   0.819   8.707 -0.2583  1.0888 -1.2306
  161SAPE  C31818128   0.815   0.930   8.863  0.2788  0.0842 -0.4192
  161SAPE  H18X18129   0.863   0.836   8.897  1.3653  1.1997  1.2590
  161SAPE  H18Y18130   0.729   0.942   8.931 -0.2636 -0.2317 -1.0438
  161SAPE  H18Z18131   0.871   1.026   8.868  1.4907 -0.6510  0.9004
  162SAPE     N18132   5.493   4.746   5.733 -0.1200 -0.1718  0.0958
  162SAPE   HN118133   5.587   4.771   5.768 -0.8639 -1.6819  3.6326
  162SAPE   HN218134   5.493   4.669   5.663  0.0003  1.2118 -1.4802
  162SAPE   HN318135   5.462   4.829   5.679 -0.1189 -2.0309 -3.0231
  162SAPE   C1218136   5.399   4.729   5.844  0.5096 -0.0143  1.1613
  162SAPE  H12A18137   5.307   4.685   5.799  0.7557  0.0565  0.5818
  162SAPE  H12B18138   5.372   4.824   5.894 -1.4067  1.3528 -2.1149
  162SAPE   C1118139   5.467   4.637   5.942  0.4804 -0.2164 -0.1827
  162SAPE  H11A18140   5.561   4.682   5.978 -0.4151 -0.6760  3.0105
  162SAPE  H11B18141   5.499   4.538   5.901 -0.2356 -1.2659  1.6836
  162SAPE     P18142   5.371   4.683   6.200 -0.5149  0.0783  0.4467
  162SAPE   O1318143   5.319   4.597   6.304 -0.2792  0.2911  0.8482
  162SAPE   O1418144   5.508   4.731   6.224 -0.2559 -0.4721 -0.1076
  162SAPE   O1218145   5.385   4.598   6.060  0.3072  0.5764 -0.3208
  162SAPE   O1118146   5.272   4.797   6.157 -0.5425  0.6055  0.4142
  162SAPE    C118147   5.293   4.938   6.206  0.3668  0.4951 -0.3418
  162SAPE    HA18148   5.398   4.972   6.200  0.8551 -0.9439 -0.4701
  162SAPE    HB18149   5.224   5.004   6.149  2.0672  0.6786 -2.2956
  162SAPE    C218150   5.234   4.953   6.350 -0.8135 -0.2661 -1.2086
  162SAPE    HS18151   5.232   5.063   6.365 -2.5532 -0.5452  1.3350
  162SAPE   O2118152   5.313   4.884   6.450  0.0947  0.1227 -0.4479
  162SAPE   C2118153   5.432   4.952   6.474  0.4700  0.2845  0.1448
  162SAPE   O2218154   5.458   5.068   6.446  0.5234 -0.3274 -0.2122
  162SAPE   C2218155   5.530   4.859   6.549 -0.2167  0.6360 -0.0755
  162SAPE   H2R18156   5.490   4.758   6.573  1.5512  0.1595  0.9877
  162SAPE   H2S18157   5.618   4.851   6.482 -0.0253 -1.1443  0.3683
  162SAPE    C318158   5.092   4.897   6.354  0.1238  0.2860 -0.5881
  162SAPE    HX18159   5.098   4.787   6.369  0.4999  0.2266 -1.1263
  162SAPE    HY18160   5.034   4.912   6.260 -0.9365 -0.3452 -0.0476
  162SAPE   O3118161   5.026   4.938   6.477 -0.3535  0.1166  0.0821
  162SAPE   C3118162   4.963   5.053   6.474 -0.5821 -0.5012 -0.0343
  162SAPE   O3218163   4.954   5.124   6.375  0.4554 -0.6550  0.3914
  162SAPE   C3218164   4.878   5.072   6.601 -0.5618  0.5706 -0.4042
  162SAPE   H2X18165   4.947   5.074   6.688  0.6788  0.4614 -1.3570
  162SAPE   H2Y18166   4.801   4.993   6.606 -0.7377  0.5570 -2.5360
  162SAPE   C2318167   5.567   4.929   6.681 -0.5254  0.2611 -0.0826
  162SAPE   H3R18168   5.475   4.933   6.742 -1.2163 -3.2115 -0.6921
  162SAPE   H3S18169   5.599   5.034   6.662  1.0906 -0.1730  0.0726
  162SAPE   C2418170   5.679   4.864   6.764  0.6378  0.1247  0.5822
  162SAPE   H4R18171   5.674   4.921   6.859 -1.0338  0.4593  0.3236
  162SAPE   H4S18172   5.776   4.895   6.719  1.4000 -0.1484  1.9935
  162SAPE   C2518173   5.679   4.716   6.791 -0.5454 -0.5726 -0.0195
  162SAPE   H5R18174   5.708   4.650   6.708 -2.9062 -0.7909 -0.7332
  162SAPE   C2618175   5.661   4.667   6.911 -0.1596  0.1808 -0.8485
  162SAPE   H6R18176   5.664   4.561   6.939  1.2314  0.9952  2.7170
  162SAPE   C2718177   5.651   4.748   7.041 -0.2205 -0.5959 -0.3200
  162SAPE   H7R18178   5.572   4.709   7.108 -1.5694 -2.0802 -2.6529
  162SAPE   H7S18179   5.598   4.843   7.017 -2.1078 -1.5056  0.1304
  162SAPE   C2818180   5.782   4.784   7.112  0.0890  0.0892  0.0619
  162SAPE   H8R18181   5.868   4.818   7.052 -0.2968 -0.3548 -0.7582
  162SAPE   C2918182   5.813   4.761   7.244  0.3725 -0.2445 -0.7264
  162SAPE   H9R18183   5.911   4.790   7.284 -0.8216 -0.2460  2.4459
  162SAPE  C21018184   5.717   4.709   7.355  0.2200  0.2964  0.0742
  162SAPE  H10R18185   5.617   4.702   7.306  0.5776  1.7566 -0.9374
  162SAPE  H10S18186   5.701   4.783   7.436  1.9714  0.2848  0.4497
  162SAPE  C21118187   5.761   4.575   7.415 -0.1639  0.4542 -0.1287
  162SAPE  H11R18188   5.750   4.486   7.351  0.6195 -0.5789  1.1295
  162SAPE  C21218189   5.780   4.555   7.544  0.3913  0.0667  0.5104
  162SAPE  H12R18190   5.791   4.450   7.575 -3.3324 -0.8965 -0.8642
  162SAPE  C21318191   5.779   4.659   7.654 -0.3514 -0.2644 -0.0493
  162SAPE  H13R18192   5.802   4.761   7.618 -2.5023  0.7820  1.3840
  162SAPE  H13S18193   5.868   4.641   7.718 -0.5496 -0.3744  0.1950
  162SAPE  C21418194   5.658   4.671   7.741  0.0660 -0.1675  0.8482
  162SAPE  H14R18195   5.559   4.658   7.696  0.8085  0.3987 -1.0343
  162SAPE  C21518196   5.660   4.675   7.873 -0.8266  0.1294  0.0673
  162SAPE  H15R18197   5.563   4.687   7.923 -1.0233  2.6610 -0.7395
  162SAPE  C21618198   5.773   4.681   7.972 -0.1887  0.3007 -0.5819
  162SAPE  H16R18199   5.774   4.787   8.005  0.5596  0.4182 -0.9603
  162SAPE  H16S18200   5.870   4.642   7.935  0.7724  1.5275  0.5103
  162SAPE  C21718201   5.748   4.596   8.099 -0.2280 -0.3132 -0.6175
  162SAPE  H17R18202   5.844   4.596   8.156  0.7319  3.3919 -1.8985
  162SAPE  H17S18203   5.718   4.496   8.062 -1.7046  0.4617 -1.6113
  162SAPE  C21818204   5.633   4.651   8.187 -0.3982 -0.4243 -0.3176
  162SAPE  H18R18205   5.539   4.648   8.128 -1.3750 -1.5370  1.2332
  162SAPE  H18S18206   5.657   4.759   8.205  0.5921 -0.8605  1.1902
  162SAPE  C21918207   5.621   4.582   8.326  0.1033  1.3147  0.4852
  162SAPE  H19R18208   5.527   4.620   8.370  0.4728  0.7253  1.8494
  162SAPE  H19S18209   5.696   4.633   8.391  0.8864  0.2451  0.4485
  162SAPE  C22018210   5.641   4.427   8.326  0.1956  0.4055  0.1524
  162SAPE  H20R18211   5.748   4.407   8.307  0.8124  3.7445 -0.3765
  162SAPE  H20S18212   5.583   4.389   8.238  0.6408  1.4343 -0.6022
  162SAPE  H20T18213   5.607   4.380   8.421  0.5813  0.0168  0.1013
  162SAPE   C3318214   4.798   5.202   6.618 -0.4153 -0.3887  0.5081
  162SAPE   H3X18215   4.717   5.191   6.693 -0.4309  1.7081  0.8639
  162SAPE   H3Y18216   4.742   5.225   6.524  0.6998 -1.3602 -0.4178
  162SAPE   C3418217   4.891   5.324   6.629  0.3987 -0.7743 -0.3911
  162SAPE   H4X18218   4.938   5.345   6.531 -0.2757 -0.8466 -0.7400
  162SAPE   H4Y18219   4.974   5.304   6.699  0.9753  1.7968 -0.2483
  162SAPE   C3518220   4.820   5.452   6.669  0.5099  0.5551  0.0503
  162SAPE   H5X18221   4.740   5.476   6.596  1.3097  1.8578 -0.4113
  162SAPE   H5Y18222   4.891   5.537   6.670  1.3172 -0.1028 -0.2968
  162SAPE   C3618223   4.769   5.440   6.817 -0.6787  0.8544  0.7195
  162SAPE   H6X18224   4.689   5.366   6.836  1.4000 -1.7189  0.0676
  162SAPE   H6Y18225   4.718   5.538   6.826  1.9709  2.4988 -0.6987
  162SAPE   C3718226   4.884   5.426   6.916  0.6414  0.6644  0.2298
  162SAPE   H7X18227   4.972   5.492   6.900  1.0777 -0.4980 -2.6872
  162SAPE   H7Y18228   4.930   5.326   6.899  1.8493  1.0798  0.8792
  162SAPE   C3818229   4.840   5.423   7.067  0.0213 -0.1739 -0.5248
  162SAPE   H8X18230   4.922   5.371   7.120 -2.2749 -3.6159 -0.0283
  162SAPE   H8Y18231   4.743   5.368   7.074 -0.0109 -0.1681 -0.8954
  162SAPE   C3918232   4.826   5.562   7.125  0.5819 -0.1015 -0.2544
  162SAPE   H9X18233   4.740   5.608   7.071  1.9390  0.7971 -1.7502
  162SAPE   H9Y18234   4.911   5.633   7.116  1.2682 -0.5724  1.9085
  162SAPE  C31018235   4.807   5.564   7.281 -0.1178 -0.8906 -0.1319
  162SAPE  H10X18236   4.754   5.472   7.315  1.2619 -1.6194  0.0882
  162SAPE  H10Y18237   4.751   5.653   7.317 -0.0011 -0.6999 -0.4194
  162SAPE  C31118238   4.939   5.568   7.368  0.2611  0.0036 -0.8608
  162SAPE  H11X18239   4.991   5.665   7.350 -0.0869  0.8435  2.1741
  162SAPE  H11Y18240   4.993   5.486   7.316 -0.5192 -0.5536 -0.7967
  162SAPE  C31218241   4.911   5.534   7.514  0.1091 -0.0805  0.0244
  162SAPE  H12X18242   4.875   5.428   7.516  1.8831 -0.7040  0.1202
  162SAPE  H12Y18243   4.829   5.600   7.549 -0.5653 -1.0514  0.3318
  162SAPE  C31318244   5.042   5.549   7.587  0.7628  0.0856 -0.1567
  162SAPE  H13X18245   5.080   5.653   7.583 -0.1440  0.4322  0.0390
  162SAPE  H13Y18246   5.124   5.517   7.520  0.8703  0.5141 -0.2263
  162SAPE  C31418247   5.062   5.487   7.723 -0.3122  0.2548  0.2336
  162SAPE  H14X18248   5.052   5.376   7.723  2.4056 -0.0781 -1.0639
  162SAPE  H14Y18249   4.970   5.508   7.781 -1.8061 -0.8614 -1.6024
  162SAPE  C31518250   5.197   5.527   7.796 -0.0015  0.6657 -0.4354
  162SAPE  H15X18251   5.282   5.503   7.728 -0.0743 -0.7700 -0.0581
  162SAPE  H15Y18252   5.197   5.455   7.881 -3.7269 -0.7585 -1.4187
  162SAPE  C31618253   5.214   5.670   7.851 -0.4133 -0.6817 -0.0241
  162SAPE  H16X18254   5.232   5.678   7.960  2.3496  1.1089 -0.5159
  162SAPE  H16Y18255   5.119   5.724   7.831  0.5994  1.8826  1.5784
  162SAPE  C31718256   5.331   5.745   7.778 -0.1944  0.5844 -0.3679
  162SAPE  H17X18257   5.308   5.852   7.764 -0.0748  0.4486 -1.7070
  162SAPE  H17Y18258   5.345   5.710   7.673 -0.2948  0.7645 -0.4423
  162SAPE  C31818259   5.467   5.714   7.841  0.0580 -0.7738 -0.7431
  162SAPE  H18X18260   5.485   5.771   7.934 -1.4866 -1.1790 -0.1669
  162SAPE  H18Y18261   5.545   5.743   7.767  1.0251  2.2319  1.2722
  162SAPE  H18Z18262   5.480   5.605   7.860  0.3115 -0.4445  1.1575
  163SAPE     N18263   4.815   2.219   6.631 -0.6276 -0.3096  0.2000
  163SAPE   HN118264   4.905   2.252   6.669  1.7199 -2.4388 -3.0235
  163SAPE   HN218265   4.854   2.143   6.572  3.0746  1.3651  0.2278
  163SAPE   HN318266   4.769   2.285   6.565 -0.6468 -0.6859 -0.1675
  163SAPE   C1218267   4.713   2.176   6.739 -0.3915 -0.6302  0.1594
  163SAPE  H12A18268   4.757   2.091   6.796  0.1834 -1.2001 -1.0977
  163SAPE  H12B18269   4.617   2.154   6.688 -0.9741 -0.1273  1.0090
  163SAPE   C1118270   4.688   2.288   6.842  0.3927 -0.3179  0.2491
  163SAPE  H11A18271   4.785   2.315   6.888 -0.2836  0.2570  1.3856
  163SAPE  H11B18272   4.631   2.238   6.924 -1.3591  0.0274 -0.7029
  163SAPE     P18273   4.480   2.442   6.792  0.0432 -0.0297 -0.0317
  163SAPE   O1318274   4.470   2.573   6.722 -0.1904 -0.6965  0.2081
  163SAPE   O1418275   4.402   2.333   6.724 -0.6724 -0.0676 -0.1262
  163SAPE   O1218276   4.628   2.414   6.802 -0.3156  0.2169 -0.1458
  163SAPE   O1118277   4.433   2.459   6.944 -0.2392 -0.1486 -0.4416
  163SAPE    C118278   4.476   2.573   7.024 -1.2590  0.1937 -0.0066
  163SAPE    HA18279   4.544   2.643   6.971  0.3975  0.0034  1.7278
  163SAPE    HB18280   4.392   2.635   7.061 -1.0524  1.1126 -1.0065
  163SAPE    C218281   4.584   2.528   7.136  0.7164  0.3343 -0.4242
  163SAPE    HS18282   4.668   2.478   7.084 -0.0462 -1.3628 -0.0888
  163SAPE   O2118283   4.513   2.440   7.228  0.2011  0.0452 -0.6242
  163SAPE   C2118284   4.586   2.333   7.266  0.0859 -0.3159 -0.4875
  163SAPE   O2218285   4.704   2.316   7.241 -0.2184 -0.3110  0.0568
  163SAPE   C2218286   4.490   2.230   7.322  0.0330  0.9430 -1.3369
  163SAPE   H2R18287   4.420   2.210   7.238  0.2446 -0.2041 -1.2554
  163SAPE   H2S18288   4.559   2.146   7.343 -0.9670  0.4926  0.3379
  163SAPE    C318289   4.639   2.658   7.204 -1.2219 -0.2426 -0.4921
  163SAPE    HX18290   4.557   2.716   7.252  0.1008  0.1135  1.4475
  163SAPE    HY18291   4.687   2.716   7.122 -0.4654  2.3693  1.6518
  163SAPE   O3118292   4.731   2.631   7.311 -0.2724  0.1145  0.1731
  163SAPE   C3118293   4.852   2.584   7.282  0.4100 -0.5844  0.6289
  163SAPE   O3218294   4.894   2.558   7.167 -0.3692 -0.8703 -0.4776
  163SAPE   C3218295   4.907   2.541   7.414 -0.4020 -0.0461  0.2836
  163SAPE   H2X18296   4.826   2.517   7.487 -1.8105 -0.1576 -1.2472
  163SAPE   H2Y18297   4.976   2.622   7.447  0.6471 -0.4590 -0.8273
  163SAPE   C2318298   4.413   2.272   7.456  0.0169  0.7250  0.5595
  163SAPE   H3R18299   4.353   2.186   7.494 -2.8808  2.3523 -0.0401
  163SAPE   H3S18300   4.345   2.356   7.431  0.2172  0.6994 -0.1034
  163SAPE   C2418301   4.507   2.303   7.571  0.1425 -0.8305 -1.2313
  163SAPE   H4R18302   4.432   2.330   7.649  1.8095 -1.7362  0.7717
  163SAPE   H4S18303   4.569   2.393   7.552 -1.9079  0.5378 -1.8569
  163SAPE   C2518304   4.592   2.192   7.622 -0.0777 -0.7526  0.4631
  163SAPE   H5R18305   4.660   2.159   7.543 -2.2427  1.7303 -2.7377
  163SAPE   C2618306   4.596   2.122   7.737  0.1950  0.3408 -0.0144
  163SAPE   H6R18307   4.669   2.043   7.757  0.8457  0.7794 -0.6078
  163SAPE   C2718308   4.498   2.146   7.845 -0.8796 -0.0410 -0.0905
  163SAPE   H7R18309   4.480   2.042   7.879  2.0162 -1.0479 -1.3085
  163SAPE   H7S18310   4.403   2.191   7.808  0.3391  2.0897 -0.8139
  163SAPE   C2818311   4.555   2.226   7.963 -0.6306 -0.2320 -0.3442
  163SAPE   H8R18312   4.662   2.252   7.963 -0.4851 -0.8183 -0.3833
  163SAPE   C2918313   4.481   2.262   8.075 -0.4819 -0.3583  0.0502
  163SAPE   H9R18314   4.524   2.320   8.158  0.8208 -1.7008  0.3790
  163SAPE  C21018315   4.335   2.220   8.098  0.1600 -0.1710  0.6938
  163SAPE  H10R18316   4.327   2.114   8.129  1.7164 -0.0690  1.5234
  163SAPE  H10S18317   4.279   2.220   8.002 -0.0788 -2.0708  0.8053
  163SAPE  C21118318   4.251   2.312   8.189 -0.9570 -0.1480  0.2744
  163SAPE  H11R18319   4.193   2.387   8.133  0.4246  1.0896  0.4443
  163SAPE  C21218320   4.267   2.315   8.327  0.0339 -0.8262  0.2584
  163SAPE  H12R18321   4.203   2.378   8.390  2.0479  0.6731  0.8932
  163SAPE  C21318322   4.361   2.232   8.405  0.7919  0.6271  0.1427
  163SAPE  H13R18323   4.408   2.154   8.340 -0.9195  0.9667 -1.5718
  163SAPE  H13S18324   4.318   2.163   8.481 -0.1781  0.8194 -0.2239
  163SAPE  C21418325   4.487   2.306   8.453  0.2097 -0.2654 -0.5839
  163SAPE  H14R18326   4.550   2.354   8.375  1.0819  0.9355  0.8034
  163SAPE  C21518327   4.518   2.342   8.579 -0.0732 -0.2487 -0.8857
  163SAPE  H15R18328   4.605   2.406   8.602 -0.0889 -0.5885  0.1875
  163SAPE  C21618329   4.447   2.312   8.714 -0.4357  0.4221 -0.0333
  163SAPE  H16R18330   4.525   2.262   8.775  0.4767 -0.0230 -1.5209
  163SAPE  H16S18331   4.381   2.223   8.703 -0.3995  0.1207  1.8167
  163SAPE  C21718332   4.375   2.422   8.791 -0.5635  0.0594  0.1447
  163SAPE  H17R18333   4.303   2.478   8.727  1.0633 -0.8825 -2.7123
  163SAPE  H17S18334   4.458   2.490   8.820  0.6377 -0.9866 -0.7259
  163SAPE  C21818335   4.293   2.366   8.908  0.3756  1.0571 -0.2128
  163SAPE  H18R18336   4.344   2.277   8.950 -2.1060  0.0607  0.9129
  163SAPE  H18S18337   4.200   2.322   8.865  2.2296 -2.2068 -1.2172
  163SAPE  C21918338   4.275   2.458   9.029  0.2896 -0.1658  0.4477
  163SAPE  H19R18339   4.178   2.431   9.077  0.7538  1.0765  2.1716
  163SAPE  H19S18340   4.276   2.563   8.995 -0.4124 -0.8589 -1.9038
  163SAPE  C22018341   4.376   2.449   9.141  0.0102  0.1403 -0.1097
  163SAPE  H20R18342   4.479   2.452   9.100 -0.2065 -1.3205 -0.8214
  163SAPE  H20S18343   4.362   2.351   9.191 -0.0481  0.3204  0.2304
  163SAPE  H20T18344   4.369   2.530   9.218  0.0659  0.7504 -0.7367
  163SAPE   C3318345   4.994   2.419   7.400 -0.1844 -0.4971 -0.9400
  163SAPE   H3X18346   5.092   2.460   7.366  0.0996  0.4036  0.8448
  163SAPE   H3Y18347   4.964   2.349   7.319  0.7196  0.1827 -1.8880
  163SAPE   C3418348   5.000   2.339   7.526  0.0376 -0.1103  1.0061
  163SAPE   H4X18349   5.048   2.239   7.514 -2.7129 -1.3744 -0.3622
  163SAPE   H4Y18350   4.896   2.303   7.537  0.6822 -3.4828 -1.9239
  163SAPE   C3518351   5.057   2.400   7.654  0.2597 -0.0085 -0.1548
  163SAPE   H5X18352   4.999   2.492   7.680 -1.9303 -0.6975 -2.2476
  163SAPE   H5Y18353   5.155   2.443   7.626  0.1227  0.0582 -0.5399
  163SAPE   C3618354   5.063   2.300   7.768  0.2592  0.3910  0.2125
  163SAPE   H6X18355   5.115   2.209   7.732 -1.5717 -0.5630 -0.1368
  163SAPE   H6Y18356   4.957   2.274   7.791  0.2845 -0.6047 -0.7183
  163SAPE   C3718357   5.133   2.357   7.888 -0.2501 -0.1073  0.7753
  163SAPE   H7X18358   5.077   2.445   7.925  1.2153  1.7749 -1.2948
  163SAPE   H7Y18359   5.233   2.393   7.856  0.4736 -2.8881 -0.4862
  163SAPE   C3818360   5.140   2.259   7.996  0.8038 -0.8867  0.6395
  163SAPE   H8X18361   5.174   2.158   7.967 -2.3735 -1.0897 -3.2451
  163SAPE   H8Y18362   5.037   2.244   8.037 -1.0600  2.2946 -2.3454
  163SAPE   C3918363   5.206   2.315   8.127 -0.0156  0.2052  0.5390
  163SAPE   H9X18364   5.158   2.414   8.143 -0.4856  0.3960 -1.7391
  163SAPE   H9Y18365   5.315   2.322   8.108 -0.0533  0.3772  0.3773
  163SAPE  C31018366   5.178   2.234   8.256  0.0589 -0.4600  0.0417
  163SAPE  H10X18367   5.222   2.292   8.340  0.7197 -0.2072 -0.4732
  163SAPE  H10Y18368   5.228   2.135   8.258 -2.5060 -1.8270  0.8163
  163SAPE  C31118369   5.031   2.208   8.289 -0.4507 -0.1748 -1.1618
  163SAPE  H11X18370   4.972   2.160   8.208 -1.3362 -1.8225  0.3860
  163SAPE  H11Y18371   4.986   2.307   8.309  2.0248  0.9295 -0.6199
  163SAPE  C31218372   5.016   2.121   8.416  0.0455  0.5934  0.6169
  163SAPE  H12X18373   5.058   2.176   8.503  0.9926 -1.3056  1.4110
  163SAPE  H12Y18374   5.072   2.026   8.405 -0.7147  0.2162 -0.0307
  163SAPE  C31318375   4.875   2.064   8.441  0.2650  0.5751 -0.6024
  163SAPE  H13X18376   4.818   2.034   8.351  1.5967  0.0459 -1.3043
  163SAPE  H13Y18377   4.816   2.152   8.475  0.0240  0.4808 -0.7717
  163SAPE  C31418378   4.851   1.959   8.552  0.0735 -0.3459 -0.4527
  163SAPE  H14X18379   4.892   1.998   8.648  0.5268 -1.0952 -0.3336
  163SAPE  H14Y18380   4.916   1.874   8.521  1.6282  1.2628 -1.7861
  163SAPE  C31518381   4.703   1.923   8.559 -0.3180 -0.2455 -0.3500
  163SAPE  H15X18382   4.689   1.835   8.492 -1.1171 -0.2276 -0.2238
  163SAPE  H15Y18383   4.635   2.006   8.528 -1.3686 -0.9404  0.0315
  163SAPE  C31618384   4.650   1.888   8.698 -0.8540 -0.8016  0.0843
  163SAPE  H16X18385   4.619   1.988   8.736 -0.6325 -1.2928  1.6252
  163SAPE  H16Y18386   4.737   1.852   8.755 -0.3228 -0.1569 -0.3057
  163SAPE  C31718387   4.535   1.785   8.701 -0.6783  0.4160 -0.4975
  163SAPE  H17X18388   4.572   1.688   8.661 -0.1403 -0.0565  1.0818
  163SAPE  H17Y18389   4.451   1.823   8.638 -1.4185  1.7857  1.2338
  163SAPE  C31818390   4.486   1.752   8.833  0.1868  0.3009 -1.7808
  163SAPE  H18X18391   4.415   1.826   8.876 -0.3797 -1.9143  1.3963
  163SAPE  H18Y18392   4.573   1.741   8.900 -1.6318 -2.3321  0.3679
  163SAPE  H18Z18393   4.419   1.663   8.841 -0.4988  0.9121 -0.2852
  164SAPE     N18394   6.596   6.220   5.928 -0.1880 -0.8952  0.5163
  164SAPE   HN118395   6.633   6.128   5.958  2.1373  0.0693  0.7727
  164SAPE   HN218396   6.494   6.201   5.926  0.1476 -2.8130  0.0924
  164SAPE   HN318397   6.624   6.245   5.831  2.1031  4.3903  2.1604
  164SAPE   C1218398   6.618   6.335   6.026 -0.0456 -0.0951 -0.2493
  164SAPE  H12A18399   6.606   6.289   6.127 -1.0968 -0.6914 -0.6240
  164SAPE  H12B18400   6.531   6.404   6.015 -0.7082 -0.7257  0.7855
  164SAPE   C1118401   6.766   6.380   6.011 -0.3492  0.0377  0.1404
  164SAPE  H11A18402   6.775   6.447   5.922 -0.3888  0.7260  0.6461
  164SAPE  H11B18403   6.836   6.295   5.999  1.3517  1.4623 -0.4824
  164SAPE     P18404   6.789   6.612   6.133  0.3158  0.0337 -0.1343
  164SAPE   O1318405   6.917   6.671   6.092  0.6832  0.3874 -0.3785
  164SAPE   O1418406   6.667   6.656   6.060 -0.1504  0.1374 -0.5840
  164SAPE   O1218407   6.801   6.457   6.129 -0.1267  0.0898  0.3576
  164SAPE   O1118408   6.769   6.645   6.284  0.9549  0.6630 -0.3619
  164SAPE    C118409   6.690   6.560   6.369  0.0100 -0.5365 -0.1338
  164SAPE    HA18410   6.583   6.587   6.354  0.6723  0.7752 -3.6050
  164SAPE    HB18411   6.687   6.452   6.345 -0.0549 -0.3088 -1.2200
  164SAPE    C218412   6.727   6.560   6.517  0.0264 -0.2399 -0.1927
  164SAPE    HS18413   6.782   6.656   6.527 -1.5169  0.5184  1.8115
  164SAPE   O2118414   6.811   6.448   6.558 -0.4434 -0.3499  0.0165
  164SAPE   C2118415   6.938   6.476   6.561  0.1494 -1.1091 -0.5197
  164SAPE   O2218416   6.992   6.581   6.520 -0.1500 -0.3960 -0.2900
  164SAPE   C2218417   7.006   6.370   6.645 -0.7491 -0.0084 -0.2834
  164SAPE   H2R18418   7.008   6.400   6.752  0.7209 -1.9275  0.2756
  164SAPE   H2S18419   6.951   6.273   6.640 -0.3563 -0.1927 -1.0990
  164SAPE    C318420   6.603   6.576   6.603 -0.1326  0.4057 -0.0318
  164SAPE    HX18421   6.511   6.523   6.572 -2.6067  2.6939  2.8381
  164SAPE    HY18422   6.568   6.681   6.601  2.1592  1.2778  1.3215
  164SAPE   O3118423   6.636   6.549   6.740 -0.8710 -0.3713  0.2887
  164SAPE   C3118424   6.601   6.437   6.788  0.2249  0.2864  0.0761
  164SAPE   O3218425   6.567   6.335   6.726  0.3905  0.5065 -0.6100
  164SAPE   C3218426   6.633   6.451   6.935 -0.5094 -0.1352  0.4977
  164SAPE   H2X18427   6.541   6.422   6.992 -2.4494  0.6584 -2.0378
  164SAPE   H2Y18428   6.657   6.556   6.960 -0.0311 -0.0934 -0.1419
  164SAPE   C2318429   7.149   6.343   6.595 -0.0387  0.0813  0.9588
  164SAPE   H3R18430   7.208   6.437   6.600  1.4303 -0.6324 -1.6357
  164SAPE   H3S18431   7.151   6.306   6.491 -2.2661 -0.1447  0.9470
  164SAPE   C2418432   7.219   6.247   6.684  0.4990  0.3801  0.0067
  164SAPE   H4R18433   7.234   6.276   6.791  1.7792 -2.7517  0.7623
  164SAPE   H4S18434   7.320   6.237   6.639  0.1849  0.6757 -0.7783
  164SAPE   C2518435   7.163   6.108   6.683 -0.1578  0.1697  0.8525
  164SAPE   H5R18436   7.166   6.053   6.588 -0.2578 -0.9092  1.4513
  164SAPE   C2618437   7.115   6.039   6.792 -0.0035 -0.5163 -0.6310
  164SAPE   H6R18438   7.072   5.939   6.781  0.1860 -0.5720 -0.8638
  164SAPE   C2718439   7.114   6.113   6.930 -0.1726 -0.4322 -0.6930
  164SAPE   H7R18440   7.031   6.081   6.998  0.0771  2.2848  1.0451
  164SAPE   H7S18441   7.112   6.224   6.934  2.1752 -0.3539  1.5276
  164SAPE   C2818442   7.247   6.091   6.995 -0.5982 -0.5967 -0.4825
  164SAPE   H8R18443   7.326   6.162   6.965 -0.3019 -0.0346  1.4701
  164SAPE   C2918444   7.280   6.010   7.094  0.7772 -0.5038 -0.1644
  164SAPE   H9R18445   7.387   6.003   7.121  1.0106 -4.4172 -1.4624
  164SAPE  C21018446   7.183   5.910   7.158 -0.4024  0.8597  0.4539
  164SAPE  H10R18447   7.239   5.814   7.170  0.5101  1.2760 -0.3394
  164SAPE  H10S18448   7.099   5.888   7.089 -1.9014  0.8872  2.2265
  164SAPE  C21118449   7.114   5.960   7.279 -0.3207  0.0805 -0.8166
  164SAPE  H11R18450   7.043   6.039   7.250  0.7439  1.3687 -0.0310
  164SAPE  C21218451   7.137   5.918   7.408  0.1021 -0.4888  0.0073
  164SAPE  H12R18452   7.070   5.959   7.485 -0.4730  1.8843 -1.6558
  164SAPE  C21318453   7.237   5.809   7.449  0.9893  0.0969 -0.5261
  164SAPE  H13R18454   7.340   5.852   7.444  0.6956  0.6877 -2.0380
  164SAPE  H13S18455   7.242   5.733   7.368  2.2170  1.6408 -1.9549
  164SAPE  C21418456   7.184   5.737   7.570  0.2932 -0.5635 -0.1767
  164SAPE  H14R18457   7.075   5.738   7.584 -0.2217 -0.2925 -3.4763
  164SAPE  C21518458   7.263   5.692   7.671  0.2162  0.0850 -0.1847
  164SAPE  H15R18459   7.224   5.639   7.759 -0.2565 -0.6700 -0.8413
  164SAPE  C21618460   7.419   5.692   7.693  1.1243 -0.1677  0.0676
  164SAPE  H16R18461   7.452   5.798   7.708  1.3491  0.0519 -1.7291
  164SAPE  H16S18462   7.468   5.655   7.600 -0.2781  0.9838 -1.1874
  164SAPE  C21718463   7.447   5.627   7.825  0.2287  0.1309  0.8156
  164SAPE  H17R18464   7.424   5.521   7.803 -0.8702  0.6043 -0.4180
  164SAPE  H17S18465   7.392   5.670   7.911 -0.8035 -1.2469  0.8713
  164SAPE  C21818466   7.598   5.628   7.864 -0.2558 -0.5625 -0.0376
  164SAPE  H18R18467   7.627   5.734   7.849 -1.5055 -0.0283  1.0885
  164SAPE  H18S18468   7.661   5.555   7.809  0.3147 -0.7189  0.8036
  164SAPE  C21918469   7.627   5.603   8.012 -0.3374  0.6611 -0.0178
  164SAPE  H19R18470   7.586   5.502   8.036  1.4302  0.3471  2.0358
  164SAPE  H19S18471   7.562   5.670   8.072  0.1240  1.4648 -0.3945
  164SAPE  C22018472   7.779   5.636   8.060  0.2283 -0.0314  0.4088
  164SAPE  H20R18473   7.794   5.745   8.050 -2.8795  0.7295  2.6395
  164SAPE  H20S18474   7.846   5.568   8.003  0.1160  1.1297 -1.1726
  164SAPE  H20T18475   7.789   5.612   8.168 -1.4790  1.8353  1.0224
  164SAPE   C3318476   6.733   6.345   6.995 -0.1358 -0.3758 -0.6017
  164SAPE   H3X18477   6.826   6.327   6.937  0.8859 -3.1977  1.6232
  164SAPE   H3Y18478   6.671   6.253   7.003 -0.1075 -0.3334  0.1622
  164SAPE   C3418479   6.776   6.388   7.140 -0.4042  0.1190  1.0450
  164SAPE   H4X18480   6.684   6.413   7.198 -0.9310  0.8944 -0.0872
  164SAPE   H4Y18481   6.840   6.478   7.127 -0.4290  0.0262  0.2294
  164SAPE   C3518482   6.860   6.289   7.223 -0.3189 -0.1343 -0.3737
  164SAPE   H5X18483   6.965   6.305   7.190  0.4816  0.5217  2.2884
  164SAPE   H5Y18484   6.832   6.184   7.199  1.7118 -0.3537 -2.0866
  164SAPE   C3618485   6.863   6.325   7.368 -0.0396  0.5134  0.2212
  164SAPE   H6X18486   6.765   6.292   7.409 -0.0956  1.0292  0.4993
  164SAPE   H6Y18487   6.871   6.434   7.386 -0.5368  0.1762  2.7976
  164SAPE   C3718488   6.973   6.253   7.437  0.5384 -0.2811  0.9092
  164SAPE   H7X18489   7.069   6.293   7.399  1.8564 -4.0588 -0.1165
  164SAPE   H7Y18490   6.956   6.145   7.418  0.6308 -0.3835  1.4115
  164SAPE   C3818491   6.981   6.264   7.588  0.4130 -0.7378 -0.2974
  164SAPE   H8X18492   6.893   6.215   7.636  1.2242 -1.4396  0.5044
  164SAPE   H8Y18493   6.969   6.373   7.609 -1.1429 -0.4983 -2.2157
  164SAPE   C3918494   7.108   6.205   7.652  0.2679 -0.5118 -0.2216
  164SAPE   H9X18495   7.195   6.248   7.598 -0.2865  1.4318  0.3287
  164SAPE   H9Y18496   7.107   6.095   7.638  0.3398 -0.2670 -2.4686
  164SAPE  C31018497   7.129   6.247   7.803  0.3312  0.4215  0.0531
  164SAPE  H10X18498   7.035   6.221   7.856  1.0253  0.0671  1.1540
  164SAPE  H10Y18499   7.142   6.357   7.815  0.3253  0.4132  0.1379
  164SAPE  C31118500   7.228   6.158   7.882 -0.4792 -0.1036 -0.1436
  164SAPE  H11X18501   7.249   6.217   7.974 -1.1114  1.2886 -0.8643
  164SAPE  H11Y18502   7.324   6.161   7.827 -0.9253 -0.1982 -0.9426
  164SAPE  C31218503   7.188   6.018   7.915  0.6529  0.4021  0.3923
  164SAPE  H12X18504   7.136   5.969   7.829  0.4473  1.4160 -0.0805
  164SAPE  H12Y18505   7.113   6.027   7.996 -0.4649 -3.2263 -0.0463
  164SAPE  C31318506   7.298   5.932   7.971  0.2096 -0.7106 -0.7750
  164SAPE  H13X18507   7.383   5.928   7.900  0.0305 -1.0287 -0.9702
  164SAPE  H13Y18508   7.259   5.831   7.993  1.7768 -1.4543 -1.2619
  164SAPE  C31418509   7.353   6.001   8.103  0.2042 -0.2433  0.2563
  164SAPE  H14X18510   7.277   6.021   8.182  0.6416 -2.4431  1.3327
  164SAPE  H14Y18511   7.403   6.095   8.071 -2.6866  1.2051 -0.3301
  164SAPE  C31518512   7.471   5.917   8.155 -0.7156  0.9598 -0.5048
  164SAPE  H15X18513   7.538   5.895   8.069 -2.9959  1.7237 -2.5899
  164SAPE  H15Y18514   7.424   5.834   8.211 -0.6991  1.0794 -0.3145
  164SAPE  C31618515   7.552   5.995   8.262  0.6095  0.6324  0.1447
  164SAPE  H16X18516   7.494   6.013   8.356  0.7312  1.3703  0.0901
  164SAPE  H16Y18517   7.586   6.094   8.225 -0.3802  1.0785  0.3808
  164SAPE  C31718518   7.683   5.922   8.301  0.3321  0.0889 -0.2018
  164SAPE  H17X18519   7.748   5.995   8.355 -0.0091  0.4861 -0.3202
  164SAPE  H17Y18520   7.733   5.891   8.207 -1.4682 -1.6471 -0.6434
  164SAPE  C31818521   7.667   5.799   8.394 -0.2051  0.0075 -0.2812
  164SAPE  H18X18522   7.762   5.745   8.414 -0.2636 -0.7721 -1.9567
  164SAPE  H18Y18523   7.584   5.733   8.361  0.3896 -0.2610 -1.2886
  164SAPE  H18Z18524   7.633   5.842   8.491  1.3971 -0.4911  0.5439
  165SAPE     N18525   1.285   1.720   6.213  0.2782 -0.4956 -0.1540
  165SAPE   HN118526   1.270   1.816   6.174  3.0055 -0.4982 -1.4259
  165SAPE   HN218527   1.388   1.713   6.197  0.8959 -0.1700  2.9162
  165SAPE   HN318528   1.228   1.653   6.158  2.5961 -1.9774 -0.8938
  165SAPE   C1218529   1.257   1.701   6.357 -0.4274 -0.3854 -0.6710
  165SAPE  H12A18530   1.316   1.610   6.382  1.3150  0.7957 -0.2852
  165SAPE  H12B18531   1.149   1.697   6.383 -0.4720  2.3775 -0.1296
  165SAPE   C1118532   1.317   1.820   6.434 -0.1131 -0.4163 -0.3880
  165SAPE  H11A18533   1.422   1.808   6.468  0.1603  0.6564 -0.7952
  165SAPE  H11B18534   1.258   1.816   6.528  2.5469  0.6292  1.4384
  165SAPE     P18535   1.321   2.083   6.412 -0.0869 -0.0451 -0.3958
  165SAPE   O1318536   1.438   2.152   6.362 -0.0337 -0.1976 -0.0549
  165SAPE   O1418537   1.199   2.154   6.397 -0.6067 -0.1891  0.5147
  165SAPE   O1218538   1.300   1.940   6.357  0.0823 -0.2771 -0.2662
  165SAPE   O1118539   1.336   2.051   6.570  0.4670 -0.2423  0.3812
  165SAPE    C118540   1.465   2.063   6.634  0.8891 -0.5846 -0.1827
  165SAPE    HA18541   1.523   1.971   6.609 -0.6077 -2.0234  1.3157
  165SAPE    HB18542   1.512   2.161   6.615  0.5333 -0.5912 -1.1325
  165SAPE    C218543   1.446   2.062   6.789  0.2449 -0.1412 -0.1207
  165SAPE    HS18544   1.544   2.033   6.831  0.1312  1.1869  1.1189
  165SAPE   O2118545   1.340   1.969   6.833  0.2979  0.1694  0.7709
  165SAPE   C2118546   1.380   1.840   6.849 -0.3711 -0.0162  0.0302
  165SAPE   O2218547   1.490   1.796   6.820  0.0149  0.0515  0.4168
  165SAPE   C2218548   1.265   1.752   6.901 -0.1324 -0.2855  0.0278
  165SAPE   H2R18549   1.216   1.708   6.812 -1.1629  0.4307  0.2272
  165SAPE   H2S18550   1.312   1.671   6.962 -0.8833 -1.1102 -0.4668
  165SAPE    C318551   1.414   2.195   6.853  1.2371 -0.6921  0.1983
  165SAPE    HX18552   1.313   2.228   6.820  1.0099 -1.1850  0.3879
  165SAPE    HY18553   1.466   2.271   6.791 -0.6443  0.7739  0.3012
  165SAPE   O3118554   1.435   2.210   6.995 -0.2032  0.2000  0.4101
  165SAPE   C3118555   1.316   2.189   7.055 -0.6505  0.0588 -0.5312
  165SAPE   O3218556   1.208   2.176   7.006  0.1435  0.4744 -0.5370
  165SAPE   C3218557   1.348   2.166   7.208  0.3261 -0.4842  0.3876
  165SAPE   H2X18558   1.339   2.055   7.210 -1.5506 -0.3689  1.1852
  165SAPE   H2Y18559   1.265   2.214   7.264 -0.6409  2.0239 -2.9004
  165SAPE   C2318560   1.158   1.828   6.986 -0.8165 -0.0243  0.5641
  165SAPE   H3R18561   1.119   1.921   6.940 -0.4036 -0.9593 -1.8114
  165SAPE   H3S18562   1.203   1.864   7.081 -1.8028  0.6142  0.8081
  165SAPE   C2418563   1.035   1.738   7.025 -0.4360  0.1408 -0.2961
  165SAPE   H4R18564   0.984   1.713   6.930  3.3834 -1.5800 -2.0888
  165SAPE   H4S18565   0.961   1.798   7.083 -0.8320 -0.0020 -0.6449
  165SAPE   C2518566   1.076   1.604   7.090  0.8633  0.2289  0.5608
  165SAPE   H5R18567   1.122   1.525   7.029 -0.6138 -1.2724  1.3105
  165SAPE   C2618568   1.052   1.577   7.220  0.3650  0.1787 -0.8649
  165SAPE   H6R18569   1.072   1.476   7.258 -0.5793  1.1630  2.5660
  165SAPE   C2718570   0.989   1.667   7.327  0.0567  0.5691  0.0446
  165SAPE   H7R18571   0.983   1.774   7.297 -2.2444  0.5358  0.2061
  165SAPE   H7S18572   1.049   1.655   7.420 -0.7177 -3.5802  0.1907
  165SAPE   C2818573   0.852   1.605   7.358 -0.0230  0.7214 -0.1402
  165SAPE   H8R18574   0.793   1.599   7.265  2.3416 -0.8921 -1.6479
  165SAPE   C2918575   0.807   1.542   7.469 -0.3561 -1.0199  0.0395
  165SAPE   H9R18576   0.707   1.496   7.472  0.5143 -3.0231  0.2720
  165SAPE  C21018577   0.886   1.516   7.596  0.2714 -0.0220 -0.5049
  165SAPE  H10R18578   0.995   1.532   7.580  0.5432  1.7451  2.3181
  165SAPE  H10S18579   0.880   1.408   7.621 -1.5659  0.4016  1.1692
  165SAPE  C21118580   0.851   1.607   7.709 -0.8115 -0.0420  0.9104
  165SAPE  H11R18581   0.786   1.693   7.688  1.1769  0.9738 -1.6594
  165SAPE  C21218582   0.901   1.593   7.833 -0.4780  0.8368 -0.7728
  165SAPE  H12R18583   0.873   1.670   7.908  4.1074  2.1888 -0.1790
  165SAPE  C21318584   0.982   1.482   7.898 -0.0718  0.1502 -0.3455
  165SAPE  H13R18585   1.062   1.526   7.961 -1.0329  0.8020  0.4486
  165SAPE  H13S18586   1.034   1.431   7.815 -0.0559 -0.8106  0.2397
  165SAPE  C21418587   0.902   1.375   7.961 -0.2541 -0.6423 -0.5477
  165SAPE  H14R18588   0.854   1.306   7.890 -1.2791 -0.3873 -0.1282
  165SAPE  C21518589   0.908   1.341   8.091 -0.1583 -0.2166 -0.3953
  165SAPE  H15R18590   0.861   1.249   8.127  0.7307  0.6379  3.3397
  165SAPE  C21618591   0.990   1.410   8.200  0.8704 -0.0505  0.0719
  165SAPE  H16R18592   0.915   1.466   8.261  0.3176 -2.4675  1.7252
  165SAPE  H16S18593   1.065   1.487   8.173  0.2480  1.0310  1.3000
  165SAPE  C21718594   1.062   1.317   8.288 -0.7526  0.0988 -0.5977
  165SAPE  H17R18595   1.138   1.261   8.228 -1.7550 -1.7620 -0.1962
  165SAPE  H17S18596   1.004   1.236   8.336  2.7295 -1.7987  0.7894
  165SAPE  C21818597   1.123   1.393   8.401  0.5701  0.5871 -0.3465
  165SAPE  H18R18598   1.169   1.488   8.367  1.6469  0.1322 -0.1748
  165SAPE  H18S18599   1.201   1.329   8.447  1.9199  3.2064  1.2676
  165SAPE  C21918600   1.021   1.428   8.512  0.7180 -0.2772  0.5257
  165SAPE  H19R18601   0.956   1.341   8.537  1.6853 -1.8116 -1.8797
  165SAPE  H19S18602   0.952   1.508   8.478 -0.6624 -0.3142  2.9785
  165SAPE  C22018603   1.088   1.490   8.636  0.1736  0.1122  0.1783
  165SAPE  H20R18604   1.177   1.432   8.668  0.0051 -0.6838 -0.7502
  165SAPE  H20S18605   1.027   1.495   8.729  1.7458 -1.4951  1.3459
  165SAPE  H20T18606   1.137   1.584   8.603  2.3377 -0.4819  1.5638
  165SAPE   C3318607   1.483   2.219   7.263  0.8291  0.6500  0.2590
  165SAPE   H3X18608   1.483   2.329   7.250 -2.6488  0.6709 -0.5986
  165SAPE   H3Y18609   1.561   2.167   7.204 -0.9127 -1.7706 -0.0539
  165SAPE   C3418610   1.501   2.180   7.419 -0.4274  0.5107  0.3407
  165SAPE   H4X18611   1.411   2.210   7.477  0.0091 -0.4225  1.5248
  165SAPE   H4Y18612   1.588   2.236   7.461 -0.7738  0.9032  0.5426
  165SAPE   C3518613   1.516   2.031   7.443 -0.3386  0.6482 -0.1601
  165SAPE   H5X18614   1.615   1.997   7.405  0.6799  3.5391 -0.3818
  165SAPE   H5Y18615   1.438   1.973   7.391 -0.8300 -1.6249  2.8343
  165SAPE   C3618616   1.517   1.998   7.599  0.1226  0.3551 -0.1591
  165SAPE   H6X18617   1.511   1.888   7.610 -0.6282  0.6065  3.2036
  165SAPE   H6Y18618   1.430   2.053   7.641  1.1984  1.4907  0.6801
  165SAPE   C3718619   1.647   2.038   7.676 -0.1415  0.2197 -0.1640
  165SAPE   H7X18620   1.658   2.148   7.685  1.2271  0.0645  0.1415
  165SAPE   H7Y18621   1.742   2.000   7.634  0.3028  0.5952  0.4959
  165SAPE   C3818622   1.639   1.985   7.828 -0.1407  0.4502  0.4157
  165SAPE   H8X18623   1.618   1.876   7.836 -2.4263  0.8429  0.6702
  165SAPE   H8Y18624   1.546   2.034   7.864  0.0673  2.6439 -1.8115
  165SAPE   C3918625   1.756   2.018   7.914  0.1943 -0.9608 -0.1477
  165SAPE   H9X18626   1.764   2.127   7.930 -1.9984 -1.0701  2.3866
  165SAPE   H9Y18627   1.853   1.987   7.871  0.6048  0.0332  0.0401
  165SAPE  C31018628   1.738   1.964   8.054 -1.1010 -0.5340  0.1760
  165SAPE  H10X18629   1.719   1.854   8.053  0.2398 -0.8625  2.9383
  165SAPE  H10Y18630   1.649   2.015   8.096 -1.0906 -0.5277  0.1898
  165SAPE  C31118631   1.868   1.977   8.139  0.1695  0.3944  0.4599
  165SAPE  H11X18632   1.887   2.087   8.138  1.0275  0.2680 -1.3540
  165SAPE  H11Y18633   1.959   1.930   8.094  1.4078  1.0506  2.1557
  165SAPE  C31218634   1.850   1.927   8.282  0.0905 -0.0319  1.0451
  165SAPE  H12X18635   1.951   1.931   8.327  0.3827 -0.5521  0.4441
  165SAPE  H12Y18636   1.822   1.820   8.270 -0.6191  0.3548 -1.4735
  165SAPE  C31318637   1.746   1.992   8.369  0.7467 -1.0481  0.3753
  165SAPE  H13X18638   1.649   1.973   8.320  2.1697 -1.7645 -2.3799
  165SAPE  H13Y18639   1.766   2.099   8.390  1.8322 -1.0741 -0.4050
  165SAPE  C31418640   1.737   1.931   8.510 -0.5068 -0.0991 -0.0762
  165SAPE  H14X18641   1.839   1.917   8.552 -1.1849 -2.2032  1.0068
  165SAPE  H14Y18642   1.698   1.828   8.495 -0.3825 -0.0169 -0.9898
  165SAPE  C31518643   1.644   2.011   8.605  0.0601 -0.9356  0.3019
  165SAPE  H15X18644   1.648   2.122   8.605 -1.5350 -0.8515 -0.3211
  165SAPE  H15Y18645   1.688   1.980   8.702 -0.5251  2.0550  1.6336
  165SAPE  C31618646   1.495   1.978   8.583  0.3555 -0.1590  0.1852
  165SAPE  H16X18647   1.476   1.869   8.574 -1.4917  0.3237 -4.4106
  165SAPE  H16Y18648   1.445   2.013   8.490 -0.8776  0.7806  1.1762
  165SAPE  C31718649   1.416   2.009   8.710  0.1400  0.0509  0.5433
  165SAPE  H17X18650   1.425   2.116   8.735 -0.0462  0.0102  0.7935
  165SAPE  H17Y18651   1.470   1.962   8.796  1.8843 -0.8303 -0.9546
  165SAPE  C31818652   1.269   1.983   8.704  0.4436  0.4859 -0.7434
  165SAPE  H18X18653   1.211   2.055   8.641  0.5508 -0.1390 -1.5715
  165SAPE  H18Y18654   1.222   2.001   8.803  0.0405 -0.9745 -0.6514
  165SAPE  H18Z18655   1.249   1.880   8.667  0.2750  0.5752 -0.9029
  166SAPE     N18656   0.988   5.215   5.553 -0.2609  0.1557  0.1051
  166SAPE   HN118657   1.073   5.262   5.591 -0.4251  0.1893  0.4383
  166SAPE   HN218658   1.005   5.181   5.456  0.5361  0.9407 -0.0472
  166SAPE   HN318659   0.922   5.295   5.550  1.2797  1.4794 -0.1734
  166SAPE   C1218660   0.934   5.113   5.653 -1.1523 -0.3368 -0.2315
  166SAPE  H12A18661   1.003   5.026   5.656  0.1814  0.6279 -1.2967
  166SAPE  H12B18662   0.835   5.082   5.613 -0.6175 -1.9369 -0.3881
  166SAPE   C1118663   0.929   5.180   5.789  0.0300  0.1268 -0.6088
  166SAPE  H11A18664   1.035   5.181   5.823  0.0575 -0.3747 -0.6793
  166SAPE  H11B18665   0.870   5.109   5.852 -0.4852  0.5812 -0.5687
  166SAPE     P18666   0.718   5.336   5.841  0.5422  0.2002 -0.4583
  166SAPE   O1318667   0.673   5.457   5.772 -0.2826 -0.6053  0.6275
  166SAPE   O1418668   0.629   5.219   5.834 -0.2304 -0.0160 -0.3472
  166SAPE   O1218669   0.865   5.308   5.782  0.6101 -0.5018  0.0520
  166SAPE   O1118670   0.757   5.368   5.990  0.2934 -0.3089 -0.2603
  166SAPE    C118671   0.815   5.281   6.089  0.7483  0.7846  0.1498
  166SAPE    HA18672   0.777   5.177   6.082  1.0001  0.6356  1.0143
  166SAPE    HB18673   0.926   5.282   6.092  0.8025 -1.0158 -0.2541
  166SAPE    C218674   0.766   5.318   6.228  0.5082 -0.5340 -0.5418
  166SAPE    HS18675   0.818   5.411   6.259 -0.9683 -0.2840  1.3266
  166SAPE   O2118676   0.791   5.204   6.323 -0.0278  0.2677  0.3628
  166SAPE   C2118677   0.895   5.226   6.396 -0.4896 -0.0718  0.1309
  166SAPE   O2218678   0.973   5.324   6.400  0.2714  0.0102  0.4562
  166SAPE   C2218679   0.909   5.113   6.500 -0.9409 -0.0453 -0.0660
  166SAPE   H2R18680   0.825   5.116   6.573 -0.8111  0.5220  0.0666
  166SAPE   H2S18681   0.924   5.019   6.444 -0.9966 -0.0157 -0.1299
  166SAPE    C318682   0.613   5.346   6.237 -0.0842 -0.5836  0.6025
  166SAPE    HX18683   0.556   5.260   6.195 -1.1413  0.3193  0.1312
  166SAPE    HY18684   0.602   5.435   6.171 -0.0008  0.7384  2.3242
  166SAPE   O3118685   0.568   5.377   6.371 -0.2023  0.3752  0.2233
  166SAPE   C3118686   0.485   5.297   6.430  0.2818  0.5792  0.8222
  166SAPE   O3218687   0.438   5.191   6.381 -0.6638 -0.0536  0.0374
  166SAPE   C3218688   0.428   5.349   6.556  0.2799  0.3695 -0.5817
  166SAPE   H2X18689   0.317   5.345   6.551  0.0757 -2.6755  2.7693
  166SAPE   H2Y18690   0.457   5.456   6.566  1.9607 -0.1492  0.5697
  166SAPE   C2318691   1.031   5.130   6.591  0.7160  0.2373 -0.9272
  166SAPE   H3R18692   1.016   5.223   6.650 -0.6060  0.1660 -1.1246
  166SAPE   H3S18693   1.125   5.137   6.531  2.5688 -2.9067  1.2856
  166SAPE   C2418694   1.044   5.017   6.688 -0.4980  0.6770  0.0988
  166SAPE   H4R18695   1.042   4.927   6.623 -1.0061  0.6897  0.0946
  166SAPE   H4S18696   0.955   5.002   6.752 -0.6485  0.9859 -0.0369
  166SAPE   C2518697   1.173   5.034   6.758 -0.1771  0.0455 -0.7414
  166SAPE   H5R18698   1.261   5.055   6.695  0.9179 -1.8609  0.0769
  166SAPE   C2618699   1.191   5.028   6.891 -0.0618 -0.4845  0.2319
  166SAPE   H6R18700   1.288   5.045   6.940 -0.2784  0.1370  0.4497
  166SAPE   C2718701   1.086   5.006   6.995  0.1499  0.1077  0.7885
  166SAPE   H7R18702   1.090   4.898   7.022 -2.4206 -0.0628  0.7500
  166SAPE   H7S18703   0.983   5.023   6.956 -0.8074  0.3240  3.2587
  166SAPE   C2818704   1.099   5.086   7.121 -0.2606  0.4736 -0.1902
  166SAPE   H8R18705   1.170   5.169   7.110  0.1188  0.1048 -0.5573
  166SAPE   C2918706   1.028   5.069   7.233  0.2546 -0.1140  0.0034
  166SAPE   H9R18707   1.043   5.136   7.318  3.4328 -2.9829  1.9564
  166SAPE  C21018708   0.911   4.961   7.237  0.4506 -0.3715 -0.6480
  166SAPE  H10R18709   0.925   4.886   7.156 -0.0040  0.5894 -1.6407
  166SAPE  H10S18710   0.815   5.009   7.209 -1.6902 -4.1817 -0.6529
  166SAPE  C21118711   0.909   4.899   7.374  0.2064 -0.2174  0.5113
  166SAPE  H11R18712   0.916   4.789   7.380  0.3299 -0.2229  0.2619
  166SAPE  C21218713   0.865   4.962   7.488 -0.2043  0.1822 -0.2128
  166SAPE  H12R18714   0.852   4.894   7.573 -1.1458 -0.0078 -0.4976
  166SAPE  C21318715   0.827   5.107   7.509 -0.3763 -0.0332  0.3041
  166SAPE  H13R18716   0.728   5.115   7.560 -0.4114 -2.6900  0.7846
  166SAPE  H13S18717   0.807   5.151   7.409 -0.9417  0.1672  0.4996
  166SAPE  C21418718   0.933   5.180   7.585  0.0883 -0.5316  0.5117
  166SAPE  H14R18719   1.025   5.172   7.525 -0.1217 -0.0082  0.1094
  166SAPE  C21518720   0.930   5.233   7.708  0.7458  0.6665  0.1841
  166SAPE  H15R18721   1.023   5.274   7.750  1.6742  1.0097 -2.0613
  166SAPE  C21618722   0.805   5.240   7.792  0.8479 -0.3051 -0.1756
  166SAPE  H16R18723   0.710   5.211   7.742  0.2400  0.4707  0.4978
  166SAPE  H16S18724   0.790   5.343   7.831 -0.4898 -0.7104  0.4392
  166SAPE  C21718725   0.847   5.162   7.915 -1.1152 -0.7271  0.0376
  166SAPE  H17R18726   0.766   5.177   7.989 -0.8801 -0.6012  0.2717
  166SAPE  H17S18727   0.943   5.190   7.963 -1.5867 -2.2867  2.0251
  166SAPE  C21818728   0.860   5.011   7.887  1.0977  0.0220  0.3248
  166SAPE  H18R18729   0.951   4.991   7.827 -0.1620  0.4826 -1.8624
  166SAPE  H18S18730   0.768   4.974   7.837  1.0361  0.4622  0.1068
  166SAPE  C21918731   0.861   4.933   8.020 -1.2942  1.1522 -0.1744
  166SAPE  H19R18732   0.862   4.829   7.981  0.2337  0.5119  1.4445
  166SAPE  H19S18733   0.769   4.945   8.082 -1.3774  1.1998 -0.3060
  166SAPE  C22018734   0.989   4.939   8.104 -0.2046  0.1309 -0.2795
  166SAPE  H20R18735   1.082   4.949   8.044  1.9211  0.6299  2.8525
  166SAPE  H20S18736   1.005   4.852   8.170  2.0398 -0.3119 -1.2885
  166SAPE  H20T18737   0.983   5.030   8.168 -0.5252 -1.9568  2.8745
  166SAPE   C3318738   0.456   5.280   6.690 -0.7688 -0.2166 -0.3162
  166SAPE   H3X18739   0.424   5.174   6.682  0.2425 -0.5254 -0.3888
  166SAPE   H3Y18740   0.394   5.339   6.761  0.4935  1.5476 -0.6235
  166SAPE   C3418741   0.598   5.289   6.740  0.3297  0.4355  0.4375
  166SAPE   H4X18742   0.625   5.395   6.759 -0.9652  0.9858 -0.6275
  166SAPE   H4Y18743   0.663   5.255   6.656 -0.4398 -2.3805  0.8754
  166SAPE   C3518744   0.625   5.198   6.865  0.4114  0.4462  0.0177
  166SAPE   H5X18745   0.549   5.236   6.936 -0.9294 -1.5363 -0.2733
  166SAPE   H5Y18746   0.724   5.216   6.911  0.2101 -1.8893  1.4872
  166SAPE   C3618747   0.601   5.041   6.854  0.0710 -0.5785 -0.4545
  166SAPE   H6X18748   0.691   4.992   6.812  0.1443 -0.4830 -0.4102
  166SAPE   H6Y18749   0.508   5.023   6.796 -1.0151  1.0159  0.6773
  166SAPE   C3718750   0.573   4.982   6.990  0.1677 -0.4593 -0.3920
  166SAPE   H7X18751   0.632   5.031   7.070 -2.2599  1.0813  0.5578
  166SAPE   H7Y18752   0.595   4.873   6.996  1.8261 -0.0879  0.7278
  166SAPE   C3818753   0.421   4.986   7.032 -0.3350  0.5217  0.2655
  166SAPE   H8X18754   0.368   4.972   6.935  3.2338 -0.9478 -1.6986
  166SAPE   H8Y18755   0.403   5.079   7.088 -0.0794  1.4747 -1.1790
  166SAPE   C3918756   0.400   4.872   7.129  0.2758 -0.0935  0.0805
  166SAPE   H9X18757   0.409   4.773   7.080 -3.0504  0.6718 -2.4391
  166SAPE   H9Y18758   0.291   4.876   7.150  0.0660 -0.5881 -0.8798
  166SAPE  C31018759   0.482   4.883   7.261 -0.4677  0.1189 -0.4421
  166SAPE  H10X18760   0.500   4.991   7.278 -0.8772  0.2019 -0.5138
  166SAPE  H10Y18761   0.571   4.819   7.243 -0.1272  0.7373 -0.9844
  166SAPE  C31118762   0.396   4.819   7.373  0.1321 -0.2451 -0.1831
  166SAPE  H11X18763   0.379   4.714   7.341 -0.5441 -0.0306 -0.5422
  166SAPE  H11Y18764   0.295   4.860   7.390 -0.7974 -2.6146  0.3519
  166SAPE  C31218765   0.477   4.816   7.504  0.3117 -0.0341 -0.1429
  166SAPE  H12X18766   0.499   4.925   7.515  1.6968 -0.2055 -0.9736
  166SAPE  H12Y18767   0.574   4.765   7.484  0.2324 -1.1012  1.9342
  166SAPE  C31318768   0.401   4.759   7.617 -0.4721  0.4943  0.2824
  166SAPE  H13X18769   0.370   4.655   7.590 -0.6469 -0.2215  2.9411
  166SAPE  H13Y18770   0.314   4.825   7.635  1.1386  2.9662 -0.5730
  166SAPE  C31418771   0.475   4.752   7.752 -0.4501 -0.0039 -0.0138
  166SAPE  H14X18772   0.511   4.855   7.771  2.0401 -0.0702 -3.4469
  166SAPE  H14Y18773   0.556   4.675   7.751  2.1613  2.5712 -0.5479
  166SAPE  C31518774   0.384   4.719   7.871 -0.0665  0.7677  0.1611
  166SAPE  H15X18775   0.340   4.617   7.869  1.3004  0.1641 -1.2528
  166SAPE  H15Y18776   0.297   4.788   7.863 -2.2898 -1.8967 -0.0066
  166SAPE  C31618777   0.454   4.731   8.010  0.5822  0.1983 -0.0507
  166SAPE  H16X18778   0.376   4.743   8.088  0.5313  2.1188 -0.3687
  166SAPE  H16Y18779   0.519   4.820   8.021  0.4154  0.2919  0.1865
  166SAPE  C31718780   0.526   4.606   8.053  0.0138  0.8099 -0.0260
  166SAPE  H17X18781   0.605   4.644   8.121 -1.7082  2.5808  1.0963
  166SAPE  H17Y18782   0.575   4.553   7.969 -0.3863 -0.0692  0.2839
  166SAPE  C31818783   0.424   4.506   8.120 -0.1615 -0.0181 -0.0472
  166SAPE  H18X18784   0.362   4.566   8.191 -1.2332 -2.8414  1.5744
  166SAPE  H18Y18785   0.471   4.424   8.179 -0.3452 -0.8325 -1.0244
  166SAPE  H18Z18786   0.352   4.468   8.045 -1.8483 -1.3576  2.1061
  167SAPE     N18787   2.256   4.105   6.316 -0.1734 -0.3141  0.3847
  167SAPE   HN118788   2.231   4.204   6.297 -0.9335 -0.3375  1.2257
  167SAPE   HN218789   2.357   4.098   6.339 -0.1862  0.8389  0.8186
  167SAPE   HN318790   2.237   4.041   6.236  3.0316 -0.6580 -0.2174
  167SAPE   C1218791   2.174   4.066   6.437 -0.0985 -0.5179  0.0555
  167SAPE  H12A18792   2.070   4.104   6.426  0.1223  0.1294  0.1716
  167SAPE  H12B18793   2.212   4.120   6.526  1.6448 -0.0584 -0.9382
  167SAPE   C1118794   2.169   3.917   6.460 -0.8384  0.1474  0.6742
  167SAPE  H11A18795   2.093   3.902   6.539 -1.6728  0.1193 -0.1167
  167SAPE  H11B18796   2.271   3.882   6.487  0.0434  2.0298  0.0217
  167SAPE     P18797   2.002   3.800   6.291  0.0650  0.1475  0.7234
  167SAPE   O1318798   1.925   3.910   6.243 -0.2617 -0.1891  0.0748
  167SAPE   O1418799   2.025   3.696   6.184  0.2417  0.2400  0.3952
  167SAPE   O1218800   2.138   3.849   6.339 -0.1564 -0.7445  0.2990
  167SAPE   O1118801   1.922   3.741   6.418 -0.3585 -0.1140 -0.9061
  167SAPE    C118802   1.954   3.614   6.472 -0.3992  0.1448  0.5245
  167SAPE    HA18803   1.930   3.536   6.397  2.7046 -2.1348  1.6735
  167SAPE    HB18804   2.065   3.606   6.480 -0.4079  0.3309  0.8546
  167SAPE    C218805   1.875   3.602   6.602 -0.6011  0.3533 -0.9224
  167SAPE    HS18806   1.915   3.520   6.665  0.1170  1.0450 -0.4591
  167SAPE   O2118807   1.742   3.582   6.572  0.5957  0.3138 -0.5427
  167SAPE   C2118808   1.711   3.458   6.533  0.4195 -0.0436  0.1566
  167SAPE   O2218809   1.787   3.365   6.513 -0.3582 -0.4744 -0.3000
  167SAPE   C2218810   1.558   3.438   6.541 -0.3553  0.8144 -0.1138
  167SAPE   H2R18811   1.510   3.532   6.572 -0.9191  0.2366  0.8073
  167SAPE   H2S18812   1.525   3.406   6.440  1.4922  1.6402 -1.0249
  167SAPE    C318813   1.883   3.735   6.690 -0.3554 -0.2489 -0.3352
  167SAPE    HX18814   1.847   3.825   6.638 -1.8467  0.1162  1.2367
  167SAPE    HY18815   1.991   3.745   6.718 -0.4859  0.8499 -0.1921
  167SAPE   O3118816   1.808   3.717   6.810  0.4291 -0.6679 -0.1105
  167SAPE   C3118817   1.687   3.764   6.808  0.1490  0.0690 -0.0774
  167SAPE   O3218818   1.633   3.828   6.718 -0.0064 -0.1664 -0.1134
  167SAPE   C3218819   1.617   3.718   6.935  0.0971 -0.1718 -0.5250
  167SAPE   H2X18820   1.630   3.608   6.946  1.4347  0.2237  3.2584
  167SAPE   H2Y18821   1.509   3.741   6.920 -0.1224 -0.3746  0.6234
  167SAPE   C2318822   1.519   3.336   6.651 -0.4719 -0.0294  1.0282
  167SAPE   H3R18823   1.569   3.237   6.638 -0.1425  0.2783 -0.0883
  167SAPE   H3S18824   1.409   3.318   6.642 -0.0972 -1.4295 -1.7488
  167SAPE   C2418825   1.550   3.389   6.802 -0.7717  0.5039 -0.1151
  167SAPE   H4R18826   1.502   3.489   6.811  1.2620  1.6696 -1.3892
  167SAPE   H4S18827   1.661   3.400   6.808 -0.7022 -0.5795  0.6883
  167SAPE   C2518828   1.493   3.296   6.907  0.3076 -0.2215  0.4263
  167SAPE   H5R18829   1.383   3.291   6.904  0.2357  1.1744 -0.2949
  167SAPE   C2618830   1.556   3.225   6.995 -0.2316 -0.5037  0.6390
  167SAPE   H6R18831   1.496   3.147   7.044 -1.5659  0.3143  0.3446
  167SAPE   C2718832   1.705   3.217   7.001 -0.2708 -0.8405 -0.0690
  167SAPE   H7R18833   1.741   3.283   7.082 -0.5848 -1.5817  0.6811
  167SAPE   H7S18834   1.754   3.265   6.913 -1.2045  1.0623  0.4077
  167SAPE   C2818835   1.752   3.079   7.009 -1.0152 -0.1831  0.2533
  167SAPE   H8R18836   1.763   3.015   6.920 -0.4021 -1.6431  1.3390
  167SAPE   C2918837   1.801   3.021   7.122  0.8086 -0.4771  0.0545
  167SAPE   H9R18838   1.831   2.916   7.134  2.8554  0.1852  1.2164
  167SAPE  C21018839   1.800   3.091   7.257 -0.3137 -0.1170  0.8731
  167SAPE  H10R18840   1.808   3.201   7.241 -2.3458 -0.3317 -2.7082
  167SAPE  H10S18841   1.887   3.058   7.317 -0.7849 -0.4680  1.3679
  167SAPE  C21118842   1.671   3.063   7.327  0.0628 -0.5754  0.0254
  167SAPE  H11R18843   1.582   3.105   7.278 -0.6224 -2.5836 -0.5546
  167SAPE  C21218844   1.650   3.012   7.450  1.0567 -0.4268  0.4244
  167SAPE  H12R18845   1.544   3.020   7.479  0.7066  1.1086 -1.1320
  167SAPE  C21318846   1.744   2.956   7.554 -0.8521 -0.2064 -0.9247
  167SAPE  H13R18847   1.843   2.929   7.512 -0.3970  2.4675 -1.8006
  167SAPE  H13S18848   1.701   2.857   7.580 -0.6583 -0.1448 -0.3569
  167SAPE  C21418849   1.743   3.047   7.671 -0.2815  0.1629  0.0265
  167SAPE  H14R18850   1.741   3.154   7.643  0.5000  0.6700  1.7332
  167SAPE  C21518851   1.739   3.007   7.800 -0.2898 -0.3238  0.1027
  167SAPE  H15R18852   1.739   3.080   7.882  2.3835 -0.5870  0.4245
  167SAPE  C21618853   1.724   2.864   7.849 -0.0834 -0.1435  0.2760
  167SAPE  H16R18854   1.775   2.795   7.779 -3.3408 -1.9292 -0.5331
  167SAPE  H16S18855   1.616   2.837   7.849 -0.7856  2.4054  0.4764
  167SAPE  C21718856   1.783   2.848   7.992  0.0346  0.0192 -0.6978
  167SAPE  H17R18857   1.767   2.744   8.028  1.9104 -0.2430 -0.5104
  167SAPE  H17S18858   1.741   2.918   8.067  2.0520 -0.0441  0.5702
  167SAPE  C21818859   1.930   2.870   8.008 -0.6562  0.6095  0.0685
  167SAPE  H18R18860   1.984   2.958   7.968  1.2892 -0.9123 -0.8245
  167SAPE  H18S18861   1.984   2.782   7.966 -2.2006 -0.4902  0.3051
  167SAPE  C21918862   1.973   2.897   8.149 -0.2422  0.5717  0.5643
  167SAPE  H19R18863   1.919   2.986   8.185 -2.3396 -1.1573  1.9522
  167SAPE  H19S18864   2.081   2.922   8.148  0.3411 -1.7205 -1.0586
  167SAPE  C22018865   1.951   2.777   8.237  0.4150  0.4037  0.3686
  167SAPE  H20R18866   1.987   2.788   8.342 -0.6649 -2.0730  1.0778
  167SAPE  H20S18867   1.978   2.676   8.200 -0.1537  0.2602  0.3311
  167SAPE  H20T18868   1.841   2.789   8.247  0.4210  0.6918  0.0927
  167SAPE   C3318869   1.675   3.777   7.066  0.1552 -0.1841  0.3145
  167SAPE   H3X18870   1.686   3.887   7.050 -0.6263 -0.2149 -0.4766
  167SAPE   H3Y18871   1.777   3.733   7.070  0.1218 -0.2189  0.7244
  167SAPE   C3418872   1.576   3.747   7.182 -0.2775 -0.2739 -0.7269
  167SAPE   H4X18873   1.571   3.638   7.201 -0.3807 -0.0542  0.6404
  167SAPE   H4Y18874   1.475   3.786   7.156 -0.9271 -0.3880  1.4363
  167SAPE   C3518875   1.624   3.806   7.313  0.5373 -0.1856  0.3628
  167SAPE   H5X18876   1.606   3.915   7.314  0.0329 -0.2580 -0.0511
  167SAPE   H5Y18877   1.732   3.791   7.334  0.5279  0.6408  0.9957
  167SAPE   C3618878   1.554   3.741   7.434  0.9976  0.3337  0.9419
  167SAPE   H6X18879   1.544   3.631   7.419 -0.9817  0.4570  1.0499
  167SAPE   H6Y18880   1.450   3.779   7.444 -0.2788 -2.8714  0.8216
  167SAPE   C3718881   1.628   3.768   7.563 -0.0047  0.2067  0.0996
  167SAPE   H7X18882   1.639   3.878   7.562 -2.0824  0.4856  1.6076
  167SAPE   H7Y18883   1.726   3.715   7.557  0.1598  0.4407  0.6492
  167SAPE   C3818884   1.561   3.725   7.694 -0.6789 -0.0820  0.7269
  167SAPE   H8X18885   1.595   3.620   7.708  0.7390  0.3536  0.7669
  167SAPE   H8Y18886   1.450   3.719   7.695 -0.7590  1.0191  0.2037
  167SAPE   C3918887   1.606   3.807   7.815 -0.5817  0.6467 -0.5252
  167SAPE   H9X18888   1.583   3.914   7.799 -0.4618  0.9398  1.0693
  167SAPE   H9Y18889   1.717   3.793   7.816 -0.5976  0.1316 -2.3834
  167SAPE  C31018890   1.560   3.764   7.948  0.0221 -0.6716 -0.4182
  167SAPE  H10X18891   1.454   3.730   7.949 -0.0874 -0.3638  0.8864
  167SAPE  H10Y18892   1.574   3.854   8.012 -1.4562 -0.5987 -0.1756
  167SAPE  C31118893   1.648   3.650   8.014  0.1918 -0.2355  0.1383
  167SAPE  H11X18894   1.749   3.687   8.040  0.2600 -0.5845  0.3815
  167SAPE  H11Y18895   1.664   3.569   7.939  0.2247 -0.6179  0.5550
  167SAPE  C31218896   1.578   3.587   8.137  0.6998  0.4183 -0.0440
  167SAPE  H12X18897   1.644   3.510   8.182  0.0368  0.3410  0.8536
  167SAPE  H12Y18898   1.487   3.536   8.098 -0.7864  3.3294 -0.7267
  167SAPE  C31318899   1.535   3.679   8.255 -0.1159  0.5979  0.3252
  167SAPE  H13X18900   1.475   3.616   8.323 -1.2720  2.6711  1.3272
  167SAPE  H13Y18901   1.472   3.759   8.211 -2.7398 -1.7206 -0.4176
  167SAPE  C31418902   1.654   3.728   8.336 -1.0445  0.0408  0.2890
  167SAPE  H14X18903   1.736   3.763   8.270  0.6364  3.7935  3.9213
  167SAPE  H14Y18904   1.696   3.641   8.392 -1.1848  0.5840  1.2485
  167SAPE  C31518905   1.607   3.844   8.427  0.4215 -0.0209 -0.5189
  167SAPE  H15X18906   1.602   3.933   8.362  0.2226  0.7479  0.5122
  167SAPE  H15Y18907   1.684   3.859   8.505  0.7345 -1.9615 -0.3978
  167SAPE  C31618908   1.467   3.817   8.499 -0.0205  0.5343 -0.7342
  167SAPE  H16X18909   1.474   3.714   8.540  0.5157  1.4255  1.5582
  167SAPE  H16Y18910   1.379   3.820   8.431 -1.4040 -2.2361  0.7303
  167SAPE  C31718911   1.436   3.911   8.614  0.3274 -0.0871  0.6770
  167SAPE  H17X18912   1.332   3.882   8.642  0.6522 -1.0784  0.8960
  167SAPE  H17Y18913   1.431   4.013   8.572  0.9607  0.4929  1.9649
  167SAPE  C31818914   1.528   3.901   8.730  0.0249  0.7682  0.3181
  167SAPE  H18X18915   1.498   3.962   8.818 -0.7954  0.6123  0.1552
  167SAPE  H18Y18916   1.633   3.922   8.700  0.2616 -0.8616 -0.0922
  167SAPE  H18Z18917   1.518   3.795   8.763 -3.4025  0.5408 -1.0144
  168SAPE     N18918   3.306   5.869   6.241  0.5666  0.1915  0.8776
  168SAPE   HN118919   3.251   5.947   6.200 -0.4309 -1.2439 -0.6714
  168SAPE   HN218920   3.404   5.903   6.238 -0.1714  2.6030 -3.0444
  168SAPE   HN318921   3.294   5.779   6.191 -0.4899 -0.2502  1.8693
  168SAPE   C1218922   3.250   5.849   6.382 -0.5449  0.2565 -0.7059
  168SAPE  H12A18923   3.321   5.779   6.431  3.0170  3.6916 -0.4535
  168SAPE  H12B18924   3.146   5.810   6.381 -1.1358  1.6071  1.3423
  168SAPE   C1118925   3.264   5.980   6.463 -0.3414  0.3380  0.6137
  168SAPE  H11A18926   3.371   6.004   6.478  0.2974 -0.7205 -1.7469
  168SAPE  H11B18927   3.225   5.964   6.565 -2.4554  0.4726 -0.1174
  168SAPE     P18928   3.072   6.155   6.427 -0.3196 -0.5775 -0.0330
  168SAPE   O1318929   3.075   6.295   6.384  0.6784  0.0729 -0.2501
  168SAPE   O1418930   2.967   6.061   6.380  0.6525  0.6282  0.2467
  168SAPE   O1218931   3.208   6.093   6.393 -0.1128  0.2292  0.1255
  168SAPE   O1118932   3.080   6.160   6.586  0.4200 -0.0461  1.0779
  168SAPE    C118933   2.967   6.147   6.678  0.4714  0.8222  0.6046
  168SAPE    HA18934   2.893   6.221   6.641  0.4889  0.3375 -0.4439
  168SAPE    HB18935   2.922   6.045   6.670  1.7741  0.3350 -1.2362
  168SAPE    C218936   3.004   6.162   6.822 -0.0110  0.8750 -0.3863
  168SAPE    HS18937   2.920   6.146   6.893 -0.6763  0.1987 -1.3151
  168SAPE   O2118938   3.066   6.289   6.849 -0.9125 -0.3487 -0.3013
  168SAPE   C2118939   2.982   6.385   6.861  0.6749 -0.0419  0.2624
  168SAPE   O2218940   2.861   6.373   6.877 -0.8184  0.2100  0.1700
  168SAPE   C2218941   3.049   6.526   6.850  0.2386 -0.1329  0.0140
  168SAPE   H2R18942   3.140   6.521   6.915  0.4267  0.2184 -0.2229
  168SAPE   H2S18943   3.096   6.540   6.751  1.7637  0.7704  0.8222
  168SAPE    C318944   3.106   6.041   6.852  0.1100 -0.8072 -0.9743
  168SAPE    HX18945   3.200   6.069   6.800  1.2745 -0.2954  1.2550
  168SAPE    HY18946   3.059   5.950   6.810 -1.1367  0.7437 -3.1350
  168SAPE   O3118947   3.143   6.037   6.990 -0.2996 -0.1160 -0.5017
  168SAPE   C3118948   3.234   5.945   7.026  0.5082  1.1539 -0.3305
  168SAPE   O3218949   3.306   5.890   6.944 -0.1597 -0.4623  0.4468
  168SAPE   C3218950   3.233   5.920   7.179 -0.1541 -0.4919  0.4717
  168SAPE   H2X18951   3.161   5.838   7.198  0.2950 -1.3670 -1.4042
  168SAPE   H2Y18952   3.197   6.016   7.223  1.5371 -0.2371  1.3680
  168SAPE   C2318953   2.958   6.635   6.879 -0.1402 -0.5482 -0.3295
  168SAPE   H3R18954   2.861   6.626   6.827 -1.5440 -1.4101  2.2425
  168SAPE   H3S18955   3.007   6.731   6.853  1.4955 -1.3147 -0.2238
  168SAPE   C2418956   2.910   6.653   7.031 -0.6521 -0.5726  0.7669
  168SAPE   H4R18957   2.861   6.561   7.069 -0.0272 -1.0907  0.3323
  168SAPE   H4S18958   2.846   6.744   7.023 -0.1317 -0.2872 -0.4368
  168SAPE   C2518959   3.009   6.694   7.130  0.3254 -0.6267  0.1042
  168SAPE   H5R18960   3.076   6.775   7.099  1.4268 -1.6019 -0.1540
  168SAPE   C2618961   3.029   6.642   7.256 -0.4139 -0.3372  0.8722
  168SAPE   H6R18962   3.094   6.687   7.332 -0.6066  0.2243  0.7128
  168SAPE   C2718963   2.950   6.529   7.321 -0.2129 -0.2435  0.2697
  168SAPE   H7R18964   3.012   6.438   7.332 -0.1689 -0.2069  0.3201
  168SAPE   H7S18965   2.870   6.484   7.257 -0.0210 -1.9496  1.1759
  168SAPE   C2818966   2.877   6.569   7.454  0.3301  0.2841  0.2545
  168SAPE   H8R18967   2.770   6.592   7.449 -0.4723 -2.7977  1.1553
  168SAPE   C2918968   2.936   6.575   7.579  0.0415  0.3642 -0.1338
  168SAPE   H9R18969   2.877   6.598   7.669 -0.6031  1.1071 -0.7286
  168SAPE  C21018970   3.084   6.567   7.603 -0.8249  0.3223 -0.1590
  168SAPE  H10R18971   3.108   6.651   7.672  2.4130  0.1596 -0.9211
  168SAPE  H10S18972   3.145   6.575   7.510  0.7301  2.7495  0.9691
  168SAPE  C21118973   3.130   6.434   7.666 -0.4458 -0.2464 -0.5851
  168SAPE  H11R18974   3.129   6.356   7.589 -1.5861  1.6172 -2.5768
  168SAPE  C21218975   3.166   6.415   7.797  0.7569  0.5937  0.0261
  168SAPE  H12R18976   3.197   6.315   7.830  0.1803  0.0986 -0.8942
  168SAPE  C21318977   3.159   6.525   7.898  0.3151  0.0086 -0.3218
  168SAPE  H13R18978   3.164   6.486   8.002 -4.3217 -1.1412 -0.3254
  168SAPE  H13S18979   3.065   6.584   7.891  0.6994  0.5445 -1.0034
  168SAPE  C21418980   3.281   6.614   7.882  0.1718 -0.1944 -0.1194
  168SAPE  H14R18981   3.364   6.569   7.826  1.8530  1.9846  0.5063
  168SAPE  C21518982   3.298   6.745   7.922 -0.4025 -0.0994 -0.3094
  168SAPE  H15R18983   3.394   6.795   7.899 -1.2269  1.6926  0.0032
  168SAPE  C21618984   3.192   6.831   8.000 -0.3024  0.3516  0.2361
  168SAPE  H16R18985   3.101   6.770   8.016 -0.5548  0.7976  0.5143
  168SAPE  H16S18986   3.159   6.915   7.936  0.7966  1.6346  1.2850
  168SAPE  C21718987   3.249   6.882   8.135  0.6576  0.9107  0.2574
  168SAPE  H17R18988   3.333   6.940   8.093 -0.5837  0.2325 -3.4992
  168SAPE  H17S18989   3.279   6.807   8.212 -1.0967 -0.0745  0.0340
  168SAPE  C21818990   3.143   6.967   8.205  0.3597 -0.2601  0.1878
  168SAPE  H18R18991   3.052   6.909   8.232 -1.2684  1.6324 -0.9213
  168SAPE  H18S18992   3.099   7.052   8.148 -1.1433 -0.8883  0.3724
  168SAPE  C21918993   3.193   7.031   8.332 -0.2886 -0.0604 -0.5649
  168SAPE  H19R18994   3.129   7.104   8.386  1.8539  0.5115  1.3610
  168SAPE  H19S18995   3.279   7.096   8.306 -0.7708  0.7054 -0.2747
  168SAPE  C22018996   3.230   6.931   8.444  0.0636  0.8528  1.0860
  168SAPE  H20R18997   3.331   6.889   8.421 -0.0011  1.6036 -0.6930
  168SAPE  H20S18998   3.154   6.850   8.445  1.7630 -0.8747  3.4034
  168SAPE  H20T18999   3.236   6.977   8.545  0.8192  1.2003  0.8914
  168SAPE   C3319000   3.371   5.883   7.231  0.2731  0.8084  0.1246
  168SAPE   H3X19001   3.440   5.967   7.209 -0.3258  1.4940  0.8186
  168SAPE   H3Y19002   3.421   5.800   7.175 -0.1714  0.7491 -0.1899
  168SAPE   C3419003   3.379   5.850   7.385 -0.6231 -0.0375 -0.0173
  168SAPE   H4X19004   3.483   5.820   7.409  0.3708  1.0392 -2.5574
  168SAPE   H4Y19005   3.305   5.769   7.404 -0.7250  0.1338  0.3198
  168SAPE   C3519006   3.346   5.974   7.472  0.7445  0.1238  0.5613
  168SAPE   H5X19007   3.250   6.021   7.441 -0.0302 -1.1421  0.9463
  168SAPE   H5Y19008   3.419   6.058   7.467 -0.6638  1.3370 -0.7211
  168SAPE   C3619009   3.337   5.938   7.621  0.7973 -0.1956  0.1506
  168SAPE   H6X19010   3.432   5.887   7.648  0.0548 -1.5863  0.2033
  168SAPE   H6Y19011   3.267   5.862   7.660  2.6175 -2.6321 -1.0352
  168SAPE   C3719012   3.324   6.059   7.709 -0.2658 -0.3321 -1.2235
  168SAPE   H7X19013   3.245   6.120   7.662  0.2502  2.8161  1.6105
  168SAPE   H7Y19014   3.417   6.119   7.704 -0.2509 -0.3391 -1.0583
  168SAPE   C3819015   3.313   6.026   7.858 -0.6671  0.3735 -0.2605
  168SAPE   H8X19016   3.255   5.933   7.877 -1.3665  0.7466 -0.5113
  168SAPE   H8Y19017   3.254   6.103   7.912 -1.0055  0.0224 -0.1255
  168SAPE   C3919018   3.443   6.006   7.934  0.1294 -0.0756 -0.7594
  168SAPE   H9X19019   3.503   6.093   7.900 -0.2254  0.9596  1.1368
  168SAPE   H9Y19020   3.485   5.916   7.885 -0.7746  0.0767 -1.8604
  168SAPE  C31019021   3.432   5.996   8.085 -0.1964  0.4290 -0.3537
  168SAPE  H10X19022   3.515   5.928   8.113 -1.0600 -0.8200 -0.7057
  168SAPE  H10Y19023   3.332   5.950   8.101 -1.4979  2.2560 -2.5249
  168SAPE  C31119024   3.449   6.123   8.172 -0.6456 -0.6215  0.0804
  168SAPE  H11X19025   3.548   6.166   8.145 -1.5814 -0.1016 -2.8584
  168SAPE  H11Y19026   3.446   6.098   8.280 -1.9931  1.0739  0.4727
  168SAPE  C31219027   3.339   6.232   8.157 -0.6037 -0.6976 -0.1413
  168SAPE  H12X19028   3.247   6.178   8.187 -0.6925 -0.3893  0.1513
  168SAPE  H12Y19029   3.331   6.279   8.056  0.4301 -0.1782  0.0088
  168SAPE  C31319030   3.376   6.344   8.254  0.2673  0.2488 -0.1434
  168SAPE  H13X19031   3.416   6.314   8.353  0.0567  0.5996  0.0518
  168SAPE  H13Y19032   3.283   6.401   8.275  1.0478  0.5690  2.8412
  168SAPE  C31419033   3.491   6.445   8.207  0.3801  0.9993  0.2653
  168SAPE  H14X19034   3.463   6.481   8.105 -0.5680 -0.6803 -0.1141
  168SAPE  H14Y19035   3.590   6.394   8.203  0.3512  0.4483  3.6071
  168SAPE  C31519036   3.500   6.551   8.313 -0.2768 -1.0156 -0.4998
  168SAPE  H15X19037   3.505   6.504   8.413 -0.0185  2.2337  1.1521
  168SAPE  H15Y19038   3.404   6.605   8.305 -0.0155 -0.5207 -0.3277
  168SAPE  C31619039   3.619   6.649   8.290  0.2025  0.0998 -0.8178
  168SAPE  H16X19040   3.617   6.704   8.193  0.7598 -0.9727 -1.4550
  168SAPE  H16Y19041   3.714   6.592   8.290  1.6615  2.3882  0.6763
  168SAPE  C31719042   3.615   6.759   8.406 -0.4017  0.2290  0.6844
  168SAPE  H17X19043   3.632   6.707   8.503 -0.7387 -0.3387  0.4430
  168SAPE  H17Y19044   3.517   6.810   8.399  0.5148  2.1028  0.9405
  168SAPE  C31819045   3.731   6.850   8.370  0.0489 -0.2650  0.2207
  168SAPE  H18X19046   3.717   6.905   8.274  0.1677  0.0055  0.3586
  168SAPE  H18Y19047   3.824   6.790   8.356 -0.8154 -1.1935 -2.2334
  168SAPE  H18Z19048   3.734   6.929   8.447 -1.1211 -0.1116  0.1329
  169SAPE     N19049   2.706   1.871   5.835 -0.1106 -0.0222 -0.5675
  169SAPE   HN119050   2.610   1.908   5.818 -0.4193 -0.7808 -0.5296
  169SAPE   HN219051   2.768   1.905   5.759  1.7124 -3.2516 -0.7046
  169SAPE   HN319052   2.701   1.768   5.844  0.6486  0.1271  2.9568
  169SAPE   C1219053   2.764   1.936   5.959 -0.5497 -0.7243 -0.0693
  169SAPE  H12A19054   2.753   2.046   5.958  0.1303 -0.6579 -1.1683
  169SAPE  H12B19055   2.871   1.905   5.963 -0.1163  0.8182  1.5410
  169SAPE   C1119056   2.705   1.880   6.092  0.6145 -0.2580 -0.1291
  169SAPE  H11A19057   2.762   1.913   6.182 -0.9142  1.1236  0.3749
  169SAPE  H11B19058   2.720   1.772   6.110  1.7812 -0.1019 -0.0516
  169SAPE     P19059   2.505   2.058   6.133 -0.2723 -0.0085  0.1716
  169SAPE   O1319060   2.535   2.151   6.019  0.2943  0.0159 -0.0508
  169SAPE   O1419061   2.361   2.046   6.161  0.1419  0.2611 -0.4199
  169SAPE   O1219062   2.561   1.908   6.101  0.6346  0.0766 -0.5147
  169SAPE   O1119063   2.586   2.093   6.260 -0.3173 -0.0213 -0.2865
  169SAPE    C119064   2.554   2.026   6.388 -1.0176  0.5270  0.0656
  169SAPE    HA19065   2.447   2.022   6.418 -1.2141 -2.9515 -0.6091
  169SAPE    HB19066   2.581   1.918   6.388  2.3728  1.2415 -1.9142
  169SAPE    C219067   2.648   2.078   6.507  0.3106 -0.1256 -0.5591
  169SAPE    HS19068   2.618   2.026   6.600  0.4224  3.6248  1.8034
  169SAPE   O2119069   2.644   2.223   6.520  0.2274 -0.3404  0.3065
  169SAPE   C2119070   2.556   2.261   6.618  0.2016  0.0715  0.5317
  169SAPE   O2219071   2.465   2.194   6.666 -0.2861 -0.5642  0.7755
  169SAPE   C2219072   2.596   2.399   6.673  0.1999  0.2002  0.3838
  169SAPE   H2R19073   2.610   2.373   6.780  0.2029 -4.5891 -0.5556
  169SAPE   H2S19074   2.696   2.427   6.634  1.3224 -1.0095  2.2428
  169SAPE    C319075   2.803   2.046   6.479 -0.4861  0.4061 -0.1530
  169SAPE    HX19076   2.816   2.097   6.382  0.8636  0.8667  0.2392
  169SAPE    HY19077   2.822   1.938   6.464  0.1185  0.5928 -0.7364
  169SAPE   O3119078   2.890   2.090   6.589  0.5916 -0.2056 -0.2895
  169SAPE   C3119079   2.986   2.182   6.551  1.0181  1.2342 -0.1846
  169SAPE   O3219080   2.992   2.235   6.441  0.6887 -0.2158  0.1215
  169SAPE   C3219081   3.080   2.193   6.671 -0.4018 -0.2543 -0.4899
  169SAPE   H2X19082   3.168   2.252   6.635  1.0669 -1.9134  0.2167
  169SAPE   H2Y19083   3.116   2.095   6.707  0.0491  0.1170  0.0790
  169SAPE   C2319084   2.495   2.509   6.668 -0.5633  0.6328  0.6367
  169SAPE   H3R19085   2.393   2.469   6.691 -0.5595 -0.7745 -1.5096
  169SAPE   H3S19086   2.505   2.539   6.561  0.8855  1.6763  1.0444
  169SAPE   C2419087   2.530   2.629   6.759  0.2056  0.2548  0.4980
  169SAPE   H4R19088   2.549   2.592   6.863  1.5458  0.7520  0.4483
  169SAPE   H4S19089   2.444   2.698   6.751  0.6205  0.6489 -0.8570
  169SAPE   C2519090   2.649   2.703   6.707 -0.5606  0.1220  0.9703
  169SAPE   H5R19091   2.634   2.745   6.606 -1.4043  0.8013  1.3637
  169SAPE   C2619092   2.772   2.715   6.759 -0.3092 -0.3510 -0.2086
  169SAPE   H6R19093   2.851   2.773   6.707 -0.3684  1.4183  1.5553
  169SAPE   C2719094   2.816   2.665   6.896 -0.0541  0.1686  0.6620
  169SAPE   H7R19095   2.926   2.655   6.898 -0.1332 -1.0091  0.3416
  169SAPE   H7S19096   2.774   2.562   6.905  0.1123  0.0630  0.2576
  169SAPE   C2819097   2.777   2.764   7.006  0.7560 -0.0392 -0.5210
  169SAPE   H8R19098   2.791   2.867   6.969  0.0415 -0.4395 -1.9523
  169SAPE   C2919099   2.723   2.729   7.128 -0.4725  0.2566  0.3031
  169SAPE   H9R19100   2.696   2.804   7.204 -2.1823 -1.2578  1.2895
  169SAPE  C21019101   2.694   2.592   7.178  0.5444 -0.4550  0.2275
  169SAPE  H10R19102   2.778   2.545   7.233  1.2006  0.6549  0.1909
  169SAPE  H10S19103   2.695   2.518   7.095 -0.8523  0.0146 -0.2377
  169SAPE  C21119104   2.564   2.579   7.251  0.5339 -0.3652  0.3990
  169SAPE  H11R19105   2.473   2.563   7.190  0.3510  0.1326  0.5379
  169SAPE  C21219106   2.542   2.570   7.383  0.4492  1.1081  0.0541
  169SAPE  H12R19107   2.438   2.552   7.413  0.8975 -1.1728  0.4027
  169SAPE  C21319108   2.641   2.575   7.496 -0.0809  0.2657  0.0866
  169SAPE  H13R19109   2.583   2.586   7.590 -1.7263  0.8991 -0.9631
  169SAPE  H13S19110   2.703   2.666   7.477  1.2555 -0.6413 -0.0152
  169SAPE  C21419111   2.730   2.457   7.515 -0.4497 -0.5994 -0.2479
  169SAPE  H14R19112   2.749   2.405   7.420  0.2516  0.3059 -0.6119
  169SAPE  C21519113   2.770   2.400   7.634  0.5425 -0.6332  0.2528
  169SAPE  H15R19114   2.822   2.303   7.637  2.0046  0.1394  0.8406
  169SAPE  C21619115   2.727   2.443   7.768 -0.5519 -0.3889 -0.3522
  169SAPE  H16R19116   2.692   2.357   7.829 -0.3211  0.7324  1.4713
  169SAPE  H16S19117   2.643   2.516   7.764  0.8752  1.3318 -0.0683
  169SAPE  C21719118   2.829   2.524   7.857 -0.0418  0.0856 -0.7821
  169SAPE  H17R19119   2.843   2.622   7.807  0.1883  1.3893  1.6652
  169SAPE  H17S19120   2.932   2.481   7.852  0.5185  1.1189  0.9673
  169SAPE  C21819121   2.791   2.551   8.003  0.4090 -0.5223  0.7112
  169SAPE  H18R19122   2.682   2.573   8.002  0.6056  0.4659 -0.2832
  169SAPE  H18S19123   2.842   2.636   8.055 -0.2117 -0.1180  0.6708
  169SAPE  C21919124   2.807   2.436   8.097 -0.2447  0.4082 -0.1571
  169SAPE  H19R19125   2.915   2.408   8.101 -0.6517 -1.7778 -2.1331
  169SAPE  H19S19126   2.763   2.349   8.044  0.1359 -0.7366  1.3400
  169SAPE  C22019127   2.728   2.463   8.229 -0.0066 -0.6874 -0.0976
  169SAPE  H20R19128   2.776   2.549   8.280 -0.3330 -0.4987 -0.1102
  169SAPE  H20S19129   2.721   2.375   8.297 -0.9299 -0.1371  0.5419
  169SAPE  H20T19130   2.629   2.499   8.194  0.1740  0.5921  0.6658
  169SAPE   C3319131   3.010   2.266   6.786 -0.0707 -0.4900  0.1456
  169SAPE   H3X19132   2.965   2.360   6.749 -0.0019  0.1851  1.7249
  169SAPE   H3Y19133   3.087   2.316   6.848 -0.2579  0.3724 -0.3003
  169SAPE   C3419134   2.920   2.188   6.886 -0.3100 -0.2713  0.7651
  169SAPE   H4X19135   2.965   2.091   6.914 -2.2425 -1.3485  0.3496
  169SAPE   H4Y19136   2.829   2.161   6.828  0.8970 -3.7172  0.2990
  169SAPE   C3519137   2.885   2.264   7.019  0.8439  0.8774  0.3612
  169SAPE   H5X19138   2.818   2.351   7.001 -0.3843 -0.2001 -0.4067
  169SAPE   H5Y19139   2.984   2.293   7.061 -0.4777  1.9607  2.9686
  169SAPE   C3619140   2.812   2.181   7.128  0.7307 -0.1849 -0.2625
  169SAPE   H6X19141   2.814   2.240   7.222  0.5727 -1.2584  0.4311
  169SAPE   H6Y19142   2.849   2.077   7.139 -3.4985 -1.9787 -0.9781
  169SAPE   C3719143   2.667   2.152   7.095  1.0933 -0.4779 -0.0089
  169SAPE   H7X19144   2.666   2.083   7.009  0.6719 -0.8857  0.3178
  169SAPE   H7Y19145   2.608   2.237   7.054 -0.5290 -2.0763 -1.1652
  169SAPE   C3819146   2.579   2.103   7.215  0.8244 -0.3516 -0.2371
  169SAPE   H8X19147   2.637   2.022   7.263  0.0102  0.5710  2.5101
  169SAPE   H8Y19148   2.480   2.066   7.180  1.6437 -1.9188 -0.9757
  169SAPE   C3919149   2.549   2.205   7.332  0.4745  0.3198 -0.4992
  169SAPE   H9X19150   2.480   2.286   7.303 -0.2051  1.6434  3.9468
  169SAPE   H9Y19151   2.647   2.248   7.362  0.7630 -1.6492  1.7594
  169SAPE  C31019152   2.487   2.143   7.463  0.5257 -0.0882 -0.1753
  169SAPE  H10X19153   2.397   2.084   7.435 -1.5567  2.7561  0.1440
  169SAPE  H10Y19154   2.446   2.232   7.515  0.3535  0.1321 -0.6793
  169SAPE  C31119155   2.584   2.061   7.549 -0.3692 -0.5224 -0.4119
  169SAPE  H11X19156   2.668   2.128   7.579  0.2604 -1.7902  0.7766
  169SAPE  H11Y19157   2.617   1.970   7.495  1.8792  1.5468 -2.8301
  169SAPE  C31219158   2.512   2.019   7.676  0.4666  0.0944  0.0831
  169SAPE  H12X19159   2.417   1.970   7.647  0.6581  0.5644 -1.3922
  169SAPE  H12Y19160   2.492   2.115   7.730 -1.0845  0.9505 -1.8924
  169SAPE  C31319161   2.593   1.934   7.776  0.9037  0.7886 -0.5119
  169SAPE  H13X19162   2.691   1.982   7.797  1.2282 -0.6953  1.6802
  169SAPE  H13Y19163   2.632   1.841   7.729 -2.9218 -0.4072 -1.7481
  169SAPE  C31419164   2.525   1.906   7.913 -0.0349 -0.3420 -0.0245
  169SAPE  H14X19165   2.522   2.006   7.961  2.5607  0.7389 -1.9009
  169SAPE  H14Y19166   2.584   1.835   7.974  2.1370  0.8915 -0.5878
  169SAPE  C31519167   2.390   1.840   7.892  0.1109 -0.6441 -0.0468
  169SAPE  H15X19168   2.406   1.769   7.809 -0.2553 -0.3316 -0.3913
  169SAPE  H15Y19169   2.305   1.900   7.853 -0.9966 -1.1912  1.4478
  169SAPE  C31619170   2.333   1.762   8.011  0.0225  0.3177 -0.5734
  169SAPE  H16X19171   2.416   1.691   8.032 -2.1357 -1.6194  1.9564
  169SAPE  H16Y19172   2.243   1.703   7.984 -0.6344 -0.5045  2.9881
  169SAPE  C31719173   2.295   1.857   8.118 -0.0699  0.0686 -0.3821
  169SAPE  H17X19174   2.214   1.927   8.086  1.3426  2.0532  0.1645
  169SAPE  H17Y19175   2.383   1.919   8.146 -0.7678  0.6741  0.5368
  169SAPE  C31819176   2.248   1.781   8.242  0.2438 -0.2627  0.4147
  169SAPE  H18X19177   2.338   1.734   8.287 -0.9884 -2.8032  0.3710
  169SAPE  H18Y19178   2.175   1.700   8.222  1.1279 -0.4872 -2.3462
  169SAPE  H18Z19179   2.208   1.855   8.315  1.5560  1.7884 -0.8345
  170SAPE     N19180   0.256   6.771   6.310  0.2210 -0.2083 -0.3693
  170SAPE   HN119181   0.247   6.695   6.381  0.9251 -0.5419 -0.6304
  170SAPE   HN219182   0.198   6.853   6.336 -2.3592 -2.1956  0.5880
  170SAPE   HN319183   0.205   6.738   6.225 -0.8175  0.4535 -0.0277
  170SAPE   C1219184   0.393   6.818   6.296 -0.4303 -0.4452  0.1965
  170SAPE  H12A19185   0.418   6.882   6.384  2.4413  0.7735 -1.3695
  170SAPE  H12B19186   0.400   6.881   6.205 -0.0262 -1.1477 -0.2654
  170SAPE   C1119187   0.488   6.698   6.277  0.7272  0.2559 -0.6148
  170SAPE  H11A19188   0.497   6.647   6.376  0.4189  0.6460 -0.3791
  170SAPE  H11B19189   0.584   6.734   6.235 -0.7051  2.4153 -2.2717
  170SAPE     P19190   0.517   6.469   6.151  0.2791  0.0644  0.4099
  170SAPE   O1319191   0.432   6.363   6.209  0.5152  0.1860 -0.6055
  170SAPE   O1419192   0.564   6.452   6.009 -0.3726  0.1763  0.2770
  170SAPE   O1219193   0.436   6.603   6.180  0.3790  0.4027  0.9131
  170SAPE   O1119194   0.639   6.498   6.247 -0.0259  0.2936  0.0663
  170SAPE    C119195   0.645   6.427   6.370 -0.1312  0.3619 -0.0323
  170SAPE    HA19196   0.558   6.460   6.431 -0.8220 -0.1905 -0.6907
  170SAPE    HB19197   0.652   6.318   6.350  1.0717  0.5765 -0.8939
  170SAPE    C219198   0.764   6.458   6.462  0.0275  0.3385  0.2299
  170SAPE    HS19199   0.857   6.427   6.409 -0.5656 -0.0126 -0.6315
  170SAPE   O2119200   0.743   6.389   6.585 -0.4271  0.1279 -0.0845
  170SAPE   C2119201   0.838   6.401   6.677  0.1586  0.9452  0.6526
  170SAPE   O2219202   0.949   6.452   6.663 -0.1300 -0.2270  0.0631
  170SAPE   C2219203   0.803   6.315   6.799  0.0509  0.0691 -0.4893
  170SAPE   H2R19204   0.692   6.310   6.804 -0.0091 -0.7996 -1.8872
  170SAPE   H2S19205   0.844   6.215   6.770 -0.6098  0.0836 -1.5384
  170SAPE    C319206   0.787   6.614   6.474 -0.4626 -0.2567 -0.1310
  170SAPE    HX19207   0.808   6.656   6.373 -2.5573  0.7227 -0.2153
  170SAPE    HY19208   0.880   6.640   6.528 -0.7132  2.2328 -0.7551
  170SAPE   O3119209   0.674   6.680   6.546 -0.2546  0.0334 -0.4250
  170SAPE   C3119210   0.703   6.729   6.665  0.8525  0.3516 -0.3131
  170SAPE   O3219211   0.807   6.731   6.723 -0.2858 -0.0484 -0.2230
  170SAPE   C3219212   0.578   6.797   6.714  0.0120  0.0742  0.1626
  170SAPE   H2X19213   0.492   6.760   6.654  1.1693  0.5643 -1.8931
  170SAPE   H2Y19214   0.596   6.906   6.701  0.1459  0.0991  0.5449
  170SAPE   C2319215   0.862   6.371   6.929  0.3346  0.5093  0.1298
  170SAPE   H3R19216   0.828   6.476   6.945 -0.0090  0.1060  2.3957
  170SAPE   H3S19217   0.973   6.370   6.923  0.4377  2.4538  0.8354
  170SAPE   C2419218   0.806   6.312   7.060 -0.2665 -0.1516  0.1712
  170SAPE   H4R19219   0.701   6.278   7.047 -0.7510  1.4594 -0.3426
  170SAPE   H4S19220   0.814   6.395   7.133  1.4730 -1.0750  1.1015
  170SAPE   C2519221   0.888   6.212   7.136 -0.1998 -0.4504 -0.0625
  170SAPE   H5R19222   0.972   6.164   7.084  1.2455 -1.1272  2.7490
  170SAPE   C2619223   0.860   6.182   7.264  0.2212 -0.3423  0.4553
  170SAPE   H6R19224   0.933   6.118   7.316  0.6395  0.0337  0.3407
  170SAPE   C2719225   0.751   6.237   7.352  0.7490  0.4715 -0.2227
  170SAPE   H7R19226   0.682   6.295   7.288  1.4247 -0.1255 -1.5396
  170SAPE   H7S19227   0.796   6.313   7.420  2.1109 -0.1362 -0.3949
  170SAPE   C2819228   0.679   6.133   7.435  0.1044  0.5589 -0.3100
  170SAPE   H8R19229   0.613   6.062   7.383  2.8575 -1.8831 -0.7713
  170SAPE   C2919230   0.704   6.103   7.569 -0.1307 -0.7851 -0.6797
  170SAPE   H9R19231   0.661   6.018   7.625  1.9215 -1.1844  0.3965
  170SAPE  C21019232   0.810   6.178   7.651 -0.3103 -0.4609 -0.2367
  170SAPE  H10R19233   0.783   6.285   7.656 -1.4532 -0.7018 -1.0603
  170SAPE  H10S19234   0.903   6.179   7.590  0.9426  0.6497  1.5669
  170SAPE  C21119235   0.838   6.119   7.785  0.3379  0.9075 -0.2798
  170SAPE  H11R19236   0.755   6.130   7.856 -0.3202 -1.5873 -0.5741
  170SAPE  C21219237   0.940   6.036   7.823  0.6983 -0.0136 -0.6663
  170SAPE  H12R19238   0.932   5.999   7.926 -0.4845 -0.2959 -0.8429
  170SAPE  C21319239   1.053   5.997   7.742 -0.8015  0.5532 -0.0186
  170SAPE  H13R19240   1.132   6.075   7.753  3.1504 -3.0650 -0.2394
  170SAPE  H13S19241   1.035   6.012   7.633 -0.4275  1.4046  0.0297
  170SAPE  C21419242   1.100   5.855   7.778 -0.1945 -0.1151 -0.2225
  170SAPE  H14R19243   1.034   5.773   7.745  0.7680 -1.4516  1.0461
  170SAPE  C21519244   1.214   5.825   7.838 -0.0378  0.1385  0.2157
  170SAPE  H15R19245   1.247   5.724   7.866 -0.6316  0.3656  1.8792
  170SAPE  C21619246   1.317   5.926   7.877  0.0703 -0.1403 -0.8104
  170SAPE  H16R19247   1.336   5.993   7.790 -1.0023  0.2319 -0.7824
  170SAPE  H16S19248   1.409   5.879   7.916  1.1336  2.6254  0.2563
  170SAPE  C21719249   1.270   6.008   8.004  0.0882 -0.0542  0.1301
  170SAPE  H17R19250   1.169   6.052   7.990  0.6033  0.3648 -2.9207
  170SAPE  H17S19251   1.338   6.096   7.996  1.7330 -1.4532 -4.5394
  170SAPE  C21819252   1.273   5.925   8.131  0.2035 -0.5226 -0.4474
  170SAPE  H18R19253   1.375   5.890   8.154  0.3573  0.6640  0.8007
  170SAPE  H18S19254   1.213   5.834   8.112 -1.3004  0.2953  0.1264
  170SAPE  C21919255   1.216   5.995   8.262 -0.4509 -0.6133 -0.1519
  170SAPE  H19R19256   1.171   5.916   8.326 -2.3057  0.4170 -0.1209
  170SAPE  H19S19257   1.120   6.046   8.240  0.6875  2.7127  1.8416
  170SAPE  C22019258   1.302   6.101   8.329  0.3138 -0.1238  0.4360
  170SAPE  H20R19259   1.308   6.188   8.261  0.3310 -0.7846 -0.4186
  170SAPE  H20S19260   1.404   6.059   8.338  0.8738  1.1115 -0.0156
  170SAPE  H20T19261   1.262   6.127   8.430 -0.7251 -0.8315  0.2248
  170SAPE   C3319262   0.551   6.755   6.861  0.7575  0.6448 -0.5135
  170SAPE   H3X19263   0.466   6.809   6.908 -0.4888 -0.5493 -1.3351
  170SAPE   H3Y19264   0.638   6.785   6.925 -0.1163  2.5538 -0.1497
  170SAPE   C3419265   0.500   6.600   6.886 -0.4318 -0.7017 -0.2641
  170SAPE   H4X19266   0.577   6.544   6.831 -0.1429 -0.8359  0.2689
  170SAPE   H4Y19267   0.396   6.599   6.847 -1.0922 -0.4907  1.3793
  170SAPE   C3519268   0.493   6.560   7.031  0.0001 -0.0053 -0.8270
  170SAPE   H5X19269   0.585   6.594   7.082 -0.3896  0.2673 -0.2945
  170SAPE   H5Y19270   0.495   6.448   7.031 -0.0717 -0.0505 -2.9293
  170SAPE   C3619271   0.366   6.591   7.101 -0.1183  0.6647  0.2035
  170SAPE   H6X19272   0.280   6.550   7.045  1.4481 -0.6653 -1.3682
  170SAPE   H6Y19273   0.352   6.701   7.113 -0.8912  0.4892  0.9715
  170SAPE   C3719274   0.370   6.519   7.236 -0.1357 -0.5691  0.4607
  170SAPE   H7X19275   0.379   6.409   7.225  0.9369 -0.4359 -0.0905
  170SAPE   H7Y19276   0.273   6.533   7.289  1.2210 -0.7472  3.1437
  170SAPE   C3819277   0.485   6.573   7.330  0.2226 -0.4702  0.3920
  170SAPE   H8X19278   0.490   6.684   7.335 -1.2158 -0.2127 -2.2577
  170SAPE   H8Y19279   0.589   6.545   7.305  0.5628 -0.1665  1.4081
  170SAPE   C3919280   0.469   6.522   7.474  0.8349  0.2673 -0.7663
  170SAPE   H9X19281   0.470   6.411   7.467  2.0394  0.2639 -0.8217
  170SAPE   H9Y19282   0.363   6.551   7.492  0.5437  0.6457 -2.8294
  170SAPE  C31019283   0.576   6.557   7.572 -0.0157  0.1139 -0.5567
  170SAPE  H10X19284   0.584   6.668   7.569 -1.4647  0.2309 -3.0424
  170SAPE  H10Y19285   0.673   6.510   7.542 -0.2973 -0.1032 -1.1613
  170SAPE  C31119286   0.557   6.510   7.719 -0.1904  0.6013 -0.7468
  170SAPE  H11X19287   0.544   6.400   7.709  0.4743  0.6389 -2.2507
  170SAPE  H11Y19288   0.469   6.558   7.767  1.6627  1.0583  2.4609
  170SAPE  C31219289   0.680   6.526   7.812 -0.9073  0.7793 -0.5927
  170SAPE  H12X19290   0.680   6.635   7.834  0.0594  0.8568 -0.9161
  170SAPE  H12Y19291   0.767   6.489   7.753 -0.6554  2.5933 -1.4512
  170SAPE  C31319292   0.665   6.444   7.947 -0.5127 -0.0004  0.1403
  170SAPE  H13X19293   0.757   6.453   8.010 -1.0927 -0.9520  1.1638
  170SAPE  H13Y19294   0.652   6.333   7.942  1.5329 -0.4523  2.4543
  170SAPE  C31419295   0.551   6.497   8.034 -0.4817 -0.9413  0.1198
  170SAPE  H14X19296   0.454   6.467   7.989 -1.3860 -1.0244  2.0683
  170SAPE  H14Y19297   0.557   6.605   8.059 -0.5358 -0.9678  0.2433
  170SAPE  C31519298   0.538   6.432   8.173 -0.3617 -0.5931  0.3690
  170SAPE  H15X19299   0.611   6.475   8.245 -1.0462  0.6983  0.3147
  170SAPE  H15Y19300   0.542   6.321   8.167 -0.0668 -0.5507 -0.3461
  170SAPE  C31619301   0.404   6.457   8.247 -0.3525 -0.1198 -0.0294
  170SAPE  H16X19302   0.369   6.559   8.223 -1.8082 -0.6992 -0.4642
  170SAPE  H16Y19303   0.430   6.447   8.355 -0.6191 -0.3576  0.0157
  170SAPE  C31719304   0.294   6.357   8.215  1.0563  0.3654 -0.2868
  170SAPE  H17X19305   0.336   6.270   8.161  1.0149 -1.9058  3.0737
  170SAPE  H17Y19306   0.221   6.401   8.143  2.8917 -0.5014 -2.8487
  170SAPE  C31819307   0.218   6.311   8.340 -0.2438 -0.1587  0.6227
  170SAPE  H18X19308   0.304   6.277   8.401 -0.2986 -2.7079 -0.6080
  170SAPE  H18Y19309   0.144   6.233   8.312 -1.1290  0.8895 -0.0382
  170SAPE  H18Z19310   0.169   6.397   8.390 -0.7544  1.0582 -1.8411
  171SAPE     N19311   5.005   6.109   6.250 -0.1823  0.0615  0.0676
  171SAPE   HN119312   5.097   6.069   6.221 -0.1490  0.8562 -0.9460
  171SAPE   HN219313   4.936   6.106   6.172 -0.6646  1.2086  0.4389
  171SAPE   HN319314   5.035   6.208   6.260 -2.0344  0.7010 -0.4302
  171SAPE   C1219315   4.940   6.035   6.370  0.2467 -0.0576  0.2105
  171SAPE  H12A19316   4.850   6.092   6.402 -0.7344 -1.8654  0.7776
  171SAPE  H12B19317   5.017   6.024   6.450 -0.6120 -2.4021  0.7721
  171SAPE   C1119318   4.903   5.894   6.331 -0.5047 -0.4282 -0.8241
  171SAPE  H11A19319   4.871   5.841   6.423 -0.6649  4.0412  2.0089
  171SAPE  H11B19320   4.985   5.824   6.304  2.4757  0.9613  3.5503
  171SAPE     P19321   4.673   5.792   6.257 -0.0493  0.1052 -0.5438
  171SAPE   O1319322   4.560   5.826   6.171 -0.0661  0.1796 -0.1157
  171SAPE   O1419323   4.717   5.651   6.249  0.0886 -0.1834  0.0582
  171SAPE   O1219324   4.802   5.889   6.234  0.3490  0.8709  0.3191
  171SAPE   O1119325   4.637   5.816   6.409 -0.0011 -0.2460  0.3953
  171SAPE    C119326   4.572   5.719   6.489  0.1349  0.2341  0.5258
  171SAPE    HA19327   4.482   5.689   6.432  0.1120  0.8349  0.2459
  171SAPE    HB19328   4.630   5.624   6.500 -0.4556 -0.2787 -0.5858
  171SAPE    C219329   4.543   5.781   6.626  0.6142  0.2848  0.2551
  171SAPE    HS19330   4.485   5.875   6.619 -0.2208 -0.2989 -1.3987
  171SAPE   O2119331   4.668   5.809   6.689 -0.1267 -0.3894 -0.0651
  171SAPE   C2119332   4.734   5.920   6.664 -0.0831 -0.2593  0.5190
  171SAPE   O2219333   4.693   6.023   6.611  0.8323  0.5421  0.5245
  171SAPE   C2219334   4.888   5.903   6.711  0.4521 -0.1232 -0.0959
  171SAPE   H2R19335   4.942   5.839   6.639  0.2099  0.3807 -0.7358
  171SAPE   H2S19336   4.932   6.004   6.696  1.1832 -0.4396 -0.1252
  171SAPE    C319337   4.468   5.693   6.733 -0.1318 -0.0556 -0.9615
  171SAPE    HX19338   4.522   5.596   6.728 -3.1141 -1.8554 -0.4729
  171SAPE    HY19339   4.361   5.681   6.705 -0.3943  0.8870 -0.4290
  171SAPE   O3119340   4.500   5.734   6.870  0.3014  0.2696 -0.1444
  171SAPE   C3119341   4.437   5.836   6.924  0.3362  0.7706  0.0380
  171SAPE   O3219342   4.348   5.904   6.867 -0.6607 -0.2172 -0.5446
  171SAPE   C3219343   4.464   5.837   7.074  0.2711 -0.1757  0.4470
  171SAPE   H2X19344   4.557   5.779   7.090 -1.0033 -2.5941 -0.3077
  171SAPE   H2Y19345   4.379   5.776   7.113  0.4177 -2.0187 -1.9001
  171SAPE   C2319346   4.903   5.858   6.858  0.2885  0.4216  1.0530
  171SAPE   H3R19347   5.006   5.817   6.864 -0.3828 -1.5460  0.0411
  171SAPE   H3S19348   4.843   5.766   6.875 -1.0893  0.8521 -1.0430
  171SAPE   C2419349   4.851   5.975   6.946  0.6131  0.2795  0.5767
  171SAPE   H4R19350   4.750   6.013   6.919  1.6195  2.0130 -1.0873
  171SAPE   H4S19351   4.922   6.057   6.921  1.8597 -1.0972 -0.6332
  171SAPE   C2519352   4.866   5.945   7.093  0.2081  0.2240 -0.5527
  171SAPE   H5R19353   4.790   5.878   7.137  2.6239 -1.1745  1.8182
  171SAPE   C2619354   4.965   5.990   7.176  0.1301  0.0267 -0.8670
  171SAPE   H6R19355   4.950   5.950   7.277  0.1099 -2.9752 -1.9739
  171SAPE   C2719356   5.079   6.087   7.150 -0.5896  0.3236 -1.0930
  171SAPE   H7R19357   5.101   6.147   7.241 -0.1327 -0.6450 -0.5443
  171SAPE   H7S19358   5.053   6.159   7.070  2.0218  2.9256  0.1884
  171SAPE   C2819359   5.214   6.019   7.114 -0.0352  0.0742 -0.4915
  171SAPE   H8R19360   5.229   5.985   7.010  0.7079 -0.8530 -0.0959
  171SAPE   C2919361   5.303   5.978   7.206  0.6198 -0.7478 -0.2323
  171SAPE   H9R19362   5.401   5.938   7.177  1.5285  0.8749  0.4277
  171SAPE  C21019363   5.306   5.990   7.358  0.0733 -0.3091 -0.5501
  171SAPE  H10R19364   5.297   6.094   7.395  0.4963 -1.0679  1.8196
  171SAPE  H10S19365   5.406   5.967   7.400 -0.8091 -1.4399  1.0170
  171SAPE  C21119366   5.205   5.897   7.431 -0.5827 -0.1198  0.1303
  171SAPE  H11R19367   5.194   5.795   7.391 -1.9438 -0.5435  1.4743
  171SAPE  C21219368   5.115   5.934   7.531 -0.0970 -1.0266  0.1528
  171SAPE  H12R19369   5.060   5.849   7.574 -0.5596 -0.3299  0.9466
  171SAPE  C21319370   5.106   6.073   7.597  0.2977  0.4121 -0.4505
  171SAPE  H13R19371   5.054   6.138   7.523 -1.7903 -0.3595  0.2677
  171SAPE  H13S19372   5.212   6.106   7.606  0.3768 -0.0380  0.3042
  171SAPE  C21419373   5.029   6.073   7.729  0.2946  0.7790  0.3893
  171SAPE  H14R19374   4.919   6.068   7.727  0.1983  2.1121 -2.0703
  171SAPE  C21519375   5.081   6.091   7.853  0.4585  0.3077 -0.1465
  171SAPE  H15R19376   5.016   6.086   7.942 -1.8260  0.6636 -1.7212
  171SAPE  C21619377   5.224   6.119   7.883 -0.1392 -0.1009 -0.5444
  171SAPE  H16R19378   5.248   6.228   7.881  0.2349 -0.1681  0.0811
  171SAPE  H16S19379   5.287   6.062   7.811 -1.1281 -0.8022 -0.8794
  171SAPE  C21719380   5.256   6.069   8.024  0.1662 -0.3885 -0.2506
  171SAPE  H17R19381   5.220   5.964   8.022 -4.7844  1.0698 -1.1281
  171SAPE  H17S19382   5.185   6.114   8.097 -2.1138 -2.2374 -1.1833
  171SAPE  C21819383   5.399   6.096   8.059  0.6124  0.2510  0.0015
  171SAPE  H18R19384   5.413   6.203   8.034 -0.3719  0.4332  0.1810
  171SAPE  H18S19385   5.472   6.036   8.001 -0.0815  0.0632 -0.6999
  171SAPE  C21919386   5.416   6.082   8.210 -0.8704  0.6671 -0.1584
  171SAPE  H19R19387   5.385   5.978   8.234  2.3882 -0.0352  1.6862
  171SAPE  H19S19388   5.350   6.138   8.279 -1.0292 -1.5467  1.6065
  171SAPE  C22019389   5.561   6.096   8.247  0.8231  0.0312  0.0049
  171SAPE  H20R19390   5.608   6.191   8.214 -0.8555  0.3880 -1.4828
  171SAPE  H20S19391   5.607   6.016   8.185  1.0916 -0.8840  1.3459
  171SAPE  H20T19392   5.572   6.081   8.357  0.1591  0.5982  0.1518
  171SAPE   C3319393   4.459   5.984   7.135  0.7175  0.2674  0.2638
  171SAPE   H3X19394   4.361   6.032   7.111  1.3889  1.8373  0.5359
  171SAPE   H3Y19395   4.546   6.052   7.119  0.8798 -0.4079 -1.9518
  171SAPE   C3419396   4.439   5.967   7.289  0.8195 -0.6196  0.3734
  171SAPE   H4X19397   4.339   5.922   7.307 -0.5858  1.4773 -1.5726
  171SAPE   H4Y19398   4.418   6.062   7.343  3.4347  0.1791  0.1100
  171SAPE   C3519399   4.551   5.900   7.361 -0.4570  0.5319  0.0215
  171SAPE   H5X19400   4.640   5.957   7.324  0.6763 -0.2104  1.4644
  171SAPE   H5Y19401   4.552   5.794   7.330 -1.7950  0.9875 -1.6670
  171SAPE   C3619402   4.525   5.907   7.512  0.3001  0.3257 -0.8962
  171SAPE   H6X19403   4.440   5.846   7.548 -0.0885  1.4888  0.2325
  171SAPE   H6Y19404   4.502   6.011   7.544  0.1036  0.1588 -0.4900
  171SAPE   C3719405   4.647   5.859   7.588  0.2070 -0.1239  0.0800
  171SAPE   H7X19406   4.736   5.911   7.547 -1.1158  0.8638 -1.6883
  171SAPE   H7Y19407   4.657   5.749   7.576  0.1051  0.0362 -1.6927
  171SAPE   C3819408   4.630   5.876   7.738 -0.8950 -0.0294 -0.6902
  171SAPE   H8X19409   4.542   5.826   7.783 -0.3692 -1.8465 -1.5455
  171SAPE   H8Y19410   4.634   5.986   7.751 -0.0147 -0.0752 -0.5023
  171SAPE   C3919411   4.759   5.814   7.796 -0.2693  0.2143 -0.1538
  171SAPE   H9X19412   4.855   5.835   7.746 -0.0511  0.5943  0.4196
  171SAPE   H9Y19413   4.748   5.704   7.785  2.6596 -0.4180  2.0866
  171SAPE  C31019414   4.786   5.850   7.944 -0.7947 -0.2017  0.4296
  171SAPE  H10X19415   4.694   5.818   7.997 -1.6929 -0.1267 -1.0280
  171SAPE  H10Y19416   4.795   5.961   7.954  3.4092 -0.1440 -1.8355
  171SAPE  C31119417   4.905   5.783   8.011  0.8383  0.0726  0.0376
  171SAPE  H11X19418   4.998   5.830   7.971  0.8407 -0.8856 -1.1416
  171SAPE  H11Y19419   4.920   5.675   7.989  0.5386  0.5584 -2.9669
  171SAPE  C31219420   4.897   5.804   8.167  0.0346  0.7655  0.1544
  171SAPE  H12X19421   4.801   5.760   8.200 -0.4039  0.6984 -1.1499
  171SAPE  H12Y19422   4.889   5.915   8.166 -0.2973  0.8000 -2.4484
  171SAPE  C31319423   5.020   5.758   8.238  0.4693  0.4748  0.0462
  171SAPE  H13X19424   4.997   5.776   8.345 -0.5006 -1.5915  0.2410
  171SAPE  H13Y19425   5.109   5.818   8.211 -0.0304  1.0476 -0.3615
  171SAPE  C31419426   5.052   5.608   8.220 -0.3796 -0.4823  0.6026
  171SAPE  H14X19427   5.065   5.570   8.116 -1.8784 -0.8583  0.5320
  171SAPE  H14Y19428   4.969   5.548   8.262 -1.8834  2.2197  1.7697
  171SAPE  C31519429   5.177   5.578   8.291  0.3110  0.0237 -0.3550
  171SAPE  H15X19430   5.169   5.583   8.402 -0.3795  1.3169 -0.4548
  171SAPE  H15Y19431   5.247   5.663   8.277 -1.1815  1.2297 -0.7161
  171SAPE  C31619432   5.246   5.445   8.264  0.1555 -0.4145 -0.0528
  171SAPE  H16X19433   5.250   5.435   8.153  0.5077  1.2851 -0.2243
  171SAPE  H16Y19434   5.191   5.354   8.294  1.1896 -1.3723 -0.9858
  171SAPE  C31719435   5.398   5.437   8.300  0.7821 -0.1233 -0.4987
  171SAPE  H17X19436   5.426   5.329   8.298  0.3031 -0.2518 -0.4615
  171SAPE  H17Y19437   5.397   5.468   8.407 -2.8551 -1.1761 -0.0916
  171SAPE  C31819438   5.504   5.524   8.218  0.2985  0.5942  0.7554
  171SAPE  H18X19439   5.479   5.632   8.219 -1.8887  0.2690 -2.9235
  171SAPE  H18Y19440   5.503   5.496   8.110 -1.6399  0.4886  0.7783
  171SAPE  H18Z19441   5.607   5.498   8.253  1.1191  0.3755 -1.6439
  172SAPE     N19442   3.122   4.449   5.793 -0.0946 -0.0186 -0.0399
  172SAPE   HN119443   3.149   4.527   5.857  1.3528 -1.1655  0.8111
  172SAPE   HN219444   3.158   4.473   5.699  1.7884 -0.1356  0.6041
  172SAPE   HN319445   3.020   4.428   5.786 -0.3287 -0.3003  2.7500
  172SAPE   C1219446   3.180   4.327   5.847 -0.1394 -0.5698 -0.0908
  172SAPE  H12A19447   3.291   4.339   5.850 -0.1554 -0.6209  0.7127
  172SAPE  H12B19448   3.164   4.247   5.771  2.2123 -1.5581  0.3579
  172SAPE   C1119449   3.120   4.296   5.987  0.2471 -0.4292 -0.6335
  172SAPE  H11A19450   3.147   4.191   6.014 -1.3754 -0.7846 -0.2285
  172SAPE  H11B19451   3.009   4.301   5.980  0.2116 -0.3390 -0.0640
  172SAPE     P19452   3.242   4.374   6.216  0.1400 -0.1173 -0.5080
  172SAPE   O1319453   3.286   4.502   6.276  0.3604 -0.3574 -0.4726
  172SAPE   O1419454   3.162   4.277   6.304 -0.2368  0.4534  0.2338
  172SAPE   O1219455   3.163   4.402   6.080  0.2741  0.2417  0.5047
  172SAPE   O1119456   3.371   4.301   6.161 -1.3115 -1.0029 -0.3534
  172SAPE    C119457   3.441   4.194   6.224 -0.5013 -0.2958 -0.1120
  172SAPE    HA19458   3.379   4.106   6.253  0.3711 -0.2140  2.1496
  172SAPE    HB19459   3.521   4.157   6.156  0.6069 -0.5210  1.2639
  172SAPE    C219460   3.530   4.252   6.341  0.3359 -0.7703  0.9307
  172SAPE    HS19461   3.613   4.180   6.358  2.1056  0.4018 -1.9789
  172SAPE   O2119462   3.452   4.281   6.458  0.2586 -0.5742 -0.5516
  172SAPE   C2119463   3.392   4.179   6.509  0.3799 -0.2651 -0.4417
  172SAPE   O2219464   3.418   4.063   6.482  0.2671 -0.1542  0.4601
  172SAPE   C2219465   3.286   4.224   6.607  0.0770 -0.5763 -0.6449
  172SAPE   H2R19466   3.316   4.307   6.675 -5.6455  0.3493  1.3279
  172SAPE   H2S19467   3.193   4.255   6.555 -0.7955 -1.3493  0.3951
  172SAPE    C319468   3.607   4.380   6.297 -0.0965 -0.3007  0.8380
  172SAPE    HX19469   3.533   4.462   6.282  3.3454  3.2529  1.5620
  172SAPE    HY19470   3.658   4.346   6.205 -3.6750 -0.0255 -1.4444
  172SAPE   O3119471   3.710   4.421   6.392  0.5067  0.1425 -0.0485
  172SAPE   C3119472   3.680   4.524   6.476 -0.8027 -0.7747 -0.4255
  172SAPE   O3219473   3.585   4.599   6.471 -0.3112 -0.5845  0.6856
  172SAPE   C3219474   3.779   4.537   6.585 -0.1623 -0.7037 -0.2857
  172SAPE   H2X19475   3.834   4.631   6.565 -1.6838  0.8693  2.3646
  172SAPE   H2Y19476   3.843   4.446   6.581  0.8813 -0.1217  1.7850
  172SAPE   C2319477   3.267   4.101   6.702  0.2719  0.2155  0.8644
  172SAPE   H3R19478   3.243   4.011   6.643 -0.8566  1.3696 -0.5088
  172SAPE   H3S19479   3.174   4.136   6.753  0.6048 -0.8299  2.2483
  172SAPE   C2419480   3.377   4.085   6.804 -0.1809 -0.8974 -0.3378
  172SAPE   H4R19481   3.386   4.160   6.886  2.4593 -0.8987 -0.5528
  172SAPE   H4S19482   3.480   4.100   6.767  0.1460  1.1648  1.2030
  172SAPE   C2519483   3.365   3.949   6.862  0.6889 -0.0806  0.4089
  172SAPE   H5R19484   3.343   3.877   6.782 -1.3104  1.8991 -0.9447
  172SAPE   C2619485   3.368   3.904   6.985 -0.3933 -0.1800  0.9811
  172SAPE   H6R19486   3.361   3.795   7.001 -2.8266 -0.5145 -1.5811
  172SAPE   C2719487   3.390   3.992   7.107  0.0018  0.3895  0.3996
  172SAPE   H7R19488   3.461   4.072   7.080 -0.3671  1.0827  1.4365
  172SAPE   H7S19489   3.439   3.946   7.196  1.2685  3.1182  1.2025
  172SAPE   C2819490   3.260   4.066   7.149 -0.6919  0.3312  0.6574
  172SAPE   H8R19491   3.184   4.084   7.072 -0.0698 -0.5138 -0.1889
  172SAPE   C2919492   3.223   4.095   7.271  0.1335  0.3659 -0.7005
  172SAPE   H9R19493   3.128   4.150   7.277  0.5820  1.0322  0.7269
  172SAPE  C21019494   3.289   4.060   7.403 -0.0734  0.5905  0.3560
  172SAPE  H10R19495   3.399   4.053   7.389  0.0232 -0.8609  1.5446
  172SAPE  H10S19496   3.249   3.957   7.420  0.2307 -0.4121 -3.9824
  172SAPE  C21119497   3.251   4.167   7.504  1.0623  0.3167  0.0542
  172SAPE  H11R19498   3.248   4.272   7.472  0.0361  0.2776  0.0123
  172SAPE  C21219499   3.222   4.144   7.634  0.3425  0.1797  0.5495
  172SAPE  H12R19500   3.192   4.231   7.693 -2.9399  0.8953 -1.8787
  172SAPE  C21319501   3.224   4.010   7.716  0.5557 -0.0366  0.2136
  172SAPE  H13R19502   3.163   3.939   7.656  0.6414 -0.5180  0.6857
  172SAPE  H13S19503   3.169   4.010   7.812  0.0837 -0.4680 -0.0489
  172SAPE  C21419504   3.369   3.950   7.731  0.6988  0.2495 -0.3453
  172SAPE  H14R19505   3.424   3.954   7.636 -0.1654 -0.2291 -0.8789
  172SAPE  C21519506   3.428   3.916   7.841 -0.5125  0.5963 -0.2563
  172SAPE  H15R19507   3.531   3.878   7.837 -0.3060  1.0910  0.2137
  172SAPE  C21619508   3.368   3.925   7.979 -0.1224 -0.1814  0.6001
  172SAPE  H16R19509   3.268   3.974   7.989  0.4321  1.8107 -2.2488
  172SAPE  H16S19510   3.437   3.992   8.035  0.5932 -1.1169  0.8644
  172SAPE  C21719511   3.359   3.789   8.036  0.1857  0.0258  0.3930
  172SAPE  H17R19512   3.461   3.745   8.042  0.1276  0.0650  3.0297
  172SAPE  H17S19513   3.289   3.725   7.978  0.0742  1.9028 -1.6686
  172SAPE  C21819514   3.321   3.802   8.184 -0.1241  0.9692 -0.3846
  172SAPE  H18R19515   3.400   3.864   8.231  0.7478  1.0095 -1.8229
  172SAPE  H18S19516   3.310   3.703   8.234 -3.3960  1.5631  0.2681
  172SAPE  C21919517   3.189   3.867   8.212 -0.4965  0.5873 -0.3098
  172SAPE  H19R19518   3.113   3.808   8.156  0.2065  1.1721 -1.9411
  172SAPE  H19S19519   3.186   3.973   8.179 -0.2609  0.2708 -1.3707
  172SAPE  C22019520   3.140   3.841   8.352  0.3581  0.2398  0.0077
  172SAPE  H20R19521   3.134   3.731   8.371  0.6186  0.0085 -1.2068
  172SAPE  H20S19522   3.041   3.888   8.371 -0.3187 -1.2772  0.3852
  172SAPE  H20T19523   3.220   3.882   8.417  0.3578 -0.0265  0.1792
  172SAPE   C3319524   3.692   4.547   6.715 -0.2489  0.0131  0.1837
  172SAPE   H3X19525   3.627   4.636   6.725  0.1025  0.1283  1.5777
  172SAPE   H3Y19526   3.770   4.557   6.794  1.5268  2.8158 -1.7041
  172SAPE   C3419527   3.615   4.423   6.747  1.0386 -0.0977 -0.4143
  172SAPE   H4X19528   3.666   4.325   6.735  0.0628 -0.5284 -1.0870
  172SAPE   H4Y19529   3.524   4.433   6.685  0.8874 -0.0621 -0.1851
  172SAPE   C3519530   3.551   4.434   6.879  0.2866  0.0669  0.6704
  172SAPE   H5X19531   3.471   4.358   6.879 -0.8968  1.2612 -0.6064
  172SAPE   H5Y19532   3.501   4.532   6.893 -2.3224 -1.2097  0.8451
  172SAPE   C3619533   3.639   4.390   6.995  0.0911  0.7055  0.0184
  172SAPE   H6X19534   3.713   4.471   7.014  1.5437  0.0340 -2.3684
  172SAPE   H6Y19535   3.692   4.296   6.970 -1.4586  0.6256 -3.6298
  172SAPE   C3719536   3.554   4.365   7.123 -0.6147  0.2822 -0.2934
  172SAPE   H7X19537   3.473   4.297   7.089  0.7655 -0.5356 -2.0775
  172SAPE   H7Y19538   3.497   4.456   7.152 -0.2327  0.3468  0.2561
  172SAPE   C3819539   3.638   4.317   7.247 -0.2765 -0.1047  0.2912
  172SAPE   H8X19540   3.732   4.375   7.245 -0.3102 -0.0610 -1.2809
  172SAPE   H8Y19541   3.654   4.207   7.256 -0.6537 -0.0473  2.0211
  172SAPE   C3919542   3.571   4.344   7.384  0.8630 -0.0872  0.3333
  172SAPE   H9X19543   3.470   4.296   7.384  1.3321 -1.1802 -2.0204
  172SAPE   H9Y19544   3.555   4.454   7.387 -0.4655 -0.2300 -0.4870
  172SAPE  C31019545   3.640   4.285   7.505  0.4409 -1.2929  0.4887
  172SAPE  H10X19546   3.751   4.294   7.504  0.4154 -0.8060 -0.8027
  172SAPE  H10Y19547   3.620   4.176   7.518 -0.2447 -1.0299  1.8152
  172SAPE  C31119548   3.583   4.357   7.627 -0.8179 -0.1907 -0.6502
  172SAPE  H11X19549   3.478   4.387   7.604 -1.1744 -0.7706  0.1755
  172SAPE  H11Y19550   3.632   4.456   7.640  1.0646 -1.2010  0.3159
  172SAPE  C31219551   3.592   4.283   7.765 -0.3665  0.2048  0.4884
  172SAPE  H12X19552   3.693   4.237   7.776 -1.0895 -1.5619  0.0140
  172SAPE  H12Y19553   3.538   4.187   7.760  0.3954 -0.2883  1.4116
  172SAPE  C31319554   3.555   4.369   7.886 -0.5799  0.5696 -0.1922
  172SAPE  H13X19555   3.540   4.294   7.967 -0.3562 -1.2291 -1.7285
  172SAPE  H13Y19556   3.459   4.423   7.871 -0.2770  2.2576  3.0495
  172SAPE  C31419557   3.661   4.466   7.940  0.0005  0.1347 -0.1796
  172SAPE  H14X19558   3.681   4.535   7.855  0.8717 -1.7090 -1.5508
  172SAPE  H14Y19559   3.754   4.406   7.952  0.1542  0.6496  1.5514
  172SAPE  C31519560   3.621   4.543   8.070  0.2814  0.6452  0.0063
  172SAPE  H15X19561   3.554   4.484   8.136 -2.1862  1.8988 -1.2802
  172SAPE  H15Y19562   3.566   4.628   8.026  0.0962  0.7744  0.4847
  172SAPE  C31619563   3.734   4.590   8.159 -0.6097 -0.5114  0.3731
  172SAPE  H16X19564   3.799   4.652   8.094 -1.1343 -0.6207 -0.2731
  172SAPE  H16Y19565   3.798   4.512   8.206 -0.6487  1.4909  4.2065
  172SAPE  C31719566   3.695   4.690   8.269  0.2715  0.9181  0.3396
  172SAPE  H17X19567   3.611   4.644   8.325 -0.6664 -0.8094 -2.2787
  172SAPE  H17Y19568   3.655   4.773   8.207  0.2422  0.6232 -0.0371
  172SAPE  C31819569   3.814   4.732   8.352  0.1630  0.1935 -0.3338
  172SAPE  H18X19570   3.862   4.649   8.407  1.5102  0.9647 -0.3030
  172SAPE  H18Y19571   3.780   4.799   8.434 -1.8447 -1.9381  0.7030
  172SAPE  H18Z19572   3.892   4.785   8.294 -0.9074  0.6898 -1.3744
  173SOPE     N19573   4.162   4.065  10.986  0.5423  0.5632 -0.7267
  173SOPE   HN119574   4.266   4.063  10.987  0.5282 -0.1297  0.8139
  173SOPE   HN219575   4.127   4.115  11.070 -0.6857 -2.9462  1.0094
  173SOPE   HN319576   4.129   3.968  10.968  0.1614  0.4924  0.3023
  173SOPE   C1219577   4.122   4.151  10.865 -0.7227 -0.2351 -0.0056
  173SOPE  H12A19578   4.187   4.123  10.779 -3.0474  0.1483 -1.9687
  173SOPE  H12B19579   4.154   4.255  10.890 -1.5059  0.7049 -2.5487
  173SOPE   C1119580   3.973   4.131  10.833 -0.1708 -0.0842  0.4541
  173SOPE  H11A19581   3.958   4.022  10.819  0.3353 -0.0795 -0.1327
  173SOPE  H11B19582   3.950   4.177  10.734 -1.2749 -0.3404  0.5770
  173SOPE     P19583   3.762   4.132  10.991 -0.1975  0.5563  0.0347
  173SOPE   O1319584   3.688   4.235  11.063 -0.3645  0.3105 -0.1998
  173SOPE   O1419585   3.782   4.002  11.059 -0.5743  1.1053 -0.3017
  173SOPE   O1219586   3.903   4.191  10.949 -0.1344 -0.3485 -0.1164
  173SOPE   O1119587   3.686   4.109  10.854 -0.0821 -0.0384 -0.3728
  173SOPE    C119588   3.620   3.982  10.831  0.1403 -0.3535  0.2098
  173SOPE    HA19589   3.556   3.957  10.918  0.9642  0.0727  0.9512
  173SOPE    HB19590   3.693   3.899  10.830  1.1237  0.4858 -0.2726
  173SOPE    C219591   3.525   3.966  10.708  0.2290  0.2909 -0.2930
  173SOPE    HS19592   3.477   3.866  10.696  1.0150  0.1366 -2.6148
  173SOPE   O2119593   3.600   3.990  10.585  0.2203 -0.5248  0.4304
  173SOPE   C2119594   3.684   3.901  10.545 -0.5544 -0.1394 -0.4980
  173SOPE   O2219595   3.694   3.785  10.585  0.3328 -0.1860 -0.1376
  173SOPE   C2219596   3.776   3.957  10.435 -0.1241 -0.0025 -0.3716
  173SOPE   H2R19597   3.854   3.882  10.408 -0.3759 -0.0954 -0.8496
  173SOPE   H2S19598   3.834   4.038  10.485  0.3012 -0.6419  0.1909
  173SOPE    C319599   3.408   4.072  10.704 -0.7234  0.1498  0.3912
  173SOPE    HX19600   3.452   4.172  10.721  1.4947 -1.0503  2.3066
  173SOPE    HY19601   3.347   4.048  10.794  0.3342 -1.0967  0.7989
  173SOPE   O3119602   3.334   4.064  10.582  0.3063  0.4346  0.0638
  173SOPE   C3119603   3.358   4.141  10.480  0.1004 -0.4444  0.8874
  173SOPE   O3219604   3.450   4.221  10.468  0.4747  0.4209  0.4016
  173SOPE   C3219605   3.265   4.096  10.366 -0.9867  0.1913 -0.0220
  173SOPE   H2X19606   3.158   4.090  10.396 -0.8029  1.1687  0.8946
  173SOPE   H2Y19607   3.295   3.991  10.345 -2.8358 -0.3711 -0.0968
  173SOPE   C2319608   3.703   3.996  10.307  0.5287  1.0977  0.0582
  173SOPE   H3R19609   3.758   4.066  10.240  3.6943 -2.2595 -1.1438
  173SOPE   H3S19610   3.612   4.042  10.352  1.2285  1.6757  0.9058
  173SOPE   C2419611   3.652   3.880  10.225 -0.3592 -0.5467  0.1632
  173SOPE   H4R19612   3.736   3.826  10.177  0.4684  0.2919  0.6267
  173SOPE   H4S19613   3.593   3.811  10.289 -2.3690  0.7372 -0.1714
  173SOPE   C2519614   3.556   3.917  10.118  0.2300  0.1548  0.7253
  173SOPE   H5R19615   3.453   3.907  10.158  1.2151  0.1885  3.5040
  173SOPE   H5S19616   3.579   4.024  10.100  1.5239  0.2116  2.4637
  173SOPE   C2619617   3.586   3.840   9.983  0.4723  0.2452 -0.3018
  173SOPE   H6R19618   3.691   3.856   9.951  0.6577  0.2728  0.3068
  173SOPE   H6S19619   3.581   3.729   9.992  1.4588  0.1924 -0.3425
  173SOPE   C2719620   3.492   3.903   9.874 -0.2870  0.1810  0.4818
  173SOPE   H7R19621   3.414   3.829   9.845  1.0861 -0.5307 -1.6059
  173SOPE   H7S19622   3.433   3.988   9.914 -3.2501 -1.4569 -0.0619
  173SOPE   C2819623   3.572   3.945   9.754 -0.0949  0.1183  0.1038
  173SOPE   H8R19624   3.662   4.009   9.767  0.0915 -0.3673  1.3230
  173SOPE   H8S19625   3.618   3.853   9.711 -0.0530 -0.6360  1.7024
  173SOPE   C2919626   3.481   4.010   9.653  0.1113 -0.4653  0.0755
  173SOPE   H9119627   3.399   4.059   9.707  0.6800 -0.9714  1.4275
  173SOPE  C21019628   3.484   3.972   9.521 -0.3029  0.3391 -0.4594
  173SOPE  H10119629   3.417   4.020   9.448 -1.4185  0.8362  0.8584
  173SOPE  C21119630   3.571   3.862   9.465  0.3151  0.0753 -0.2542
  173SOPE  H11R19631   3.539   3.760   9.496  2.5983 -0.0991  1.7228
  173SOPE  H11S19632   3.677   3.866   9.495  0.4201  1.5112 -0.7176
  173SOPE  C21219633   3.562   3.859   9.310 -0.3189  0.5118  0.6979
  173SOPE  H12R19634   3.462   3.839   9.266 -0.8593  4.2138 -0.1286
  173SOPE  H12S19635   3.620   3.767   9.288  0.7992  1.2743  0.3516
  173SOPE  C21319636   3.629   3.975   9.231 -0.2412 -0.0566  0.0818
  173SOPE  H13R19637   3.738   3.992   9.242 -0.2500 -0.6848  1.3915
  173SOPE  H13S19638   3.573   4.063   9.269 -1.3295 -0.4967 -0.4623
  173SOPE  C21419639   3.600   3.959   9.078  0.3752 -0.4817  0.3301
  173SOPE  H14R19640   3.637   3.860   9.044  2.1355  0.5563 -0.9034
  173SOPE  H14S19641   3.649   4.045   9.029 -1.1898  1.6282  2.2751
  173SOPE  C21519642   3.455   3.979   9.030 -0.0318  0.6417 -0.7061
  173SOPE  H15R19643   3.430   4.086   9.045  0.4468  0.9024 -1.6507
  173SOPE  H15S19644   3.382   3.919   9.088 -1.8736  3.3871 -0.0044
  173SOPE  C21619645   3.425   3.952   8.883  0.3625  0.5360  0.9526
  173SOPE  H16R19646   3.497   4.016   8.827  2.1888 -1.4194  0.9405
  173SOPE  H16S19647   3.322   3.988   8.862  0.5376  0.3024 -0.3948
  173SOPE  C21719648   3.428   3.798   8.853  0.3133  0.3978  0.1101
  173SOPE  H17R19649   3.351   3.754   8.921 -1.2268  1.5137 -0.8565
  173SOPE  H17S19650   3.530   3.764   8.882  0.6436  0.6516 -0.7414
  173SOPE  C21819651   3.400   3.765   8.705 -0.3870 -0.6251 -0.3206
  173SOPE  H18R19652   3.405   3.656   8.684 -0.4060 -0.1854 -3.0385
  173SOPE  H18S19653   3.474   3.818   8.641  0.4156  1.5303  2.2454
  173SOPE  H18T19654   3.302   3.808   8.675 -0.2925  0.6856  1.1251
  173SOPE   C3319655   3.289   4.182  10.237 -0.2073  0.0657  0.1145
  173SOPE   H3X19656   3.396   4.167  10.211  0.1076  2.0171  0.0971
  173SOPE   H3Y19657   3.281   4.285  10.278  3.0242  0.4653  0.0305
  173SOPE   C3419658   3.195   4.144  10.122 -0.9536 -0.3754  0.0772
  173SOPE   H4X19659   3.091   4.133  10.160 -0.6739 -0.5065  0.8179
  173SOPE   H4Y19660   3.223   4.042  10.089 -1.8771 -0.0373 -1.8731
  173SOPE   C3519661   3.206   4.241  10.001  0.1316  0.7827  0.4261
  173SOPE   H5X19662   3.313   4.236   9.972 -0.0918 -1.7101 -0.2410
  173SOPE   H5Y19663   3.183   4.346  10.028  1.2474  1.6615 -1.8152
  173SOPE   C3619664   3.101   4.193   9.893  0.0317  0.1896  0.2057
  173SOPE   H6X19665   2.995   4.198   9.927 -0.3853 -0.7863 -0.9024
  173SOPE   H6Y19666   3.119   4.086   9.869  0.4163  0.7279 -2.1655
  173SOPE   C3719667   3.118   4.268   9.757  0.2721 -0.8819 -1.0661
  173SOPE   H7X19668   3.228   4.271   9.742  0.3856  2.3181 -0.1627
  173SOPE   H7Y19669   3.087   4.374   9.758  0.0695 -0.9370 -0.0085
  173SOPE   C3819670   3.053   4.199   9.639 -0.1700 -0.2675 -0.7203
  173SOPE   H8X19671   2.953   4.247   9.634 -0.1339  0.0975  1.3313
  173SOPE   H8Y19672   3.030   4.094   9.670 -0.6165  0.9075  3.5866
  173SOPE   C3919673   3.134   4.222   9.508 -0.0657  0.1801 -0.2589
  173SOPE   H9X19674   3.239   4.207   9.542 -0.4727  0.6631  1.2746
  173SOPE   H9Y19675   3.122   4.331   9.492 -0.9614  0.3948  1.6422
  173SOPE  C31019676   3.085   4.116   9.404  0.4183  0.6449 -0.3019
  173SOPE  H10X19677   2.976   4.129   9.382  0.0628 -0.6574  0.6235
  173SOPE  H10Y19678   3.100   4.010   9.431 -0.1401 -0.0156 -2.3988
  173SOPE  C31119679   3.135   4.137   9.264  0.0511  0.9693 -0.6282
  173SOPE  H11X19680   3.131   4.038   9.214 -0.8468  0.6222  0.0864
  173SOPE  H11Y19681   3.244   4.153   9.273  0.1987 -0.3589  0.0962
  173SOPE  C31219682   3.073   4.243   9.178 -0.6884  0.8767 -0.2303
  173SOPE  H12X19683   3.094   4.339   9.229  1.2792  0.9763 -1.1424
  173SOPE  H12Y19684   2.965   4.217   9.171 -0.6142  0.9479 -2.0233
  173SOPE  C31319685   3.122   4.247   9.031 -0.1970 -0.1413  0.1158
  173SOPE  H13X19686   3.232   4.231   9.036 -0.2790 -0.3927  2.2120
  173SOPE  H13Y19687   3.092   4.348   8.998 -0.1958 -0.4566 -0.8881
  173SOPE  C31419688   3.041   4.142   8.948 -0.0570 -0.0183 -0.4756
  173SOPE  H14X19689   2.938   4.182   8.960  0.0765  0.3745 -0.6182
  173SOPE  H14Y19690   3.052   4.044   8.998  0.7041  0.2248 -0.1525
  173SOPE  C31519691   3.086   4.147   8.799  0.2307  0.0395 -0.4479
  173SOPE  H15X19692   3.197   4.148   8.795  0.2149  0.5693 -0.8091
  173SOPE  H15Y19693   3.056   4.242   8.749  1.6053 -0.8428 -3.1337
  173SOPE  C31619694   3.051   4.025   8.712 -0.2320  0.3382 -0.2227
  173SOPE  H16X19695   3.078   3.938   8.775  0.0512  1.0430  0.6528
  173SOPE  H16Y19696   3.111   4.021   8.619 -0.5806  2.1378 -0.5671
  173SOPE  C31719697   2.906   4.009   8.680 -0.3175  0.1629  1.1035
  173SOPE  H17X19698   2.851   4.000   8.777 -0.7063 -1.4111  0.7641
  173SOPE  H17Y19699   2.891   3.912   8.628  0.1593 -0.7219  2.5583
  173SOPE  C31819700   2.855   4.127   8.589 -0.8584  0.1900 -0.2246
  173SOPE  H18X19701   2.749   4.112   8.560 -0.3635  0.6187 -2.4400
  173SOPE  H18Y19702   2.915   4.116   8.496 -0.6761  2.3335 -0.3986
  173SOPE  H18Z19703   2.870   4.230   8.627  1.2418  0.5411 -1.8293
  174SOPE     N19704   2.891   2.199  11.110  0.0017  0.5915 -0.2934
  174SOPE   HN119705   2.865   2.219  11.209 -1.5488 -0.4934 -0.4389
  174SOPE   HN219706   2.840   2.117  11.071 -1.8349  1.7429 -0.3967
  174SOPE   HN319707   2.991   2.170  11.111 -0.0104  0.1419 -3.2108
  174SOPE   C1219708   2.874   2.320  11.021  0.3910  0.0739 -0.6833
  174SOPE  H12A19709   2.952   2.395  11.046 -0.8933  1.3668 -0.4613
  174SOPE  H12B19710   2.769   2.351  11.039  0.0735 -0.0993 -2.1351
  174SOPE   C1119711   2.895   2.289  10.870 -0.5808  0.5613  0.2555
  174SOPE  H11A19712   2.896   2.388  10.821 -0.7274  1.0942  1.3110
  174SOPE  H11B19713   2.806   2.233  10.832 -0.6136 -0.2801  1.4849
  174SOPE     P19714   3.148   2.263  10.765  0.2499 -0.3220 -0.3299
  174SOPE   O1319715   3.248   2.276  10.872  0.1937  0.4463  0.2332
  174SOPE   O1419716   3.129   2.378  10.675  0.0300  0.1503  0.7214
  174SOPE   O1219717   3.012   2.216  10.831  0.8599 -1.2197 -0.0956
  174SOPE   O1119718   3.188   2.144  10.668  0.3340 -0.0802  0.2043
  174SOPE    C119719   3.135   2.009  10.678 -0.0785  0.7260 -0.0881
  174SOPE    HA19720   3.054   2.001  10.753  1.0353 -1.1905  0.9675
  174SOPE    HB19721   3.208   1.944  10.730 -1.6864 -1.2544 -0.2009
  174SOPE    C219722   3.085   1.945  10.549 -0.4044  0.0978 -0.4227
  174SOPE    HS19723   3.073   1.837  10.573  0.6535  0.1541  0.4697
  174SOPE   O2119724   3.184   1.956  10.444  0.1658 -0.3788  0.1050
  174SOPE   C2119725   3.302   1.903  10.469  0.4303  0.0896 -0.0224
  174SOPE   O2219726   3.323   1.819  10.554 -0.2866  0.4140 -0.0460
  174SOPE   C2219727   3.414   1.978  10.396 -0.1015  0.3097 -0.2640
  174SOPE   H2R19728   3.497   1.981  10.469 -0.7352  0.0224  0.4861
  174SOPE   H2S19729   3.371   2.077  10.369  0.5473  0.7228  0.2093
  174SOPE    C319730   2.948   1.991  10.504 -0.2070  0.9628  0.2934
  174SOPE    HX19731   2.956   2.101  10.496 -0.7059  0.9498 -0.5417
  174SOPE    HY19732   2.871   1.969  10.581 -0.0968  0.8521  0.3720
  174SOPE   O3119733   2.911   1.928  10.376 -0.5007  0.1004 -0.1883
  174SOPE   C3119734   2.816   2.005  10.326 -0.3451 -0.1211  0.2600
  174SOPE   O3219735   2.757   2.094  10.387  0.2665 -0.5776 -0.0058
  174SOPE   C3219736   2.791   1.951  10.189 -0.7577  0.5057 -0.0988
  174SOPE   H2X19737   2.747   1.850  10.203 -1.5757  0.8029 -0.4646
  174SOPE   H2Y19738   2.890   1.941  10.140 -0.3161  0.5612  0.7595
  174SOPE   C2319739   3.461   1.902  10.271 -0.0659  0.0620  0.7663
  174SOPE   H3R19740   3.519   1.813  10.305  0.6594  0.3688  0.3513
  174SOPE   H3S19741   3.536   1.957  10.210 -0.1535  1.8387  2.1801
  174SOPE   C2419742   3.342   1.861  10.181 -1.1059  0.6233  0.3984
  174SOPE   H4R19743   3.338   1.750  10.183 -1.4337  0.6247  0.0026
  174SOPE   H4S19744   3.245   1.893  10.226  0.2238  1.8905  2.5355
  174SOPE   C2519745   3.361   1.914  10.039 -0.1761 -0.2476 -0.3130
  174SOPE   H5R19746   3.398   2.019  10.034  1.5684 -0.8513 -0.6528
  174SOPE   H5S19747   3.444   1.854   9.995  0.1277 -0.6258  0.7556
  174SOPE   C2619748   3.231   1.886   9.962 -0.1507  0.4958  0.7045
  174SOPE   H6R19749   3.214   1.787   9.914 -2.9581  2.1105 -1.9086
  174SOPE   H6S19750   3.142   1.901  10.027  0.4692 -0.0170  1.7162
  174SOPE   C2719751   3.237   1.970   9.837  0.1541  0.5569 -0.3815
  174SOPE   H7R19752   3.238   2.078   9.865 -1.0281  0.0686  1.7313
  174SOPE   H7S19753   3.332   1.964   9.779  1.2431  1.8869  1.1733
  174SOPE   C2819754   3.113   1.964   9.742  0.3455  0.0226 -0.2005
  174SOPE   H8R19755   3.027   1.987   9.808  1.0038 -0.2905  0.7932
  174SOPE   H8S19756   3.123   2.045   9.667  0.4018 -1.1236 -1.4721
  174SOPE   C2919757   3.105   1.833   9.666 -0.3982  0.5377  0.2116
  174SOPE   H9119758   3.123   1.742   9.724  0.5521  0.3418 -0.3684
  174SOPE  C21019759   3.091   1.819   9.532  0.2204  0.6483 -0.2234
  174SOPE  H10119760   3.094   1.714   9.498  0.9322  1.3791 -2.6094
  174SOPE  C21119761   3.063   1.921   9.420  0.0910 -0.0473  0.0905
  174SOPE  H11R19762   3.063   2.020   9.469 -0.1437  0.1299 -0.2688
  174SOPE  H11S19763   2.964   1.901   9.376  1.4302  0.0151 -3.2485
  174SOPE  C21219764   3.178   1.905   9.314  0.3293  0.1347 -0.4255
  174SOPE  H12R19765   3.277   1.932   9.358 -0.3365  1.7274  0.2039
  174SOPE  H12S19766   3.161   1.987   9.241 -0.3764 -0.4573 -0.9280
  174SOPE  C21319767   3.178   1.763   9.250 -0.3480  0.0125  0.0452
  174SOPE  H13R19768   3.075   1.747   9.212 -1.0894  2.9344  0.6411
  174SOPE  H13S19769   3.204   1.684   9.324  1.1642  0.6114  0.1736
  174SOPE  C21419770   3.266   1.744   9.123 -0.3832  0.7973  0.5964
  174SOPE  H14R19771   3.367   1.771   9.160 -1.2524  2.4495  1.9527
  174SOPE  H14S19772   3.230   1.823   9.053  1.7224  0.3151 -1.1179
  174SOPE  C21519773   3.275   1.600   9.071  0.5340  0.4214 -0.2309
  174SOPE  H15R19774   3.184   1.569   9.017  0.2878  1.1753 -0.2594
  174SOPE  H15S19775   3.290   1.536   9.161  0.8674  0.3944 -0.3046
  174SOPE  C21619776   3.381   1.577   8.966 -1.0176 -0.1024  0.5336
  174SOPE  H16R19777   3.395   1.469   8.943 -0.9592  0.0614 -0.2473
  174SOPE  H16S19778   3.472   1.618   9.014 -0.2852 -2.5492  1.3263
  174SOPE  C21719779   3.369   1.671   8.843 -0.5073 -0.2236 -0.5408
  174SOPE  H17R19780   3.411   1.772   8.861  1.7418 -0.6990 -2.6280
  174SOPE  H17S19781   3.260   1.679   8.824 -0.4398 -2.0395 -2.0090
  174SOPE  C21819782   3.449   1.612   8.728 -0.5343  0.0729 -0.2167
  174SOPE  H18R19783   3.405   1.519   8.686  0.6315 -1.1569  1.1515
  174SOPE  H18S19784   3.555   1.600   8.759  0.0285  2.1703 -1.1919
  174SOPE  H18T19785   3.460   1.683   8.644  0.7552  0.7860  0.5293
  174SOPE   C3319786   2.689   2.028  10.105 -0.1547  0.0376 -0.3822
  174SOPE   H3X19787   2.711   2.137  10.104 -0.2155  0.0496 -0.3780
  174SOPE   H3Y19788   2.595   2.005  10.159 -0.4283  0.2607 -0.7634
  174SOPE   C3419789   2.685   1.983   9.957  0.4165 -0.9280  0.1457
  174SOPE   H4X19790   2.659   1.875   9.960 -0.8313 -0.6634 -0.5346
  174SOPE   H4Y19791   2.785   1.988   9.907 -0.9370  3.2897 -2.7423
  174SOPE   C3519792   2.584   2.052   9.860 -0.2914  0.1210  0.8717
  174SOPE   H5X19793   2.596   2.162   9.860  0.9732  0.0377 -1.0188
  174SOPE   H5Y19794   2.488   2.026   9.908 -0.5428 -1.8400 -0.5634
  174SOPE   C3619795   2.593   2.003   9.718 -0.6962 -0.1207  0.6168
  174SOPE   H6X19796   2.695   1.962   9.702 -0.9875 -0.9304  0.7693
  174SOPE   H6Y19797   2.553   2.076   9.645 -0.9119 -1.7746 -0.9993
  174SOPE   C3719798   2.499   1.878   9.698  0.2217 -0.0444 -1.1184
  174SOPE   H7X19799   2.394   1.888   9.733  0.4505 -0.2955 -0.3543
  174SOPE   H7Y19800   2.533   1.784   9.746 -2.1078 -1.5742 -2.2389
  174SOPE   C3819801   2.498   1.841   9.545 -0.1155  0.3024  0.1543
  174SOPE   H8X19802   2.507   1.931   9.481  2.1001 -0.7951 -1.2006
  174SOPE   H8Y19803   2.406   1.780   9.532  2.5403 -4.3602  1.0262
  174SOPE   C3919804   2.610   1.747   9.507 -0.4456 -0.1688 -0.5755
  174SOPE   H9X19805   2.599   1.660   9.576 -1.0618  0.5132  0.2198
  174SOPE   H9Y19806   2.710   1.791   9.531 -1.6663  2.1185  0.7491
  174SOPE  C31019807   2.608   1.700   9.363 -0.4500 -0.0832  0.1174
  174SOPE  H10X19808   2.513   1.647   9.344 -0.7325  0.6833 -0.6649
  174SOPE  H10Y19809   2.684   1.620   9.345 -0.6888 -0.4173  0.5963
  174SOPE  C31119810   2.624   1.819   9.260 -0.7374 -0.0412  0.0619
  174SOPE  H11X19811   2.712   1.877   9.296  2.1785 -2.3601 -2.7484
  174SOPE  H11Y19812   2.531   1.880   9.256 -0.9988 -0.5075 -1.2618
  174SOPE  C31219813   2.646   1.772   9.115 -0.1367  1.1442 -0.2939
  174SOPE  H12X19814   2.553   1.729   9.073 -1.1360  1.2712  1.7170
  174SOPE  H12Y19815   2.729   1.698   9.126 -2.2491 -1.1322  1.4389
  174SOPE  C31319816   2.695   1.886   9.020 -0.9410  0.0629  0.0700
  174SOPE  H13X19817   2.778   1.941   9.069 -0.6456 -0.0038 -0.3453
  174SOPE  H13Y19818   2.616   1.964   9.025  0.7963  1.9234 -0.0075
  174SOPE  C31419819   2.726   1.832   8.878  0.1619 -0.3674 -0.6650
  174SOPE  H14X19820   2.730   1.919   8.809  4.9852  0.3548  0.1550
  174SOPE  H14Y19821   2.637   1.769   8.858  0.0950 -0.7268  0.6889
  174SOPE  C31519822   2.851   1.745   8.867  0.7936 -0.0731  0.1236
  174SOPE  H15X19823   2.848   1.654   8.930 -0.4972 -1.9920 -2.5191
  174SOPE  H15Y19824   2.934   1.810   8.905 -0.2959  2.0255 -0.9210
  174SOPE  C31619825   2.885   1.710   8.718  0.3613  0.4927 -0.2470
  174SOPE  H16X19826   2.981   1.654   8.715  0.9087  1.3716 -3.7336
  174SOPE  H16Y19827   2.900   1.801   8.657  1.3774  0.9942  0.7165
  174SOPE  C31719828   2.781   1.613   8.666 -0.1528 -0.3024  1.2278
  174SOPE  H17X19829   2.698   1.674   8.625  1.9670  0.5682 -2.1856
  174SOPE  H17Y19830   2.745   1.549   8.749 -1.6633 -2.9462 -1.2799
  174SOPE  C31819831   2.836   1.527   8.553  0.8379  0.4960 -0.1389
  174SOPE  H18X19832   2.760   1.453   8.518  0.5628 -0.1991  1.8070
  174SOPE  H18Y19833   2.919   1.462   8.589  0.8572  1.0181  0.7806
  174SOPE  H18Z19834   2.859   1.592   8.466 -0.6313  0.2992 -0.7063
  175SOPE     N19835   0.282   4.990  10.652 -0.1523 -0.0672 -0.8037
  175SOPE   HN119836   0.215   5.028  10.581 -0.3898  2.3535  0.5712
  175SOPE   HN219837   0.322   5.066  10.711  1.2393 -1.9631  0.8315
  175SOPE   HN319838   0.356   4.948  10.594 -0.3908  1.2830 -2.1714
  175SOPE   C1219839   0.235   4.878  10.744  1.5211  0.5932  0.3639
  175SOPE  H12A19840   0.171   4.910  10.829  0.3605 -1.7414  0.4578
  175SOPE  H12B19841   0.326   4.827  10.782  0.5157 -0.9110  0.8367
  175SOPE   C1119842   0.151   4.767  10.673 -0.5974 -0.0411  0.2019
  175SOPE  H11A19843   0.144   4.677  10.737 -0.0254  0.1491  0.5353
  175SOPE  H11B19844   0.206   4.727  10.585 -1.0547 -0.8163  0.2600
  175SOPE     P19845  -0.019   4.875  10.503  0.2523 -0.1867 -0.0140
  175SOPE   O1319846   0.047   5.009  10.492 -0.6294 -0.1816 -0.3494
  175SOPE   O1419847  -0.171   4.882  10.492  0.3652  0.2583 -0.3865
  175SOPE   O1219848   0.019   4.817  10.638  0.0786  0.0582 -0.2628
  175SOPE   O1119849   0.047   4.773  10.399  0.0379 -0.2814  0.5935
  175SOPE    C119850  -0.014   4.640  10.406 -0.3570 -0.7984  0.3396
  175SOPE    HA19851  -0.125   4.649  10.394 -0.3195  0.8410  1.0095
  175SOPE    HB19852   0.025   4.586  10.495 -0.8699 -0.2893  0.8863
  175SOPE    C219853   0.021   4.559  10.278 -1.0167  0.4109 -0.1209
  175SOPE    HS19854   0.132   4.551  10.279 -0.8024  2.8113 -0.2635
  175SOPE   O2119855  -0.032   4.635  10.163 -0.0019 -0.1625 -0.5032
  175SOPE   C2119856   0.053   4.725  10.117 -0.3638 -0.0321 -0.2256
  175SOPE   O2219857   0.169   4.740  10.153 -0.0692  0.0194 -0.0759
  175SOPE   C2219858  -0.004   4.787   9.990 -0.0628  0.2737 -0.1987
  175SOPE   H2R19859   0.059   4.761   9.902  1.3331  1.5310  0.3798
  175SOPE   H2S19860  -0.017   4.897  10.001 -0.5086  0.2334 -0.3258
  175SOPE    C319861  -0.047   4.417  10.284 -0.4246  0.0906  0.8261
  175SOPE    HX19862  -0.153   4.440  10.306 -0.9543  0.3271 -1.6708
  175SOPE    HY19863  -0.011   4.363  10.374  0.7563  1.4081  1.2001
  175SOPE   O3119864  -0.051   4.326  10.169  0.6127  0.4834  0.1869
  175SOPE   C3119865   0.062   4.283  10.118 -0.2287 -0.5046  0.2217
  175SOPE   O3219866   0.173   4.305  10.164  0.0702  0.4549  0.4182
  175SOPE   C3219867   0.032   4.200   9.987 -0.2787 -0.0939  0.6225
  175SOPE   H2X19868  -0.068   4.151   9.985  0.3900 -1.5684  1.7329
  175SOPE   H2Y19869   0.088   4.106  10.002  1.5403  0.8458 -0.0197
  175SOPE   C2319870  -0.147   4.738   9.949 -1.1274  1.0623 -0.2207
  175SOPE   H3R19871  -0.218   4.751  10.033 -0.4252 -1.0004  0.7520
  175SOPE   H3S19872  -0.138   4.628   9.939  0.6611  1.2193 -0.6218
  175SOPE   C2419873  -0.198   4.782   9.808  0.5384 -0.4283  0.4945
  175SOPE   H4R19874  -0.307   4.792   9.822  0.6624  1.2422  0.5075
  175SOPE   H4S19875  -0.159   4.881   9.776  0.6198 -0.9687 -1.1462
  175SOPE   C2519876  -0.167   4.685   9.694 -0.1908  0.1117 -0.7477
  175SOPE   H5R19877  -0.058   4.688   9.671 -0.0086  1.7379  0.1546
  175SOPE   H5S19878  -0.184   4.580   9.729  2.1848  0.2628  1.1743
  175SOPE   C2619879  -0.255   4.717   9.574  0.0998 -0.4020  1.0051
  175SOPE   H6R19880  -0.361   4.714   9.608 -0.1970  3.7267  0.9596
  175SOPE   H6S19881  -0.231   4.817   9.532 -0.9729 -0.7981 -0.6365
  175SOPE   C2719882  -0.225   4.613   9.465 -0.6978  0.7875 -0.1891
  175SOPE   H7R19883  -0.126   4.638   9.421  0.4681  0.2115  1.9597
  175SOPE   H7S19884  -0.203   4.510   9.503  2.0918  1.8025  1.2403
  175SOPE   C2819885  -0.336   4.610   9.360  0.3241  0.1574  0.3754
  175SOPE   H8R19886  -0.435   4.614   9.410  0.7960  0.1566  1.3406
  175SOPE   H8S19887  -0.331   4.702   9.298 -1.1760  0.7694  1.1129
  175SOPE   C2919888  -0.342   4.487   9.269  0.4866  0.0669  0.3145
  175SOPE   H9119889  -0.243   4.455   9.235  0.4985 -0.0044  0.4147
  175SOPE  C21019890  -0.455   4.430   9.217  0.4765 -0.4436  0.0110
  175SOPE  H10119891  -0.461   4.334   9.163  1.1891  0.4672 -1.7577
  175SOPE  C21119892  -0.598   4.486   9.231 -0.4291 -0.4713  0.0492
  175SOPE  H11R19893  -0.587   4.595   9.248  0.2290 -0.9411  3.2439
  175SOPE  H11S19894  -0.637   4.452   9.329 -2.3268 -0.7985 -0.7773
  175SOPE  C21219895  -0.702   4.441   9.130 -0.9098 -0.2770 -0.0215
  175SOPE  H12R19896  -0.712   4.331   9.131  0.7057 -0.4443  0.6740
  175SOPE  H12S19897  -0.663   4.473   9.030  3.9559  0.0066  1.7071
  175SOPE  C21319898  -0.845   4.497   9.158 -0.4432  0.9045  0.3166
  175SOPE  H13R19899  -0.834   4.608   9.155  1.5268  0.7415  0.6331
  175SOPE  H13S19900  -0.864   4.465   9.263  0.2019 -0.5441  0.0058
  175SOPE  C21419901  -0.961   4.451   9.070  0.6915  0.1118 -0.2541
  175SOPE  H14R19902  -1.056   4.505   9.091 -0.9198 -2.2300 -1.0124
  175SOPE  H14S19903  -0.971   4.340   9.077 -1.4794  0.2473 -0.4183
  175SOPE  C21519904  -0.939   4.490   8.923  0.2280 -0.4004 -0.5681
  175SOPE  H15R19905  -0.835   4.467   8.891  0.4465  3.3719 -3.2977
  175SOPE  H15S19906  -0.917   4.599   8.923 -1.4278 -0.0276 -1.1892
  175SOPE  C21619907  -1.037   4.446   8.813  0.0110 -0.4592  0.4249
  175SOPE  H16R19908  -1.038   4.335   8.811  0.5402 -0.4630 -0.0936
  175SOPE  H16S19909  -0.987   4.457   8.714 -0.7225 -1.3180 -0.0578
  175SOPE  C21719910  -1.169   4.521   8.816  0.0310  0.1309  0.1706
  175SOPE  H17R19911  -1.140   4.624   8.786  0.5344 -0.1863 -0.4735
  175SOPE  H17S19912  -1.218   4.528   8.915 -2.2523  0.6209 -0.9208
  175SOPE  C21819913  -1.269   4.458   8.714 -0.4456  0.7312  0.0720
  175SOPE  H18R19914  -1.212   4.422   8.626  0.1018  2.3957 -0.2873
  175SOPE  H18S19915  -1.349   4.524   8.674 -0.3353  0.0769 -1.2910
  175SOPE  H18T19916  -1.313   4.370   8.766  1.6711  0.4330  1.4870
  175SOPE   C3319917   0.058   4.290   9.863  0.1636 -0.0640 -0.7326
  175SOPE   H3X19918   0.156   4.343   9.860 -0.2901  0.7545 -1.4816
  175SOPE   H3Y19919  -0.019   4.369   9.863  0.4649  0.2425 -1.6076
  175SOPE   C3419920   0.042   4.208   9.733 -0.3901  0.0466  0.5072
  175SOPE   H4X19921  -0.043   4.137   9.732  0.1217 -0.6234  1.7159
  175SOPE   H4Y19922   0.137   4.153   9.716 -0.5935 -0.5249  1.2045
  175SOPE   C3519923   0.010   4.312   9.624 -0.8454 -0.1122  0.8676
  175SOPE   H5X19924   0.089   4.390   9.632 -1.1068  0.2053  0.4198
  175SOPE   H5Y19925  -0.090   4.360   9.637  0.0465  2.0145  0.3733
  175SOPE   C3619926   0.023   4.238   9.488  0.4236  0.7081  0.0063
  175SOPE   H6X19927  -0.074   4.252   9.435  0.9401 -0.2100 -1.2240
  175SOPE   H6Y19928   0.050   4.131   9.499  0.0703  0.1179 -3.5899
  175SOPE   C3719929   0.136   4.299   9.404  0.2300  0.3715  0.8556
  175SOPE   H7X19930   0.230   4.276   9.459 -0.1584  0.2854  1.5058
  175SOPE   H7Y19931   0.128   4.409   9.396 -0.5871  0.2463 -0.2593
  175SOPE   C3819932   0.148   4.241   9.267 -0.1209  0.0746 -0.5417
  175SOPE   H8X19933   0.046   4.226   9.227 -0.2831 -1.4530  0.3681
  175SOPE   H8Y19934   0.189   4.138   9.277 -0.7070 -0.0430  0.8537
  175SOPE   C3919935   0.219   4.329   9.164  0.3652  0.1649 -0.3666
  175SOPE   H9X19936   0.328   4.321   9.185 -0.1316  1.1824  3.2464
  175SOPE   H9Y19937   0.188   4.435   9.178 -0.4744 -0.2071  0.8036
  175SOPE  C31019938   0.173   4.297   9.022  0.7816  0.1402  0.5032
  175SOPE  H10X19939   0.063   4.291   9.016  0.5480  3.1442  0.5640
  175SOPE  H10Y19940   0.210   4.193   9.007  2.1277  0.4487  1.4603
  175SOPE  C31119941   0.226   4.395   8.918  0.6233  0.0275 -0.3749
  175SOPE  H11X19942   0.324   4.355   8.883  1.4795  1.5016  0.1962
  175SOPE  H11Y19943   0.244   4.497   8.961  1.0379  1.0102 -2.7434
  175SOPE  C31219944   0.139   4.404   8.796  0.2840 -0.4167  0.5543
  175SOPE  H12X19945   0.035   4.433   8.821  0.9080  2.5223  0.0778
  175SOPE  H12Y19946   0.137   4.303   8.749 -0.8410  0.6901 -1.9108
  175SOPE  C31319947   0.193   4.509   8.693  0.1497 -0.1369 -0.5638
  175SOPE  H13X19948   0.304   4.505   8.697  0.2764  0.5321 -2.3439
  175SOPE  H13Y19949   0.144   4.608   8.704 -0.8430 -0.7463  0.6449
  175SOPE  C31419950   0.163   4.464   8.547 -0.1091  0.6372 -0.2873
  175SOPE  H14X19951   0.190   4.550   8.481  1.5493  0.3954  0.0370
  175SOPE  H14Y19952   0.054   4.442   8.541  0.1925 -1.2672  0.6817
  175SOPE  C31519953   0.239   4.337   8.493  0.2218 -0.0816 -0.4999
  175SOPE  H15X19954   0.236   4.249   8.562 -1.7679  0.7057  0.5188
  175SOPE  H15Y19955   0.343   4.373   8.482 -0.2184  1.4566  0.0816
  175SOPE  C31619956   0.185   4.282   8.357 -0.1846 -0.8049 -0.2933
  175SOPE  H16X19957   0.165   4.376   8.303 -0.9562 -0.5232  0.4630
  175SOPE  H16Y19958   0.090   4.225   8.370 -0.4496 -0.3822 -0.3734
  175SOPE  C31719959   0.294   4.195   8.293  0.0280 -0.2931 -0.4153
  175SOPE  H17X19960   0.326   4.121   8.370 -1.5646 -1.7346 -1.0722
  175SOPE  H17Y19961   0.376   4.267   8.272 -1.1947  1.4002  0.4206
  175SOPE  C31819962   0.256   4.114   8.171  0.1281 -0.2378  0.1534
  175SOPE  H18X19963   0.185   4.035   8.203  1.1969 -0.1654  3.0294
  175SOPE  H18Y19964   0.341   4.081   8.107  1.7576  0.5081  1.8386
  175SOPE  H18Z19965   0.190   4.184   8.115  1.4588  0.7241 -0.2486
  176SOPE     N19966   4.953   3.398  11.267 -0.1945  0.7038 -0.5034
  176SOPE   HN119967   5.032   3.430  11.325 -1.2514  2.2243  0.1640
  176SOPE   HN219968   4.866   3.417  11.321  0.6825 -0.2382  1.3189
  176SOPE   HN319969   4.954   3.296  11.249  1.1805  0.8213 -1.2180
  176SOPE   C1219970   4.959   3.465  11.132  0.6683 -0.0749 -0.2073
  176SOPE  H12A19971   5.061   3.504  11.111  0.1038  1.5340 -0.1104
  176SOPE  H12B19972   4.886   3.549  11.135  0.0227 -0.6479  2.5094
  176SOPE   C1119973   4.909   3.366  11.021 -0.7079  0.1033 -0.0232
  176SOPE  H11A19974   4.983   3.284  11.013 -2.1066 -1.2123 -0.1572
  176SOPE  H11B19975   4.906   3.419  10.923 -3.3116  1.1491  0.5251
  176SOPE     P19976   4.655   3.391  11.007 -0.0472  0.0809  0.3001
  176SOPE   O1319977   4.676   3.535  11.008 -0.4953 -0.3868  0.1642
  176SOPE   O1419978   4.551   3.332  11.097  0.4328  0.4835 -0.2355
  176SOPE   O1219979   4.785   3.303  11.041  0.2401 -0.2583  0.0148
  176SOPE   O1119980   4.630   3.342  10.860 -0.1163  0.3173  0.1917
  176SOPE    C119981   4.682   3.223  10.802  0.2824  0.5031  0.0771
  176SOPE    HA19982   4.664   3.134  10.866  0.7462 -0.0994 -0.6041
  176SOPE    HB19983   4.792   3.226  10.782  0.3066  1.4106  0.2922
  176SOPE    C219984   4.615   3.201  10.666  0.2557  0.2373 -0.1730
  176SOPE    HS19985   4.644   3.106  10.618  1.5024 -1.0029  2.7685
  176SOPE   O2119986   4.650   3.315  10.581 -0.3574 -0.1223  0.0671
  176SOPE   C2119987   4.774   3.323  10.525 -0.2528  0.0317 -0.2633
  176SOPE   O2219988   4.856   3.236  10.536  0.1014 -0.1239  0.1366
  176SOPE   C2219989   4.802   3.461  10.455 -0.8053 -0.4510  0.5438
  176SOPE   H2R19990   4.879   3.509  10.519 -2.3282  0.7411  1.5522
  176SOPE   H2S19991   4.711   3.524  10.453 -1.9303 -1.9486  1.6954
  176SOPE    C319992   4.458   3.193  10.688 -0.4844  0.0897 -0.7269
  176SOPE    HX19993   4.422   3.286  10.738 -0.7873  0.6975 -2.0322
  176SOPE    HY19994   4.422   3.116  10.759 -1.6918  1.7614  0.5817
  176SOPE   O3119995   4.395   3.199  10.560  0.0552  0.0221  0.2698
  176SOPE   C3119996   4.388   3.077  10.491  0.4128 -0.9086  0.6325
  176SOPE   O3219997   4.431   2.972  10.529  0.4265  0.3861  0.0430
  176SOPE   C3219998   4.307   3.107  10.363 -0.2726 -0.8017  0.5029
  176SOPE   H2X19999   4.277   3.214  10.359  0.8205 -0.5070 -0.3385
  176SOPE   H2Y20000   4.210   3.056  10.387 -0.6770  0.0252  0.6497
  176SOPE   C2320001   4.865   3.447  10.319  0.2354  0.4828 -0.5814
  176SOPE   H3R20002   4.931   3.358  10.320 -0.5983 -0.2087  2.4899
  176SOPE   H3S20003   4.929   3.538  10.317 -0.0470  0.7179  0.5022
  176SOPE   C2420004   4.766   3.457  10.208 -0.5760  0.7531 -0.4780
  176SOPE   H4R20005   4.697   3.543  10.213  0.6272  1.7679 -0.9441
  176SOPE   H4S20006   4.828   3.466  10.116  1.7926 -0.6674  0.8710
  176SOPE   C2520007   4.679   3.326  10.188 -0.6010 -0.3983 -0.2942
  176SOPE   H5R20008   4.748   3.240  10.202  0.6420  0.8809  2.2046
  176SOPE   H5S20009   4.609   3.320  10.274  2.0805  0.6442  2.1398
  176SOPE   C2620010   4.610   3.339  10.051 -0.4358  0.4675  0.4507
  176SOPE   H6R20011   4.691   3.355   9.975  0.0334 -2.3200  0.2200
  176SOPE   H6S20012   4.561   3.243  10.022 -0.1459  0.4487 -0.0025
  176SOPE   C2720013   4.486   3.439  10.050 -0.3183  0.1082  0.0285
  176SOPE   H7R20014   4.418   3.408  10.132  1.4103 -3.2021  0.3616
  176SOPE   H7S20015   4.523   3.541  10.074  1.0421 -0.1704 -0.7801
  176SOPE   C2820016   4.417   3.453   9.912 -0.5973 -0.3050  0.4133
  176SOPE   H8R20017   4.353   3.366   9.885  0.2627 -0.4185 -1.3940
  176SOPE   H8S20018   4.336   3.528   9.920 -1.1006 -0.7481 -0.4389
  176SOPE   C2920019   4.508   3.492   9.796  0.0614 -0.1662 -0.0832
  176SOPE   H9120020   4.613   3.508   9.825  0.3252 -0.2647 -0.9484
  176SOPE  C21020021   4.466   3.494   9.667  0.3836  0.3601  0.3194
  176SOPE  H10120022   4.549   3.492   9.596  1.6567 -0.0380  1.7488
  176SOPE  C21120023   4.332   3.468   9.612  0.1016  0.7506  0.2281
  176SOPE  H11R20024   4.267   3.558   9.604 -1.1257 -0.1603 -0.3535
  176SOPE  H11S20025   4.278   3.394   9.675 -1.0668 -0.2854 -1.8446
  176SOPE  C21220026   4.361   3.390   9.479  0.3258 -0.4398 -0.2421
  176SOPE  H12R20027   4.399   3.291   9.513  0.6294  0.1895  1.3268
  176SOPE  H12S20028   4.427   3.439   9.404 -0.5090  0.3368 -0.4901
  176SOPE  C21320029   4.226   3.373   9.405  1.0109  0.6028 -0.5855
  176SOPE  H13R20030   4.150   3.448   9.437  0.2359  0.5599 -2.2196
  176SOPE  H13S20031   4.203   3.270   9.439  0.0776  0.3387 -1.9443
  176SOPE  C21420032   4.233   3.345   9.255  0.2203 -0.0979 -0.2289
  176SOPE  H14R20033   4.132   3.314   9.221  0.9755  0.9352 -3.8801
  176SOPE  H14S20034   4.303   3.263   9.226  1.3257  0.1577  1.5569
  176SOPE  C21520035   4.274   3.470   9.170  0.2410 -0.2495 -0.1017
  176SOPE  H15R20036   4.374   3.510   9.198 -0.3106  0.5789  0.7342
  176SOPE  H15S20037   4.204   3.550   9.201  1.5329  0.7444  0.3701
  176SOPE  C21620038   4.267   3.436   9.021 -0.3346 -0.3687  0.7761
  176SOPE  H16R20039   4.165   3.398   8.998 -0.2908  0.0127 -0.0546
  176SOPE  H16S20040   4.333   3.351   8.996 -1.8069 -1.0250 -1.1613
  176SOPE  C21720041   4.299   3.565   8.942 -0.2308  0.2839 -0.3064
  176SOPE  H17R20042   4.286   3.657   9.003 -1.6492 -0.1774  0.1427
  176SOPE  H17S20043   4.223   3.566   8.861  0.3693 -2.1890 -0.9929
  176SOPE  C21820044   4.435   3.563   8.867 -0.3019 -0.6663  0.4841
  176SOPE  H18R20045   4.456   3.651   8.803 -2.2998  1.3617  2.4666
  176SOPE  H18S20046   4.437   3.465   8.814 -0.4346 -1.8792  2.6213
  176SOPE  H18T20047   4.523   3.551   8.934  2.2653 -2.1567 -2.8064
  176SOPE   C3320048   4.374   3.068  10.222  0.9494  0.2841  0.4097
  176SOPE   H3X20049   4.427   2.973  10.244  0.2944  0.1233  1.3822
  176SOPE   H3Y20050   4.448   3.149  10.201 -0.3940  0.7599 -3.0036
  176SOPE   C3420051   4.274   3.050  10.105 -0.5832 -0.3943  0.1062
  176SOPE   H4X20052   4.230   3.151  10.110 -1.3349 -0.7412  0.7061
  176SOPE   H4Y20053   4.194   2.977  10.130 -1.6471  0.8343  0.3946
  176SOPE   C3520054   4.352   3.029   9.972  0.2270  0.1222  0.2071
  176SOPE   H5X20055   4.414   2.937   9.960 -0.7774 -0.3906 -1.4440
  176SOPE   H5Y20056   4.418   3.115   9.953 -0.9414  0.9116 -0.4008
  176SOPE   C3620057   4.258   3.032   9.846  0.0371  0.2095  0.0500
  176SOPE   H6X20058   4.223   3.137   9.843  2.0090  0.9487  1.2275
  176SOPE   H6Y20059   4.177   2.957   9.861  1.5460 -1.5242 -0.1027
  176SOPE   C3720060   4.333   3.007   9.712 -0.0316 -0.6241  0.1388
  176SOPE   H7X20061   4.380   2.907   9.700  1.4471  0.1267 -0.5293
  176SOPE   H7Y20062   4.418   3.078   9.704  0.3076 -0.6722  2.7248
  176SOPE   C3820063   4.239   3.012   9.595 -0.8774 -0.0357  0.6722
  176SOPE   H8X20064   4.203   3.117   9.594  1.1990  0.7329 -0.0304
  176SOPE   H8Y20065   4.153   2.944   9.614 -0.6795 -0.8661 -1.1750
  176SOPE   C3920066   4.304   2.964   9.456  0.0475 -0.5864  0.4308
  176SOPE   H9X20067   4.327   2.856   9.470 -2.1987 -1.2095 -0.1760
  176SOPE   H9Y20068   4.396   3.021   9.433 -1.1058  1.1239 -0.1576
  176SOPE  C31020069   4.200   2.983   9.335 -0.3970 -0.1683 -0.2767
  176SOPE  H10X20070   4.176   3.091   9.330  2.3988  0.4787 -1.9620
  176SOPE  H10Y20071   4.112   2.926   9.372 -0.1387 -0.1437  0.3950
  176SOPE  C31120072   4.249   2.936   9.194  0.5134  0.2253 -0.2837
  176SOPE  H11X20073   4.222   2.828   9.200  0.3554  0.2914  0.2484
  176SOPE  H11Y20074   4.359   2.949   9.199  0.5584  0.0235 -0.7073
  176SOPE  C31220075   4.183   3.009   9.078 -0.6885 -0.2433 -0.0716
  176SOPE  H12X20076   4.183   3.118   9.099  2.1126 -0.2593  0.4477
  176SOPE  H12Y20077   4.073   2.992   9.082 -1.2390  2.5311 -1.2630
  176SOPE  C31320078   4.240   2.978   8.944  0.4688  0.5906  0.3674
  176SOPE  H13X20079   4.218   2.869   8.934 -0.5749  0.6210  1.9250
  176SOPE  H13Y20080   4.350   2.988   8.960  0.1237  1.4023  2.6374
  176SOPE  C31420081   4.175   3.059   8.832  0.3928  0.0111  0.3043
  176SOPE  H14X20082   4.163   3.163   8.871 -1.9136 -0.1961  0.3036
  176SOPE  H14Y20083   4.069   3.024   8.833  0.6049 -0.6399  0.0852
  176SOPE  C31520084   4.241   3.040   8.701 -0.4839 -0.0704 -0.0015
  176SOPE  H15X20085   4.348   3.063   8.718 -1.1159  2.1847  1.3465
  176SOPE  H15Y20086   4.198   3.111   8.627  2.6888  1.1414 -0.8482
  176SOPE  C31620087   4.210   2.903   8.643 -0.0126  0.7365  0.3222
  176SOPE  H16X20088   4.103   2.878   8.625 -0.0284 -1.6608  2.8811
  176SOPE  H16Y20089   4.232   2.832   8.726 -0.4584  1.2012  0.8466
  176SOPE  C31720090   4.293   2.859   8.520  0.1810  0.5722  0.0929
  176SOPE  H17X20091   4.400   2.877   8.546  0.5637  0.8048 -1.5680
  176SOPE  H17Y20092   4.255   2.915   8.432 -0.5888  0.5636  0.4155
  176SOPE  C31820093   4.270   2.710   8.483  0.2199 -0.1688  0.1473
  176SOPE  H18X20094   4.308   2.656   8.572  2.2822 -0.8609 -1.0783
  176SOPE  H18Y20095   4.313   2.669   8.389 -0.6641 -1.3192  0.2174
  176SOPE  H18Z20096   4.160   2.697   8.473 -0.0608  1.2387  1.1474
  177SOPE     N20097   4.222   1.379  10.819  0.2318 -0.1676 -0.1368
  177SOPE   HN120098   4.122   1.406  10.822 -0.4390 -2.4425  2.6685
  177SOPE   HN220099   4.243   1.370  10.718  0.0490  1.0536 -0.3014
  177SOPE   HN320100   4.222   1.287  10.867 -3.3092 -1.0694 -1.6069
  177SOPE   C1220101   4.290   1.492  10.896  0.4924  0.5731 -0.2304
  177SOPE  H12A20102   4.280   1.578  10.827 -1.4735 -0.9699 -2.0057
  177SOPE  H12B20103   4.395   1.454  10.904  0.9847  2.1537  1.5654
  177SOPE   C1120104   4.220   1.506  11.028  0.4350 -0.6679  0.2030
  177SOPE  H11A20105   4.269   1.586  11.088  0.6130 -1.6807  1.4490
  177SOPE  H11B20106   4.236   1.408  11.078  1.3446 -0.6323 -0.0109
  177SOPE     P20107   3.949   1.466  11.035 -0.2551 -0.3052 -0.2468
  177SOPE   O1320108   3.849   1.569  10.995 -0.1005 -0.6355 -0.0892
  177SOPE   O1420109   3.950   1.403  11.168  0.2232  0.0991 -1.0695
  177SOPE   O1220110   4.084   1.536  11.015 -0.2659  0.4431  0.0314
  177SOPE   O1120111   3.964   1.358  10.920 -0.5413  0.2966 -0.1873
  177SOPE    C120112   3.854   1.285  10.874  0.5525  0.2950  0.1674
  177SOPE    HA20113   3.753   1.298  10.918 -1.1876 -2.0755 -2.7959
  177SOPE    HB20114   3.878   1.177  10.883 -0.0493  0.2387  1.3067
  177SOPE    C220115   3.838   1.292  10.721  0.1736  0.0552 -0.3802
  177SOPE    HS20116   3.927   1.261  10.663 -1.1280 -3.0733 -0.9068
  177SOPE   O2120117   3.794   1.422  10.683  0.1469  0.2454  0.2113
  177SOPE   C2120118   3.887   1.511  10.677  0.1465  0.0055 -1.2518
  177SOPE   O2220119   4.007   1.497  10.683 -0.3466 -0.8250  0.1162
  177SOPE   C2220120   3.825   1.648  10.667 -0.1370  0.2353  0.2540
  177SOPE   H2R20121   3.844   1.704  10.762 -0.3814  0.3938  0.2084
  177SOPE   H2S20122   3.717   1.630  10.649 -0.1176  0.3867 -0.0102
  177SOPE    C320123   3.728   1.190  10.679 -0.1827 -0.4663  0.7063
  177SOPE    HX20124   3.638   1.209  10.741 -0.6190 -2.5741  0.7892
  177SOPE    HY20125   3.755   1.085  10.701  0.9255 -0.2747  0.3305
  177SOPE   O3120126   3.698   1.201  10.533 -0.8121 -0.4258 -0.2641
  177SOPE   C3120127   3.599   1.288  10.501 -0.2746  0.1659  0.1671
  177SOPE   O3220128   3.526   1.348  10.580 -0.7469 -0.1150 -0.3404
  177SOPE   C3220129   3.591   1.298  10.348  0.6059 -0.3921 -0.7307
  177SOPE   H2X20130   3.610   1.196  10.310 -0.1733 -0.8079 -0.0351
  177SOPE   H2Y20131   3.668   1.370  10.313 -0.7695  1.2265 -0.5776
  177SOPE   C2320132   3.880   1.717  10.546 -0.4703  0.7433  0.4986
  177SOPE   H3R20133   3.862   1.645  10.464 -0.6807  0.8621  0.4375
  177SOPE   H3S20134   3.989   1.727  10.565 -0.6791  1.9209  1.2276
  177SOPE   C2420135   3.805   1.845  10.499  1.3312  0.2223  0.6921
  177SOPE   H4R20136   3.711   1.831  10.441  0.7398  0.9187  1.4653
  177SOPE   H4S20137   3.792   1.899  10.595  0.5152  0.5873  0.3810
  177SOPE   C2520138   3.895   1.934  10.412  0.8578 -0.0297  0.3308
  177SOPE   H5R20139   3.857   2.039  10.419  0.0503 -0.3681  1.2175
  177SOPE   H5S20140   3.999   1.926  10.448  0.9159  2.0982  0.7670
  177SOPE   C2620141   3.899   1.904  10.256  0.4982  0.3019 -0.3572
  177SOPE   H6R20142   3.947   1.807  10.232 -1.2357 -0.6057 -0.3650
  177SOPE   H6S20143   3.796   1.877  10.223  0.7034 -1.7967  0.5417
  177SOPE   C2720144   3.959   2.030  10.180 -0.2072 -0.3674 -0.9103
  177SOPE   H7R20145   3.883   2.110  10.184  0.4811  0.2606  0.5229
  177SOPE   H7S20146   4.047   2.065  10.238  0.4532  1.4334 -2.8402
  177SOPE   C2820147   4.007   2.007  10.033  0.5596 -0.0895  0.2140
  177SOPE   H8R20148   4.070   1.916  10.030 -0.8950 -1.2331  1.9333
  177SOPE   H8S20149   3.924   1.971   9.968  1.6584 -1.4686 -0.4576
  177SOPE   C2920150   4.076   2.131   9.980 -0.6347 -0.2907  0.3366
  177SOPE   H9120151   4.150   2.171  10.052 -0.6387 -0.1887  0.2843
  177SOPE  C21020152   4.071   2.183   9.858 -0.0630 -0.6761 -0.3070
  177SOPE  H10120153   4.133   2.272   9.839  1.2846 -1.1918  1.3668
  177SOPE  C21120154   4.002   2.126   9.736 -0.1247  0.9020  0.5929
  177SOPE  H11R20155   3.938   2.208   9.697 -2.6074 -0.5119  1.4041
  177SOPE  H11S20156   3.922   2.053   9.763 -0.1945  0.2687 -1.1769
  177SOPE  C21220157   4.103   2.080   9.631  0.2196  0.8914 -0.5759
  177SOPE  H12R20158   4.180   2.011   9.672  1.5620  2.6348  0.0232
  177SOPE  H12S20159   4.155   2.174   9.599 -3.0113  3.2594  0.5580
  177SOPE  C21320160   4.040   2.015   9.508  0.9762  0.5587 -0.0181
  177SOPE  H13R20161   3.969   1.938   9.546  1.4484  1.3292  2.6736
  177SOPE  H13S20162   4.123   1.961   9.458 -0.5105 -0.5262 -1.4234
  177SOPE  C21420163   3.981   2.123   9.417  0.3014 -0.3275 -0.3040
  177SOPE  H14R20164   4.061   2.197   9.392 -1.0500  1.2538 -0.0729
  177SOPE  H14S20165   3.899   2.173   9.472 -0.2262 -2.1150  0.6155
  177SOPE  C21520166   3.925   2.079   9.281  0.5085  0.5425  0.3704
  177SOPE  H15R20167   3.915   2.169   9.216  1.7885  0.5305  0.1246
  177SOPE  H15S20168   3.835   2.015   9.269  1.6493 -1.1290  0.4321
  177SOPE  C21620169   4.022   2.002   9.193 -0.8059  0.2101 -0.2430
  177SOPE  H16R20170   3.986   1.961   9.095 -1.4264 -1.2300  0.5534
  177SOPE  H16S20171   4.043   1.910   9.252 -1.4882 -0.6942 -1.3587
  177SOPE  C21720172   4.152   2.074   9.154  0.3647 -0.3070  0.6828
  177SOPE  H17R20173   4.209   2.106   9.244  1.1939  1.6643 -0.4837
  177SOPE  H17S20174   4.135   2.161   9.088  1.4275 -0.1269  0.6231
  177SOPE  C21820175   4.247   1.995   9.071 -0.8760  0.3030 -0.3050
  177SOPE  H18R20176   4.287   1.902   9.118  2.8117  1.2013 -1.3493
  177SOPE  H18S20177   4.335   2.053   9.037 -0.6047  0.0032 -0.1153
  177SOPE  H18T20178   4.206   1.976   8.970  0.5794 -0.4089 -0.7857
  177SOPE   C3320179   3.452   1.343  10.303 -0.2142 -0.3963  0.1228
  177SOPE   H3X20180   3.434   1.442  10.352  0.3962  1.4470 -3.0734
  177SOPE   H3Y20181   3.368   1.273  10.322 -0.7897  0.2002 -0.1561
  177SOPE   C3420182   3.451   1.381  10.159 -0.1691 -0.8866  0.3296
  177SOPE   H4X20183   3.512   1.308  10.102  1.3456  0.3980  0.2164
  177SOPE   H4Y20184   3.491   1.482  10.137 -3.1426  0.3671  0.1641
  177SOPE   C3520185   3.300   1.387  10.115 -0.2549 -0.6566 -0.1651
  177SOPE   H5X20186   3.244   1.445  10.191  1.7486  0.1548  0.7714
  177SOPE   H5Y20187   3.248   1.289  10.112  0.9784 -1.3200 -1.1882
  177SOPE   C3620188   3.286   1.456   9.983 -0.0525 -0.4727  0.2023
  177SOPE   H6X20189   3.309   1.564   9.996  0.3478 -0.2910 -1.6859
  177SOPE   H6Y20190   3.176   1.465   9.964 -0.1026  0.3153  0.8114
  177SOPE   C3720191   3.353   1.387   9.871 -0.2743  0.5284 -0.2264
  177SOPE   H7X20192   3.310   1.285   9.873 -0.3489  0.5655  0.5111
  177SOPE   H7Y20193   3.462   1.374   9.884 -0.2152  1.3622  0.2343
  177SOPE   C3820194   3.314   1.447   9.738 -0.1204  0.6420 -0.4606
  177SOPE   H8X20195   3.341   1.555   9.742 -1.8733  1.1087 -0.7250
  177SOPE   H8Y20196   3.204   1.439   9.727 -0.0250  0.0946 -1.0171
  177SOPE   C3920197   3.362   1.390   9.606 -0.0826  0.1605 -0.0964
  177SOPE   H9X20198   3.351   1.468   9.528 -3.7061  1.2752  1.3088
  177SOPE   H9Y20199   3.287   1.310   9.589 -0.0466  0.1883 -0.3810
  177SOPE  C31020200   3.500   1.323   9.610 -0.7643  0.1466 -0.1259
  177SOPE  H10X20201   3.501   1.247   9.692 -3.4402 -1.8300 -1.7655
  177SOPE  H10Y20202   3.574   1.405   9.624  0.4360 -0.9889  0.3146
  177SOPE  C31120203   3.528   1.256   9.472 -0.2699  0.5349  0.1589
  177SOPE  H11X20204   3.447   1.188   9.438  0.8495 -1.5026  1.3777
  177SOPE  H11Y20205   3.610   1.183   9.489 -1.6294 -0.4954  2.7942
  177SOPE  C31220206   3.567   1.364   9.366  0.1044  0.2325 -0.3322
  177SOPE  H12X20207   3.646   1.417   9.423 -1.9680  1.5715  1.4479
  177SOPE  H12Y20208   3.484   1.436   9.352 -0.1721 -0.2768 -1.4602
  177SOPE  C31320209   3.626   1.305   9.240 -0.2850  0.1667  0.1228
  177SOPE  H13X20210   3.684   1.212   9.258 -2.9153 -1.4896  0.6714
  177SOPE  H13Y20211   3.698   1.364   9.179  0.1879 -0.4512  0.0777
  177SOPE  C31420212   3.523   1.272   9.133  0.2364  0.2356  0.2445
  177SOPE  H14X20213   3.472   1.367   9.105 -0.0072 -0.0216 -0.1912
  177SOPE  H14Y20214   3.439   1.216   9.180 -0.2293 -2.3187 -3.2207
  177SOPE  C31520215   3.569   1.191   9.009  0.1235  0.3787 -0.0773
  177SOPE  H15X20216   3.483   1.162   8.945 -0.7019 -0.4294  1.3408
  177SOPE  H15Y20217   3.609   1.100   9.057 -0.9755 -0.4631 -0.7143
  177SOPE  C31620218   3.684   1.256   8.920  0.1201  0.1166  0.1857
  177SOPE  H16X20219   3.778   1.267   8.979  0.5031  1.3412 -0.6224
  177SOPE  H16Y20220   3.658   1.360   8.891  1.7029  0.3476 -0.5371
  177SOPE  C31720221   3.702   1.174   8.794  0.2893  0.1914 -0.1266
  177SOPE  H17X20222   3.605   1.155   8.743  0.1870  1.1287 -0.3027
  177SOPE  H17Y20223   3.738   1.074   8.826  0.3710  0.3849  0.3965
  177SOPE  C31820224   3.783   1.246   8.682 -0.6632  0.0368  0.2944
  177SOPE  H18X20225   3.714   1.296   8.611  1.7080 -0.4306 -2.5212
  177SOPE  H18Y20226   3.838   1.165   8.631 -0.1791  0.6259 -0.1317
  177SOPE  H18Z20227   3.846   1.330   8.719 -0.4010  0.4235 -0.9973
  178SOPE     N20228   1.129   5.975  10.817 -0.0852  0.5457 -0.4510
  178SOPE   HN120229   1.150   6.074  10.843  1.2428 -0.0033  0.7534
  178SOPE   HN220230   1.038   5.948  10.775  0.0296 -1.3009  0.3524
  178SOPE   HN320231   1.135   5.917  10.903 -2.8612 -0.6723 -0.9743
  178SOPE   C1220232   1.257   5.928  10.746 -0.1085 -1.0808 -0.2865
  178SOPE  H12A20233   1.333   5.887  10.816  0.0004  1.2698  1.0709
  178SOPE  H12B20234   1.289   6.024  10.700  0.5277  0.0428  2.3084
  178SOPE   C1120235   1.223   5.812  10.652 -0.1050 -0.1815  0.1795
  178SOPE  H11A20236   1.309   5.804  10.583  0.6459  1.6717  0.8397
  178SOPE  H11B20237   1.134   5.837  10.590 -0.4054  0.8543  0.9925
  178SOPE     P20238   1.262   5.559  10.720  0.0006 -0.2364 -0.1769
  178SOPE   O1320239   1.155   5.460  10.739  0.1669 -0.5636 -0.1970
  178SOPE   O1420240   1.381   5.558  10.806 -0.6871  0.0279  0.5166
  178SOPE   O1220241   1.194   5.700  10.735 -0.4682 -0.7347  0.3148
  178SOPE   O1120242   1.309   5.562  10.576  0.6251  0.1918 -0.2355
  178SOPE    C120243   1.218   5.536  10.467  0.2226 -0.2372  0.1872
  178SOPE    HA20244   1.121   5.581  10.496 -0.5366 -1.1328 -0.8664
  178SOPE    HB20245   1.195   5.431  10.443  2.0371 -0.1308 -2.4243
  178SOPE    C220246   1.272   5.587  10.333  0.2458 -0.8173 -0.3130
  178SOPE    HS20247   1.310   5.502  10.273  1.2752 -0.3012 -0.4214
  178SOPE   O2120248   1.371   5.683  10.353  0.0061  0.2873  0.3322
  178SOPE   C2120249   1.496   5.643  10.353  0.0397  0.4896 -0.0822
  178SOPE   O2220250   1.530   5.529  10.328 -0.2970 -0.2079 -0.1108
  178SOPE   C2220251   1.583   5.761  10.402  0.2769  0.3500 -0.5992
  178SOPE   H2R20252   1.586   5.753  10.512 -0.2169  1.3414 -0.5015
  178SOPE   H2S20253   1.540   5.860  10.375  0.6417  0.7327  0.2091
  178SOPE    C320254   1.161   5.659  10.245 -0.7674  0.0409  0.2770
  178SOPE    HX20255   1.126   5.747  10.303 -2.1175 -1.0504  1.1991
  178SOPE    HY20256   1.083   5.581  10.232 -1.9502  1.1746  0.3454
  178SOPE   O3120257   1.229   5.707  10.120  0.2394  0.3967 -1.0017
  178SOPE   C3120258   1.236   5.613  10.034 -0.1434 -0.4281 -0.2218
  178SOPE   O3220259   1.190   5.498  10.039  0.1184  0.1416  0.0959
  178SOPE   C3220260   1.328   5.657   9.924 -0.1487 -0.0126 -0.0437
  178SOPE   H2X20261   1.363   5.762   9.940  1.3354 -0.0466 -2.5296
  178SOPE   H2Y20262   1.282   5.655   9.823 -0.6760  1.3943  0.1376
  178SOPE   C2320263   1.728   5.748  10.338 -0.1657  0.2697 -0.6873
  178SOPE   H3R20264   1.770   5.646  10.354 -2.8427 -1.2520 -2.7381
  178SOPE   H3S20265   1.808   5.814  10.380  0.1524  0.6255 -1.8251
  178SOPE   C2420266   1.724   5.751  10.176 -0.3383 -0.2869 -0.4017
  178SOPE   H4R20267   1.669   5.665  10.133  0.9064 -0.1088 -2.4814
  178SOPE   H4S20268   1.675   5.848  10.155  1.2856  0.7424  0.3597
  178SOPE   C2520269   1.863   5.756  10.121  0.0682 -0.3953  0.0847
  178SOPE   H5R20270   1.911   5.851  10.153 -0.5268 -0.9962  3.0955
  178SOPE   H5S20271   1.919   5.681  10.181  2.2699  0.1968 -1.1223
  178SOPE   C2620272   1.882   5.715   9.975  0.1495  0.6379  0.4512
  178SOPE   H6R20273   1.976   5.666   9.940  0.1084 -0.9541  2.3992
  178SOPE   H6S20274   1.808   5.634   9.967  1.6751 -0.7147 -0.7354
  178SOPE   C2720275   1.847   5.820   9.865 -0.5039 -0.2199  0.1041
  178SOPE   H7R20276   1.741   5.849   9.877 -0.3750  0.0819  0.5407
  178SOPE   H7S20277   1.913   5.909   9.879  1.5682 -0.6744 -4.6403
  178SOPE   C2820278   1.873   5.773   9.726 -0.4048 -0.6193 -0.0670
  178SOPE   H8R20279   1.980   5.745   9.720  0.0469  1.1231 -0.7731
  178SOPE   H8S20280   1.812   5.682   9.708 -1.8845  0.2853  0.1715
  178SOPE   C2920281   1.818   5.869   9.622 -0.5475  0.0510 -0.3233
  178SOPE   H9120282   1.721   5.915   9.646 -0.2526 -0.6097  2.5936
  178SOPE  C21020283   1.880   5.896   9.505  0.1361  0.6150 -0.2697
  178SOPE  H10120284   1.829   5.948   9.422  0.6512 -0.6311 -1.4203
  178SOPE  C21120285   2.022   5.848   9.472 -0.8504  0.3075  0.2612
  178SOPE  H11R20286   2.035   5.742   9.501 -1.6409  0.6141  1.8886
  178SOPE  H11S20287   2.107   5.902   9.521  0.9300 -0.1014 -2.1859
  178SOPE  C21220288   2.043   5.886   9.323 -0.2453  0.0102  0.1358
  178SOPE  H12R20289   2.003   5.989   9.309  0.3842  0.2444  0.0546
  178SOPE  H12S20290   1.972   5.833   9.256  1.3808 -0.6199 -1.1596
  178SOPE  C21320291   2.188   5.875   9.266  0.0415 -0.2004  0.8416
  178SOPE  H13R20292   2.249   5.954   9.315 -0.9656  1.6413 -0.7790
  178SOPE  H13S20293   2.185   5.909   9.161 -0.8730 -1.7503  0.3287
  178SOPE  C21420294   2.249   5.739   9.283 -0.3402  0.3799  0.0313
  178SOPE  H14R20295   2.173   5.675   9.333 -1.4184 -0.1883 -2.1906
  178SOPE  H14S20296   2.342   5.738   9.344 -1.4064 -0.8313  1.7422
  178SOPE  C21520297   2.276   5.674   9.148 -0.3074 -0.6186  0.2880
  178SOPE  H15R20298   2.186   5.682   9.084  0.9198 -0.4200 -1.4751
  178SOPE  H15S20299   2.311   5.568   9.146  2.3595  0.1457  1.1699
  178SOPE  C21620300   2.394   5.742   9.073  0.0814  0.2433  0.0737
  178SOPE  H16R20301   2.492   5.728   9.123 -0.1309 -2.2129 -0.0387
  178SOPE  H16S20302   2.382   5.852   9.065 -0.0799  0.1387 -1.4183
  178SOPE  C21720303   2.409   5.679   8.930 -0.4190  0.0202  0.1176
  178SOPE  H17R20304   2.333   5.727   8.865  0.2528 -0.1712 -0.8294
  178SOPE  H17S20305   2.397   5.569   8.940  0.7276 -0.3019 -1.6878
  178SOPE  C21820306   2.538   5.706   8.857  0.0662 -0.4212 -0.0585
  178SOPE  H18R20307   2.566   5.813   8.847 -0.8049 -0.1136  0.6402
  178SOPE  H18S20308   2.528   5.654   8.759 -1.6676  1.1047 -0.7592
  178SOPE  H18T20309   2.625   5.663   8.911  2.5350  1.7314 -2.0427
  178SOPE   C3320310   1.451   5.564   9.921 -0.5327 -0.0301 -0.8608
  178SOPE   H3X20311   1.420   5.459   9.939  1.5383 -0.6820 -0.8323
  178SOPE   H3Y20312   1.510   5.591  10.011 -1.0773  0.9149 -0.7659
  178SOPE   C3420313   1.543   5.589   9.809 -0.4814 -0.1507 -0.6317
  178SOPE   H4X20314   1.623   5.513   9.824 -0.5267 -0.2335 -0.8169
  178SOPE   H4Y20315   1.597   5.686   9.816 -0.2048 -0.3989  1.0303
  178SOPE   C3520316   1.491   5.555   9.674  0.3014  0.0454 -0.6213
  178SOPE   H5X20317   1.428   5.633   9.627 -0.5167  0.3044  0.8403
  178SOPE   H5Y20318   1.440   5.457   9.683  1.3282 -0.4642 -0.1937
  178SOPE   C3620319   1.610   5.543   9.580 -0.5350 -0.2583  0.7643
  178SOPE   H6X20320   1.682   5.469   9.623  0.9371  0.8195  0.2357
  178SOPE   H6Y20321   1.659   5.641   9.559 -0.5609 -0.8113 -2.4340
  178SOPE   C3720322   1.573   5.491   9.440  0.5739  0.8919  0.8319
  178SOPE   H7X20323   1.511   5.574   9.400  1.1595  0.6936 -0.5328
  178SOPE   H7Y20324   1.518   5.398   9.465 -3.2381  2.9081  0.7908
  178SOPE   C3820325   1.687   5.477   9.343  0.7132  0.0397  0.5892
  178SOPE   H8X20326   1.751   5.387   9.356  0.2683 -0.3193  0.3293
  178SOPE   H8Y20327   1.744   5.572   9.345 -1.5539  1.5916 -1.8716
  178SOPE   C3920328   1.634   5.463   9.202 -0.1530 -0.2252  0.5781
  178SOPE   H9X20329   1.724   5.444   9.139 -0.8932 -0.1977 -0.5116
  178SOPE   H9Y20330   1.586   5.554   9.161 -1.0953 -1.0082 -0.0896
  178SOPE  C31020331   1.521   5.354   9.174  0.3004 -0.0384  0.0659
  178SOPE  H10X20332   1.432   5.387   9.233  0.6188  0.8210  0.0704
  178SOPE  H10Y20333   1.558   5.258   9.216  1.8792 -0.0552 -1.2857
  178SOPE  C31120334   1.486   5.350   9.028 -0.1479  0.1075 -0.6459
  178SOPE  H11X20335   1.427   5.259   9.006 -0.1373 -0.3365  1.0120
  178SOPE  H11Y20336   1.573   5.349   8.959  0.0632 -1.4032 -0.3970
  178SOPE  C31220337   1.402   5.473   8.987 -0.0499 -0.6624  0.3809
  178SOPE  H12X20338   1.471   5.560   8.985 -1.5896  0.5896  0.6587
  178SOPE  H12Y20339   1.332   5.482   9.073  0.1946  0.9580  0.4446
  178SOPE  C31320340   1.335   5.464   8.849 -0.3511 -0.2383  0.2702
  178SOPE  H13X20341   1.282   5.367   8.835 -0.4896 -0.1636  0.2673
  178SOPE  H13Y20342   1.413   5.479   8.772  0.9046  0.3747  1.6149
  178SOPE  C31420343   1.228   5.568   8.830  0.6124 -0.0977 -0.0077
  178SOPE  H14X20344   1.281   5.666   8.827 -0.2601  0.3746 -0.2838
  178SOPE  H14Y20345   1.162   5.565   8.919  1.2570 -1.9353  0.4385
  178SOPE  C31520346   1.138   5.551   8.702  0.9097  0.3108 -0.1407
  178SOPE  H15X20347   1.054   5.622   8.707  1.6111  1.0906  0.9865
  178SOPE  H15Y20348   1.096   5.449   8.715  0.9706  0.5935  3.0722
  178SOPE  C31620349   1.219   5.551   8.570 -0.2594  0.3329  0.6793
  178SOPE  H16X20350   1.159   5.523   8.481  0.7127  0.2311  0.0437
  178SOPE  H16Y20351   1.297   5.472   8.579  0.0422  0.6286  0.6855
  178SOPE  C31720352   1.303   5.677   8.549 -0.4052 -1.1702 -0.1394
  178SOPE  H17X20353   1.393   5.666   8.613 -0.5204 -0.9660  0.0606
  178SOPE  H17Y20354   1.245   5.764   8.587 -0.7639 -1.2911 -0.4043
  178SOPE  C31820355   1.343   5.699   8.404 -0.4768  0.0721  0.2987
  178SOPE  H18X20356   1.373   5.806   8.403 -2.6566  0.7887  2.1305
  178SOPE  H18Y20357   1.250   5.683   8.346 -0.5025 -1.3404  0.6875
  178SOPE  H18Z20358   1.431   5.633   8.390 -0.2446  0.1860  1.1560
  179SOPE     N20359   2.103   6.711   6.004  0.5696 -0.4248 -0.8022
  179SOPE   HN120360   2.199   6.727   5.967  0.1390  1.2668 -1.2836
  179SOPE   HN220361   2.054   6.636   5.951 -0.3068 -0.4552  0.0204
  179SOPE   HN320362   2.055   6.802   5.990 -0.2229 -0.7247 -0.1102
  179SOPE   C1220363   2.126   6.682   6.148  0.4246 -0.1018  0.7547
  179SOPE  H12A20364   2.200   6.600   6.157  0.8473  0.3511  1.6170
  179SOPE  H12B20365   2.029   6.651   6.191 -0.8890  1.0503 -1.2568
  179SOPE   C1120366   2.195   6.803   6.214 -0.3008  0.3513  0.2533
  179SOPE  H11A20367   2.268   6.842   6.139  0.5581 -1.0042  0.3293
  179SOPE  H11B20368   2.264   6.768   6.294  1.2689  0.2257 -1.0766
  179SOPE     P20369   2.032   6.878   6.406 -0.2426 -0.2994 -0.1054
  179SOPE   O1320370   1.886   6.895   6.388 -0.1347 -0.1427  0.1484
  179SOPE   O1420371   2.105   6.963   6.504  0.2942 -0.6998  0.3217
  179SOPE   O1220372   2.101   6.894   6.259  0.1867  0.0444 -0.1279
  179SOPE   O1120373   2.069   6.733   6.449  0.7776 -0.1672  0.3391
  179SOPE    C120374   1.958   6.638   6.475 -1.3720 -0.4438 -0.6567
  179SOPE    HA20375   2.017   6.545   6.492 -0.0436  0.0274 -2.4119
  179SOPE    HB20376   1.884   6.642   6.393 -0.9657  3.1772 -1.0093
  179SOPE    C220377   1.885   6.676   6.608  0.0151 -0.1451  0.4065
  179SOPE    HS20378   1.818   6.763   6.589  0.3869  0.4480  1.6639
  179SOPE   O2120379   1.982   6.709   6.722  0.1006  0.2474  0.0990
  179SOPE   C2120380   1.967   6.824   6.780  0.2923  0.2012  0.2694
  179SOPE   O2220381   1.867   6.898   6.770 -0.3319 -0.7795  0.0732
  179SOPE   C2220382   2.076   6.845   6.879  0.0033  0.7337 -0.3255
  179SOPE   H2R20383   2.170   6.825   6.824 -1.0688 -2.9130 -1.1411
  179SOPE   H2S20384   2.082   6.761   6.952  1.0475  1.6932  0.7470
  179SOPE    C320385   1.792   6.558   6.638  0.8713 -0.3336  0.5224
  179SOPE    HX20386   1.855   6.467   6.638  0.1970 -0.8096 -0.1544
  179SOPE    HY20387   1.718   6.551   6.556 -0.2171  2.1254  1.1723
  179SOPE   O3120388   1.729   6.572   6.769  0.6349 -0.0577  0.3251
  179SOPE   C3120389   1.620   6.660   6.771  0.5781  0.0933  0.1642
  179SOPE   O3220390   1.580   6.732   6.684 -0.4148  0.3367 -0.1152
  179SOPE   C3220391   1.566   6.664   6.920  0.0416 -0.0867  0.3322
  179SOPE   H2X20392   1.569   6.560   6.960  0.1070 -1.5121 -3.0580
  179SOPE   H2Y20393   1.461   6.697   6.906  0.0093 -0.5274 -0.5240
  179SOPE   C2320394   2.085   6.969   6.967 -0.4230 -0.4210 -0.2440
  179SOPE   H3R20395   2.097   7.066   6.916 -2.3151  1.1865  2.1433
  179SOPE   H3S20396   2.175   6.957   7.031 -0.4930 -0.6800 -0.1930
  179SOPE   C2420397   1.959   6.992   7.059  0.1353 -0.4529 -0.6601
  179SOPE   H4R20398   1.916   7.085   7.015  2.7365  0.4855 -1.3519
  179SOPE   H4S20399   1.890   6.908   7.035  1.0020 -0.9110 -1.6347
  179SOPE   C2520400   2.007   7.008   7.202 -0.4785  0.1178  0.4813
  179SOPE   H5R20401   2.057   6.916   7.239  0.0233 -0.7048 -1.9970
  179SOPE   H5S20402   2.073   7.097   7.208 -0.8229  0.2890  2.0504
  179SOPE   C2620403   1.891   7.029   7.294 -0.3986 -0.0684  0.2318
  179SOPE   H6R20404   1.835   6.934   7.299  0.8364 -1.0991 -2.9889
  179SOPE   H6S20405   1.942   7.051   7.390  1.6677  0.4793 -0.9352
  179SOPE   C2720406   1.797   7.147   7.268  0.1121  0.5291 -0.2865
  179SOPE   H7R20407   1.848   7.228   7.212 -0.4184 -0.8696 -2.9422
  179SOPE   H7S20408   1.716   7.108   7.202 -1.1157 -1.6760  2.2988
  179SOPE   C2820409   1.726   7.189   7.396  0.7215  0.2488  0.7730
  179SOPE   H8R20410   1.630   7.238   7.368  1.7677  0.6250 -2.6496
  179SOPE   H8S20411   1.702   7.093   7.447 -0.0023  0.0924  0.1601
  179SOPE   C2920412   1.793   7.282   7.483 -1.0607  0.6907  0.6498
  179SOPE   H9120413   1.804   7.381   7.437 -0.6189 -0.3988 -1.7476
  179SOPE  C21020414   1.840   7.253   7.612 -0.3223 -0.2436  0.6573
  179SOPE  H10120415   1.892   7.333   7.667  1.4547  0.8491 -2.3087
  179SOPE  C21120416   1.809   7.127   7.689  0.1479  0.0316  0.3562
  179SOPE  H11R20417   1.893   7.129   7.761  1.7820 -1.7006 -1.3722
  179SOPE  H11S20418   1.812   7.032   7.631  0.6120  0.5514 -0.4928
  179SOPE  C21220419   1.676   7.148   7.761  0.7863 -0.7595 -0.4595
  179SOPE  H12R20420   1.653   7.053   7.813  1.1386 -1.8346 -2.1632
  179SOPE  H12S20421   1.606   7.143   7.675 -0.8229 -0.9878  0.8131
  179SOPE  C21320422   1.667   7.273   7.856  0.6172 -0.1254  0.3947
  179SOPE  H13R20423   1.682   7.361   7.790  0.4546 -0.2721  0.1583
  179SOPE  H13S20424   1.760   7.265   7.917  1.0423  1.9845  0.0780
  179SOPE  C21420425   1.550   7.281   7.948  0.5196 -0.0547 -0.8876
  179SOPE  H14R20426   1.525   7.176   7.973 -1.5936  0.4898 -0.5243
  179SOPE  H14S20427   1.468   7.326   7.888  0.5191 -0.7235 -1.3929
  179SOPE  C21520428   1.570   7.374   8.068 -0.3235 -0.1778  0.0461
  179SOPE  H15R20429   1.468   7.403   8.102 -0.6496  0.5527 -1.4445
  179SOPE  H15S20430   1.616   7.472   8.043 -0.5374  0.4150  1.8310
  179SOPE  C21620431   1.637   7.306   8.185  0.0861  0.0028 -0.1628
  179SOPE  H16R20432   1.746   7.305   8.164  0.3097 -2.5069  0.7664
  179SOPE  H16S20433   1.615   7.197   8.179 -0.4361  0.1531 -1.4707
  179SOPE  C21720434   1.594   7.371   8.319 -0.4679 -0.2548  0.2650
  179SOPE  H17R20435   1.490   7.409   8.313 -0.5695 -0.2895  1.6022
  179SOPE  H17S20436   1.662   7.454   8.346 -0.6900 -0.6865  2.2769
  179SOPE  C21820437   1.591   7.277   8.431  0.3477  0.8733 -0.1435
  179SOPE  H18R20438   1.689   7.227   8.444  0.8475  1.2075 -2.2408
  179SOPE  H18S20439   1.522   7.190   8.420 -0.1324  1.4205 -1.7359
  179SOPE  H18T20440   1.566   7.330   8.525 -1.5514 -1.2645  0.6521
  179SOPE   C3320441   1.641   6.764   7.014 -0.0128 -0.0729 -0.1170
  179SOPE   H3X20442   1.633   6.868   6.976 -1.5132  0.6375  1.9288
  179SOPE   H3Y20443   1.748   6.735   7.019  0.1519  0.6139  0.6032
  179SOPE   C3420444   1.580   6.762   7.157 -0.1022  0.5546  0.1855
  179SOPE   H4X20445   1.475   6.797   7.157 -0.4798 -0.4434 -1.9883
  179SOPE   H4Y20446   1.644   6.836   7.209  0.3726  0.4504 -0.2489
  179SOPE   C3520447   1.578   6.622   7.223 -0.1607 -0.0336  0.5032
  179SOPE   H5X20448   1.683   6.588   7.217 -0.5969 -1.9373  2.5441
  179SOPE   H5Y20449   1.520   6.558   7.153 -1.2651  2.1800 -0.7178
  179SOPE   C3620450   1.525   6.615   7.369  0.1366 -0.5599 -0.9136
  179SOPE   H6X20451   1.504   6.509   7.397 -2.7298  0.5133  1.5705
  179SOPE   H6Y20452   1.430   6.673   7.372 -1.6098 -3.1876 -1.7194
  179SOPE   C3720453   1.624   6.663   7.471 -0.2819  0.9372 -0.5378
  179SOPE   H7X20454   1.642   6.771   7.453  1.9231  0.8740  0.8172
  179SOPE   H7Y20455   1.724   6.618   7.454 -0.3761  0.4432  0.1584
  179SOPE   C3820456   1.581   6.660   7.616  0.5639 -1.1225 -0.4304
  179SOPE   H8X20457   1.596   6.558   7.658  0.9702 -1.2918 -0.9733
  179SOPE   H8Y20458   1.478   6.695   7.637 -0.6606 -2.6123 -3.4419
  179SOPE   C3920459   1.670   6.750   7.707 -0.1966  0.1279  0.2374
  179SOPE   H9X20460   1.661   6.860   7.692  0.6350  0.7295  3.4674
  179SOPE   H9Y20461   1.770   6.708   7.681 -0.4976 -1.0981  1.0211
  179SOPE  C31020462   1.640   6.734   7.855  0.1105  1.0764 -0.4231
  179SOPE  H10X20463   1.626   6.626   7.874  1.9758  0.8441 -0.1869
  179SOPE  H10Y20464   1.546   6.789   7.879 -0.6995 -0.4607  0.0806
  179SOPE  C31120465   1.753   6.796   7.940  0.2438  0.2734  0.0066
  179SOPE  H11X20466   1.764   6.901   7.907 -0.6508  0.6225  0.7728
  179SOPE  H11Y20467   1.844   6.738   7.915  0.1134  0.5256 -1.0783
  179SOPE  C31220468   1.718   6.786   8.088 -0.5260  0.0841 -0.5395
  179SOPE  H12X20469   1.726   6.682   8.126  4.7277  0.7389  0.9558
  179SOPE  H12Y20470   1.621   6.836   8.109  0.1540  0.4627  2.1302
  179SOPE  C31320471   1.829   6.855   8.167 -0.4906  0.7365 -0.3354
  179SOPE  H13X20472   1.828   6.964   8.147 -0.5772  0.6158 -1.0256
  179SOPE  H13Y20473   1.929   6.821   8.130  0.3551  1.3991  1.2621
  179SOPE  C31420474   1.834   6.813   8.316 -0.1105 -0.2151  0.2222
  179SOPE  H14X20475   1.920   6.862   8.366 -0.4325 -1.3371  1.9819
  179SOPE  H14Y20476   1.841   6.705   8.340  0.1997  0.2754  2.7044
  179SOPE  C31520477   1.700   6.875   8.385 -1.0810 -0.2186 -0.3759
  179SOPE  H15X20478   1.610   6.834   8.334 -2.3289 -0.8419  2.1763
  179SOPE  H15Y20479   1.707   6.985   8.372 -1.3277  0.0909  1.8214
  179SOPE  C31620480   1.689   6.844   8.530  0.3074 -0.1482 -0.6888
  179SOPE  H16X20481   1.759   6.901   8.594  0.5205 -1.6270  0.4417
  179SOPE  H16Y20482   1.692   6.734   8.549 -0.1405  0.5515  5.4963
  179SOPE  C31720483   1.555   6.887   8.594 -0.3165 -0.5448  0.0549
  179SOPE  H17X20484   1.543   6.998   8.598 -0.6484 -0.5657 -0.3123
  179SOPE  H17Y20485   1.565   6.865   8.703  0.8003 -0.6299 -0.0599
  179SOPE  C31820486   1.429   6.820   8.538 -0.5938 -0.5989  1.0048
  179SOPE  H18X20487   1.451   6.711   8.538  1.5326 -0.2121  0.4239
  179SOPE  H18Y20488   1.409   6.851   8.433  2.5140 -0.9414  0.2194
  179SOPE  H18Z20489   1.341   6.844   8.601 -1.6060 -0.3546 -0.4541
  180SOPE     N20490   0.574   1.730   6.314  0.6174 -0.3504 -0.0473
  180SOPE   HN120491   0.490   1.671   6.334 -0.2927 -0.2264 -3.0791
  180SOPE   HN220492   0.546   1.816   6.265  0.8908 -0.5221 -0.5057
  180SOPE   HN320493   0.628   1.674   6.245  0.6873 -0.0347 -0.2498
  180SOPE   C1220494   0.668   1.769   6.422  0.7333 -0.1258  0.4147
  180SOPE  H12A20495   0.623   1.839   6.496  0.6816 -1.4565  1.7009
  180SOPE  H12B20496   0.753   1.820   6.371  0.3865 -1.0312 -1.1310
  180SOPE   C1120497   0.703   1.636   6.488  0.6539 -0.1588  0.4966
  180SOPE  H11A20498   0.624   1.593   6.553 -1.0989  1.2734 -0.5889
  180SOPE  H11B20499   0.775   1.668   6.566  1.2484  1.0775 -0.5257
  180SOPE     P20500   0.896   1.502   6.370 -0.3240  0.3843 -0.0120
  180SOPE   O1320501   0.945   1.584   6.260  0.1848  0.2870  0.0426
  180SOPE   O1420502   0.914   1.355   6.346  0.0548  0.0349 -0.0285
  180SOPE   O1220503   0.747   1.537   6.399  0.1119  0.4140 -0.0599
  180SOPE   O1120504   0.974   1.561   6.506  0.4396 -0.2636 -0.6249
  180SOPE    C120505   1.056   1.474   6.583  0.1375  0.2463  0.4044
  180SOPE    HA20506   1.108   1.541   6.653 -0.1493  0.1782  0.6854
  180SOPE    HB20507   1.134   1.429   6.518 -0.4066 -0.2467  0.0752
  180SOPE    C220508   0.979   1.365   6.675 -0.1663 -0.0153  0.2461
  180SOPE    HS20509   0.920   1.312   6.597 -0.0176  2.5482 -1.7504
  180SOPE   O2120510   0.889   1.438   6.759 -0.0671 -0.5582 -0.6048
  180SOPE   C2120511   0.775   1.375   6.795  0.7205 -0.5645 -0.8285
  180SOPE   O2220512   0.737   1.266   6.753 -0.2350 -0.7533 -0.3468
  180SOPE   C2220513   0.716   1.453   6.922 -0.2598  0.6424  1.0844
  180SOPE   H2R20514   0.710   1.558   6.885 -1.2243  0.0893 -0.4121
  180SOPE   H2S20515   0.794   1.447   7.001 -0.2646  0.0249  1.0417
  180SOPE    C320516   1.074   1.269   6.755 -0.3217  0.8690 -0.6239
  180SOPE    HX20517   1.136   1.332   6.823  1.4041 -0.3005 -1.0587
  180SOPE    HY20518   1.141   1.221   6.682  0.6853  0.6022  0.4360
  180SOPE   O3120519   1.014   1.176   6.848 -0.0049  0.1499 -0.2742
  180SOPE   C3120520   0.959   1.066   6.790 -0.2114 -0.3225 -0.0334
  180SOPE   O3220521   0.979   1.031   6.674  0.5160  0.2986  0.2532
  180SOPE   C3220522   0.878   0.989   6.891  0.7862  0.3011  0.7187
  180SOPE   H2X20523   0.774   1.017   6.864 -0.2847 -4.1720 -0.5047
  180SOPE   H2Y20524   0.893   1.020   6.997 -0.3945  2.0727  0.4162
  180SOPE   C2320525   0.598   1.384   6.992 -0.0493 -0.2148  0.4814
  180SOPE   H3R20526   0.522   1.370   6.912  0.0186  2.7305 -0.2152
  180SOPE   H3S20527   0.553   1.458   7.061  2.1329  1.3392  0.3435
  180SOPE   C2420528   0.627   1.246   7.059  0.1951 -0.6716  0.0248
  180SOPE   H4R20529   0.532   1.194   7.084 -0.8563  1.2959  0.3328
  180SOPE   H4S20530   0.694   1.179   7.000  0.3254 -0.6150  0.1082
  180SOPE   C2520531   0.692   1.255   7.196  0.3959 -0.6672  0.1924
  180SOPE   H5R20532   0.776   1.327   7.186  0.1964 -0.3179  0.9928
  180SOPE   H5S20533   0.620   1.304   7.264 -0.6564 -0.9914 -0.6737
  180SOPE   C2620534   0.725   1.123   7.251  0.0490  0.6889 -0.6233
  180SOPE   H6R20535   0.726   1.042   7.174  1.7681 -1.1110  1.1687
  180SOPE   H6S20536   0.831   1.120   7.283 -0.3605 -1.2451  0.7056
  180SOPE   C2720537   0.626   1.056   7.343  0.7630  0.2248 -0.3279
  180SOPE   H7R20538   0.528   1.032   7.296  0.1421  0.5036  0.7953
  180SOPE   H7S20539   0.654   0.953   7.374 -1.2966 -0.5135 -0.7535
  180SOPE   C2820540   0.594   1.141   7.470 -0.0354  0.1203  0.8520
  180SOPE   H8R20541   0.528   1.221   7.430  0.6304  0.6684  0.8503
  180SOPE   H8S20542   0.525   1.089   7.540 -2.1900 -0.0369 -1.2249
  180SOPE   C2920543   0.717   1.200   7.539  0.5570 -0.0326 -0.0192
  180SOPE   H9120544   0.758   1.289   7.490  3.5333 -0.5147  1.3238
  180SOPE  C21020545   0.775   1.155   7.656 -0.1908 -0.3276  0.6294
  180SOPE  H10120546   0.867   1.202   7.694 -1.4692  1.0997  2.1077
  180SOPE  C21120547   0.730   1.034   7.732 -0.2749  0.0086 -0.0202
  180SOPE  H11R20548   0.777   0.942   7.689  1.4265  0.6606  0.3761
  180SOPE  H11S20549   0.619   1.026   7.730 -0.2544 -0.5191  0.5994
  180SOPE  C21220550   0.767   1.041   7.878 -0.3746 -0.0951 -0.4196
  180SOPE  H12R20551   0.707   1.119   7.931 -0.2897 -0.1363 -0.2614
  180SOPE  H12S20552   0.873   1.071   7.894  0.3023 -2.9702  1.1197
  180SOPE  C21320553   0.751   0.905   7.953  0.5890  0.5163  0.0352
  180SOPE  H13R20554   0.820   0.836   7.901 -0.1857 -0.9809  0.9373
  180SOPE  H13S20555   0.648   0.869   7.930  1.0998  0.5574 -2.6761
  180SOPE  C21420556   0.786   0.911   8.095  0.1094 -0.1714  0.2239
  180SOPE  H14R20557   0.738   1.000   8.141 -2.0776 -1.3445  0.3454
  180SOPE  H14S20558   0.895   0.916   8.115  0.4066 -1.8313 -0.8357
  180SOPE  C21520559   0.741   0.785   8.168  0.1494 -0.4062 -0.4304
  180SOPE  H15R20560   0.787   0.697   8.118  3.8930  0.4674  1.0852
  180SOPE  H15S20561   0.630   0.783   8.175  0.0916 -1.0338 -1.3782
  180SOPE  C21620562   0.790   0.789   8.312 -0.3384 -0.0014 -0.5320
  180SOPE  H16R20563   0.757   0.892   8.335 -1.8692  0.5558 -4.4098
  180SOPE  H16S20564   0.901   0.793   8.320 -0.4272 -0.6555  1.8531
  180SOPE  C21720565   0.739   0.669   8.400  0.4433  0.3990 -0.2510
  180SOPE  H17R20566   0.629   0.681   8.398  0.2434 -1.1968 -0.6589
  180SOPE  H17S20567   0.773   0.683   8.505 -1.0420 -0.5691  0.3844
  180SOPE  C21820568   0.772   0.524   8.343 -0.1156  0.4429 -0.4624
  180SOPE  H18R20569   0.881   0.502   8.349  0.3913  1.6087 -3.3929
  180SOPE  H18S20570   0.739   0.520   8.237 -3.2366 -1.0822  0.4404
  180SOPE  H18T20571   0.720   0.448   8.405 -1.5951  1.5090 -0.3471
  180SOPE   C3320572   0.886   0.836   6.876 -0.2055  0.2452 -0.4352
  180SOPE   H3X20573   0.991   0.798   6.883 -0.3544  0.0636  1.2720
  180SOPE   H3Y20574   0.829   0.803   6.787  0.6022 -0.0180 -0.8692
  180SOPE   C3420575   0.804   0.760   6.985  0.2644  0.1248  0.0922
  180SOPE   H4X20576   0.784   0.655   6.952 -0.5855  0.2328  0.2216
  180SOPE   H4Y20577   0.700   0.799   6.997  0.7431  1.4065  0.1328
  180SOPE   C3520578   0.874   0.757   7.122 -0.7652  0.0832  0.0017
  180SOPE   H5X20579   0.815   0.748   7.216  1.1852  0.7140  1.3693
  180SOPE   H5Y20580   0.918   0.857   7.138  1.5655 -0.8835  0.0670
  180SOPE   C3620581   0.996   0.649   7.131  0.1469  0.3234 -0.6875
  180SOPE   H6X20582   1.061   0.653   7.041 -0.8457  1.6614 -1.3852
  180SOPE   H6Y20583   0.960   0.544   7.132  2.7775 -0.6512 -0.9685
  180SOPE   C3720584   1.081   0.684   7.250 -0.2327 -0.8099  0.1855
  180SOPE   H7X20585   1.079   0.795   7.254 -1.7955 -0.7861 -0.5743
  180SOPE   H7Y20586   1.187   0.652   7.238  0.5185  1.5282  0.0994
  180SOPE   C3820587   1.027   0.639   7.390 -0.7555 -0.9318 -0.2187
  180SOPE   H8X20588   1.000   0.533   7.371  2.8138 -2.1199  0.4485
  180SOPE   H8Y20589   0.938   0.693   7.426  0.8854  0.9420  1.2840
  180SOPE   C3920590   1.141   0.660   7.495 -0.1384  0.0975 -0.1013
  180SOPE   H9X20591   1.151   0.768   7.518  1.2609 -0.5108  2.4861
  180SOPE   H9Y20592   1.236   0.627   7.448 -0.2101 -1.8073  0.9472
  180SOPE  C31020593   1.108   0.580   7.617  0.7978  0.1165 -0.1445
  180SOPE  H10X20594   1.116   0.470   7.598  0.9726 -0.2383  1.7634
  180SOPE  H10Y20595   1.004   0.598   7.650  1.0007  0.2746  0.4187
  180SOPE  C31120596   1.211   0.608   7.736  0.6739  1.0751  0.2124
  180SOPE  H11X20597   1.313   0.596   7.692  0.3962 -0.2554 -0.1008
  180SOPE  H11Y20598   1.205   0.530   7.814 -2.5343 -1.5723 -2.3950
  180SOPE  C31220599   1.201   0.745   7.789 -0.7814  0.6042  0.2400
  180SOPE  H12X20600   1.203   0.825   7.711 -1.2795 -0.1926 -0.6048
  180SOPE  H12Y20601   1.289   0.765   7.853 -1.5802 -0.4514  1.7343
  180SOPE  C31320602   1.083   0.766   7.873  0.3605 -0.2511 -0.5054
  180SOPE  H13X20603   0.999   0.734   7.808 -0.3351  0.5982 -0.0608
  180SOPE  H13Y20604   1.066   0.873   7.899 -1.3947 -0.7807  0.7059
  180SOPE  C31420605   1.085   0.694   8.011  0.0010 -0.1798 -0.4652
  180SOPE  H14X20606   1.094   0.585   7.990  1.1660 -0.6337  2.0287
  180SOPE  H14Y20607   0.989   0.709   8.065 -0.2018 -0.6938 -0.6794
  180SOPE  C31520608   1.207   0.738   8.098  0.1062 -0.2288  0.0297
  180SOPE  H15X20609   1.195   0.849   8.101  0.1575 -0.2344  0.7965
  180SOPE  H15Y20610   1.304   0.710   8.054  0.3300 -2.6336  1.8507
  180SOPE  C31620611   1.199   0.687   8.240 -0.5315  0.2605 -0.5970
  180SOPE  H16X20612   1.118   0.739   8.295  0.8734  0.0595  1.8052
  180SOPE  H16Y20613   1.290   0.711   8.300 -0.6374 -0.3890 -0.1722
  180SOPE  C31720614   1.189   0.536   8.253  0.6616 -0.1707  0.2382
  180SOPE  H17X20615   1.271   0.482   8.200 -0.9142 -3.0460  0.5725
  180SOPE  H17Y20616   1.095   0.501   8.206  0.3564  0.5258  0.3144
  180SOPE  C31820617   1.196   0.500   8.397  0.4318 -0.0828 -0.6787
  180SOPE  H18X20618   1.303   0.511   8.426  0.1848  0.7378 -0.0417
  180SOPE  H18Y20619   1.165   0.394   8.410 -0.0020  0.2723  1.8351
  180SOPE  H18Z20620   1.141   0.573   8.460  1.3090  2.2306 -2.4369
  181SOPE     N20621   1.691   5.103   5.931  0.2963 -0.2635  0.1647
  181SOPE   HN120622   1.651   5.165   5.858  1.4974  1.2448  0.7247
  181SOPE   HN220623   1.789   5.137   5.939  0.2611 -0.0597 -0.2450
  181SOPE   HN320624   1.704   5.001   5.913  0.2459 -0.7964  2.7173
  181SOPE   C1220625   1.615   5.103   6.058  0.4089  0.7720 -0.4715
  181SOPE  H12A20626   1.507   5.084   6.043  0.8342 -1.1614 -1.3575
  181SOPE  H12B20627   1.639   5.198   6.111  1.6932  0.1108  0.1906
  181SOPE   C1120628   1.679   5.002   6.157  0.6126 -0.0343  0.1009
  181SOPE  H11A20629   1.641   5.003   6.262  0.6292 -0.6859  0.1171
  181SOPE  H11B20630   1.788   5.024   6.160  0.4231  0.9326  0.2314
  181SOPE     P20631   1.527   4.796   6.128  0.1343 -0.0744  0.1447
  181SOPE   O1320632   1.534   4.676   6.049  0.6186  0.2396 -0.0014
  181SOPE   O1420633   1.417   4.886   6.100  0.3462 -0.0699 -0.1272
  181SOPE   O1220634   1.660   4.869   6.105 -0.9573 -0.0771 -0.6071
  181SOPE   O1120635   1.538   4.756   6.285  0.1458  0.2253 -0.0378
  181SOPE    C120636   1.660   4.690   6.331 -0.2422  0.0169 -0.2076
  181SOPE    HA20637   1.748   4.753   6.309 -1.0722  0.5935 -2.0459
  181SOPE    HB20638   1.670   4.592   6.280  0.8230 -0.7194  1.3236
  181SOPE    C220639   1.663   4.664   6.490 -0.1979  0.0833  0.6325
  181SOPE    HS20640   1.576   4.602   6.519  1.5271 -1.7707  2.1701
  181SOPE   O2120641   1.671   4.790   6.565  0.2699 -0.6034 -0.0635
  181SOPE   C2120642   1.552   4.855   6.578  0.2353  0.1679  0.0284
  181SOPE   O2220643   1.449   4.822   6.526  0.2259  0.0781 -0.0365
  181SOPE   C2220644   1.575   4.980   6.664 -0.0438 -0.5188  0.5436
  181SOPE   H2R20645   1.506   5.063   6.641  0.9773  0.7077  1.7614
  181SOPE   H2S20646   1.670   5.019   6.622 -0.1869 -0.2487  0.4697
  181SOPE    C320647   1.789   4.590   6.521 -0.4047  0.6172 -0.0081
  181SOPE    HX20648   1.809   4.577   6.630  0.5125  0.5719 -0.1768
  181SOPE    HY20649   1.867   4.658   6.481  0.3609 -1.0793 -1.5723
  181SOPE   O3120650   1.805   4.459   6.457  0.3733 -0.5215 -0.4155
  181SOPE   C3120651   1.722   4.369   6.508 -0.0625  0.3271 -0.0023
  181SOPE   O3220652   1.631   4.388   6.584  0.3651  0.1944 -0.1033
  181SOPE   C3220653   1.769   4.231   6.468 -0.0613  0.4066  0.8787
  181SOPE   H2X20654   1.857   4.227   6.401  2.6904  0.4099  4.2461
  181SOPE   H2Y20655   1.686   4.191   6.406  1.0319 -1.7138  0.6719
  181SOPE   C2320656   1.600   4.954   6.810  0.7301  0.6559 -1.1518
  181SOPE   H3R20657   1.702   4.912   6.825 -0.0095 -0.7201  0.3757
  181SOPE   H3S20658   1.536   4.874   6.852 -0.9709  2.9025  0.8006
  181SOPE   C2420659   1.591   5.079   6.899 -0.2876  0.3673  0.1124
  181SOPE   H4R20660   1.654   5.157   6.851 -1.1029  1.0928  0.2153
  181SOPE   H4S20661   1.489   5.121   6.898 -0.6695 -0.5164 -1.2946
  181SOPE   C2520662   1.620   5.059   7.054  0.2855  0.6614 -0.2693
  181SOPE   H5R20663   1.549   4.985   7.097 -0.1639  0.9645 -0.4745
  181SOPE   H5S20664   1.726   5.035   7.074 -0.0978  0.7912  2.3686
  181SOPE   C2620665   1.594   5.191   7.134 -0.2426  0.0185 -0.2155
  181SOPE   H6R20666   1.669   5.268   7.105  0.6916 -0.1422  1.6428
  181SOPE   H6S20667   1.491   5.220   7.104 -0.5622 -0.9215 -0.0548
  181SOPE   C2720668   1.603   5.168   7.291 -0.1894  0.2839  0.2791
  181SOPE   H7R20669   1.555   5.072   7.319  2.0428 -0.9110  0.1602
  181SOPE   H7S20670   1.712   5.156   7.303 -0.2540  0.0903  0.6870
  181SOPE   C2820671   1.548   5.283   7.373 -0.0644 -0.1096 -0.5971
  181SOPE   H8R20672   1.601   5.274   7.470 -0.7862  0.4048 -0.1436
  181SOPE   H8S20673   1.571   5.382   7.328  2.8554 -1.1418 -1.5735
  181SOPE   C2920674   1.394   5.271   7.385 -0.9219 -0.2156 -0.3349
  181SOPE   H9120675   1.339   5.327   7.308  0.0316 -2.8365 -3.1073
  181SOPE  C21020676   1.326   5.198   7.481 -0.2044  0.3297 -0.0471
  181SOPE  H10120677   1.217   5.205   7.477 -0.1353  1.2353 -0.9095
  181SOPE  C21120678   1.373   5.111   7.588  0.9151  0.4201  0.3951
  181SOPE  H11R20679   1.459   5.051   7.552  0.2854  0.0664 -0.5822
  181SOPE  H11S20680   1.289   5.038   7.592 -0.7452  1.9842 -2.3696
  181SOPE  C21220681   1.415   5.165   7.725 -0.2394 -0.0723  0.8038
  181SOPE  H12R20682   1.493   5.242   7.702  0.5620 -1.2752 -0.7354
  181SOPE  H12S20683   1.461   5.080   7.780  1.3022  0.6777  0.7204
  181SOPE  C21320684   1.291   5.212   7.800 -0.0987  0.3180 -0.3032
  181SOPE  H13R20685   1.216   5.131   7.790  0.7329 -0.5101 -0.0296
  181SOPE  H13S20686   1.234   5.292   7.748  1.4832  1.5521 -0.2051
  181SOPE  C21420687   1.311   5.245   7.947  0.2441  0.3495 -0.6758
  181SOPE  H14R20688   1.384   5.172   7.989  0.4816  0.2048 -1.3146
  181SOPE  H14S20689   1.219   5.233   8.007  1.1811 -4.3315  0.2042
  181SOPE  C21520690   1.371   5.384   7.971  0.3619  0.2876 -0.0503
  181SOPE  H15R20691   1.308   5.463   7.925 -0.1433 -0.1852 -0.1833
  181SOPE  H15S20692   1.470   5.387   7.921  0.7662 -1.8422  0.5100
  181SOPE  C21620693   1.398   5.418   8.120  0.7867 -0.5558  0.1005
  181SOPE  H16R20694   1.317   5.386   8.189  1.4514  2.3880  2.4326
  181SOPE  H16S20695   1.420   5.526   8.128  2.6579 -0.9492  0.9539
  181SOPE  C21720696   1.518   5.347   8.174  0.5055 -0.2061 -0.1103
  181SOPE  H17R20697   1.600   5.377   8.105  1.6044 -2.0127  0.3394
  181SOPE  H17S20698   1.500   5.238   8.166 -0.4858  0.0405 -1.6103
  181SOPE  C21820699   1.557   5.382   8.318 -0.8030  0.7354 -0.0210
  181SOPE  H18R20700   1.580   5.491   8.311 -0.6635  0.7474  0.5571
  181SOPE  H18S20701   1.649   5.333   8.359 -2.0378  1.3131  3.8987
  181SOPE  H18T20702   1.476   5.355   8.390 -0.3244  0.1467  0.3148
  181SOPE   C3320703   1.798   4.136   6.586 -0.1708  0.1463  0.3725
  181SOPE   H3X20704   1.828   4.035   6.554  0.4397 -0.1068  1.6943
  181SOPE   H3Y20705   1.706   4.126   6.648  0.1015 -1.3859  0.5593
  181SOPE   C3420706   1.903   4.195   6.682 -0.0977  0.0487 -0.7259
  181SOPE   H4X20707   1.896   4.303   6.706  0.5403 -0.2750  1.0077
  181SOPE   H4Y20708   1.996   4.197   6.620  0.0246  0.5416 -0.5378
  181SOPE   C3520709   1.925   4.113   6.809  0.2140  0.6357 -0.5030
  181SOPE   H5X20710   1.980   4.020   6.784 -0.7396 -0.1797  0.3078
  181SOPE   H5Y20711   1.832   4.069   6.851  0.4920 -0.5355 -1.0817
  181SOPE   C3620712   2.010   4.179   6.925 -0.3717 -0.1622 -0.0286
  181SOPE   H6X20713   1.953   4.248   6.990  1.4955 -0.0685  1.5933
  181SOPE   H6Y20714   2.087   4.243   6.876  1.4298 -1.2022  1.3326
  181SOPE   C3720715   2.076   4.074   7.016 -0.1747  0.2068  1.2646
  181SOPE   H7X20716   2.003   3.991   7.028  0.1479  0.0321  2.0796
  181SOPE   H7Y20717   2.104   4.107   7.118  0.8892  1.2484  0.6595
  181SOPE   C3820718   2.203   4.012   6.953  0.9434 -0.4892 -0.1009
  181SOPE   H8X20719   2.248   4.087   6.886 -0.3091 -1.5396 -2.2193
  181SOPE   H8Y20720   2.173   3.915   6.907  5.6045 -1.5152 -1.4418
  181SOPE   C3920721   2.307   3.972   7.063  0.1242 -0.8316 -0.0720
  181SOPE   H9X20722   2.355   4.064   7.104  1.3761 -2.0741  1.3508
  181SOPE   H9Y20723   2.390   3.913   7.019  1.6361  0.2808  1.1446
  181SOPE  C31020724   2.250   3.901   7.193 -0.2874  0.9890 -0.0413
  181SOPE  H10X20725   2.310   3.808   7.199 -2.0507 -0.2153 -0.3920
  181SOPE  H10Y20726   2.147   3.863   7.175  0.3417 -0.7947 -0.0694
  181SOPE  C31120727   2.266   3.980   7.320  0.6220 -0.9818  0.1040
  181SOPE  H11X20728   2.226   4.084   7.318  1.5300 -0.6384 -0.8384
  181SOPE  H11Y20729   2.372   3.986   7.354  1.0362  0.2670 -1.2948
  181SOPE  C31220730   2.194   3.913   7.437  1.0155 -0.1957  0.3060
  181SOPE  H12X20731   2.247   3.815   7.437  0.2787 -0.6361 -1.1642
  181SOPE  H12Y20732   2.089   3.887   7.412  0.6549  0.3709  1.2247
  181SOPE  C31320733   2.211   4.001   7.555 -0.0443  0.4212  0.8605
  181SOPE  H13X20734   2.158   4.095   7.527  1.1076  0.6686 -0.6276
  181SOPE  H13Y20735   2.316   4.029   7.578 -0.3312 -0.3710  3.4960
  181SOPE  C31420736   2.151   3.940   7.678 -0.4675 -0.3670 -0.2430
  181SOPE  H14X20737   2.211   3.867   7.736 -0.3461  1.4348  2.0584
  181SOPE  H14Y20738   2.057   3.883   7.666 -0.9246 -0.5669  3.2968
  181SOPE  C31520739   2.118   4.050   7.775 -0.4919 -0.0838  0.3475
  181SOPE  H15X20740   2.052   4.125   7.725  1.2722  0.7635 -0.8011
  181SOPE  H15Y20741   2.205   4.116   7.797  0.7216 -0.8449 -1.9285
  181SOPE  C31620742   2.058   3.995   7.905 -0.6379 -0.5754  0.0536
  181SOPE  H16X20743   2.116   3.911   7.948  0.3589 -0.1070 -0.3593
  181SOPE  H16Y20744   1.956   3.956   7.882 -0.4214 -0.3310 -1.4024
  181SOPE  C31720745   2.054   4.110   8.019 -0.4223  0.0255  1.1464
  181SOPE  H17X20746   1.979   4.185   7.987 -0.9130 -0.7570  0.4558
  181SOPE  H17Y20747   2.151   4.162   8.002 -0.6870 -0.5573 -3.2239
  181SOPE  C31820748   2.034   4.061   8.159 -0.6471  0.0244  0.1111
  181SOPE  H18X20749   1.945   3.994   8.156  0.0355 -0.8967 -0.2832
  181SOPE  H18Y20750   2.026   4.140   8.236  1.3453  1.6728 -1.2933
  181SOPE  H18Z20751   2.129   4.006   8.175 -0.9322 -0.8804 -1.1191
  182SOPE     N20752   1.699   0.255   6.537 -0.6059  0.5976  0.2357
  182SOPE   HN120753   1.735   0.346   6.501  1.1929 -1.0236 -2.3952
  182SOPE   HN220754   1.714   0.257   6.640  0.2501 -1.6440  0.2216
  182SOPE   HN320755   1.762   0.185   6.494  0.9013  1.6953  0.5978
  182SOPE   C1220756   1.551   0.228   6.515 -0.1203 -0.0242  1.1713
  182SOPE  H12A20757   1.532   0.142   6.583  0.6998 -2.9971 -2.0725
  182SOPE  H12B20758   1.524   0.208   6.409  1.2327 -0.1010  0.8252
  182SOPE   C1120759   1.456   0.346   6.562 -0.1099  0.5939  0.1077
  182SOPE  H11A20760   1.500   0.390   6.654 -0.5665 -0.7673  1.0117
  182SOPE  H11B20761   1.354   0.306   6.580  0.4879 -0.7599  0.6141
  182SOPE     P20762   1.422   0.585   6.472  0.2198 -0.0310 -0.1247
  182SOPE   O1320763   1.365   0.652   6.352 -0.1730  0.0288  0.6512
  182SOPE   O1420764   1.549   0.640   6.508 -0.2191 -0.2894  0.0547
  182SOPE   O1220765   1.455   0.436   6.453  0.2456 -0.1214  0.0438
  182SOPE   O1120766   1.325   0.585   6.596 -0.5676  0.1179  0.4144
  182SOPE    C120767   1.186   0.557   6.579 -0.0479  0.7570 -0.0945
  182SOPE    HA20768   1.151   0.498   6.491 -1.2899  1.3248  0.0032
  182SOPE    HB20769   1.130   0.651   6.559 -1.7787  0.2522  2.0157
  182SOPE    C220770   1.126   0.488   6.706 -0.0078  0.4753 -0.1620
  182SOPE    HS20771   1.071   0.569   6.761  2.0065  0.7485  1.5880
  182SOPE   O2120772   1.231   0.435   6.793  0.3221 -0.2073  0.4867
  182SOPE   C2120773   1.293   0.518   6.874 -0.2819 -0.3728  0.2108
  182SOPE   O2220774   1.272   0.639   6.886 -0.3892  0.3191  0.9603
  182SOPE   C2220775   1.376   0.434   6.963  0.0142  0.5127 -1.1605
  182SOPE   H2R20776   1.466   0.498   6.973  1.5531 -1.6523 -0.3874
  182SOPE   H2S20777   1.394   0.336   6.912 -0.5165 -1.9973  3.0294
  182SOPE    C320778   1.031   0.367   6.664  0.0541 -0.5139  0.9966
  182SOPE    HX20779   1.091   0.285   6.621 -0.2266  0.7864 -2.1268
  182SOPE    HY20780   0.971   0.401   6.577  2.4193 -0.5266 -0.7249
  182SOPE   O3120781   0.962   0.310   6.779 -0.4523  0.2278 -0.2123
  182SOPE   C3120782   0.842   0.364   6.794  0.1917  0.9356 -0.4642
  182SOPE   O3220783   0.796   0.454   6.728 -0.0379 -0.6892 -0.1484
  182SOPE   C3220784   0.771   0.290   6.905 -0.7312 -0.4543 -0.5357
  182SOPE   H2X20785   0.795   0.182   6.892  0.4541 -0.4298  1.1286
  182SOPE   H2Y20786   0.661   0.299   6.892 -0.7349 -2.0003 -2.0268
  182SOPE   C2320787   1.305   0.403   7.099 -0.1481 -0.3425 -0.7253
  182SOPE   H3R20788   1.217   0.339   7.075 -1.1782  2.1800 -4.6066
  182SOPE   H3S20789   1.256   0.493   7.142 -0.5545 -0.5642 -0.7267
  182SOPE   C2420790   1.372   0.331   7.209 -0.2089 -0.5236  0.6307
  182SOPE   H4R20791   1.437   0.270   7.142 -0.8818  1.5314 -2.0795
  182SOPE   H4S20792   1.448   0.388   7.267  0.8096 -2.1629  0.9900
  182SOPE   C2520793   1.272   0.262   7.303 -0.2530 -0.3660  0.2873
  182SOPE   H5R20794   1.193   0.329   7.341 -1.1085 -0.5307 -1.1440
  182SOPE   H5S20795   1.206   0.192   7.247 -0.5788 -0.7589  1.1428
  182SOPE   C2620796   1.362   0.192   7.411 -0.4007  0.0597  0.2126
  182SOPE   H6R20797   1.424   0.122   7.351  0.2327  1.7059 -1.1212
  182SOPE   H6S20798   1.428   0.265   7.462  1.3474 -1.1479 -0.2373
  182SOPE   C2720799   1.273   0.115   7.514 -0.7208  0.0043  1.0349
  182SOPE   H7R20800   1.207   0.061   7.443 -0.9596 -1.2273  2.1490
  182SOPE   H7S20801   1.332   0.031   7.556  2.4313  1.7264  0.3407
  182SOPE   C2820802   1.199   0.186   7.618  0.1836 -0.0457 -0.4564
  182SOPE   H8R20803   1.136   0.259   7.564 -1.6074  0.5211  2.1799
  182SOPE   H8S20804   1.124   0.115   7.661  1.8847 -2.4425 -1.2133
  182SOPE   C2920805   1.290   0.251   7.710  0.0830 -0.6224 -0.5849
  182SOPE   H9120806   1.337   0.341   7.666 -2.1117  0.0887 -1.6615
  182SOPE  C21020807   1.311   0.221   7.837 -0.1440  0.8011 -0.1230
  182SOPE  H10120808   1.371   0.288   7.900 -0.5235  0.1756  0.9291
  182SOPE  C21120809   1.252   0.104   7.911 -0.0751 -0.0786  0.1262
  182SOPE  H11R20810   1.291   0.012   7.861  0.0551 -0.9265  1.7248
  182SOPE  H11S20811   1.142   0.095   7.901 -0.1320  1.8706 -1.9880
  182SOPE  C21220812   1.304   0.108   8.054 -0.1959 -0.1414 -0.3440
  182SOPE  H12R20813   1.247   0.177   8.121 -0.6150 -1.0438  0.2481
  182SOPE  H12S20814   1.412   0.130   8.067 -0.4432  1.2250 -0.4025
  182SOPE  C21320815   1.289  -0.028   8.124 -0.7263 -0.2016  1.1322
  182SOPE  H13R20816   1.359  -0.034   8.210  2.8252  0.1386 -1.4884
  182SOPE  H13S20817   1.314  -0.101   8.044 -0.3292  1.0656  0.0601
  182SOPE  C21420818   1.149  -0.055   8.176 -0.2042 -0.5030  0.0752
  182SOPE  H14R20819   1.132  -0.164   8.183  1.4264 -0.7480  0.6295
  182SOPE  H14S20820   1.079  -0.016   8.100 -0.0658 -2.1955 -0.9582
  182SOPE  C21520821   1.108   0.005   8.314  0.9769  0.5594 -0.0929
  182SOPE  H15R20822   1.139   0.111   8.300  2.7510  0.1103  0.1780
  182SOPE  H15S20823   1.175  -0.041   8.390 -2.4468 -1.3675  1.9660
  182SOPE  C21620824   0.961   0.012   8.355  0.7642  0.1575  0.6241
  182SOPE  H16R20825   0.882   0.002   8.278 -0.7580 -4.2372  2.4079
  182SOPE  H16S20826   0.940   0.101   8.418 -2.8104 -0.1822  0.1566
  182SOPE  C21720827   0.933  -0.099   8.457  0.0162 -0.5405  0.4846
  182SOPE  H17R20828   0.958  -0.082   8.564  0.3744  1.0365  0.1725
  182SOPE  H17S20829   0.997  -0.186   8.432  2.1315  0.8294  0.9134
  182SOPE  C21820830   0.783  -0.133   8.457  0.9208  0.1606 -0.3520
  182SOPE  H18R20831   0.763  -0.176   8.356 -0.7536  0.2315 -0.0854
  182SOPE  H18S20832   0.727  -0.040   8.483  0.9149  0.8952 -2.7006
  182SOPE  H18T20833   0.762  -0.213   8.531 -1.3318 -0.2084 -1.3135
  182SOPE   C3320834   0.830   0.333   7.039 -0.0387 -0.1163  0.9116
  182SOPE   H3X20835   0.784   0.431   7.064  0.1370  0.1798  0.1103
  182SOPE   H3Y20836   0.941   0.332   7.034  0.0672 -3.4716  1.7139
  182SOPE   C3420837   0.806   0.235   7.156  0.1690  0.5088 -0.1390
  182SOPE   H4X20838   0.846   0.135   7.129 -2.3198 -0.8510  0.8642
  182SOPE   H4Y20839   0.698   0.208   7.155  0.3612 -0.3063  0.1183
  182SOPE   C3520840   0.845   0.287   7.300 -0.3692 -0.0890  0.4020
  182SOPE   H5X20841   0.788   0.382   7.313  0.7070  0.5060  0.8877
  182SOPE   H5Y20842   0.954   0.310   7.302 -0.0928 -1.1847 -1.0695
  182SOPE   C3620843   0.839   0.180   7.413 -0.0974  0.0763 -0.2395
  182SOPE   H6X20844   0.931   0.119   7.399  0.4747  1.4015 -2.8570
  182SOPE   H6Y20845   0.748   0.118   7.403 -0.5288  0.4588  1.0724
  182SOPE   C3720846   0.843   0.241   7.553  0.4468  0.5299 -0.6431
  182SOPE   H7X20847   0.777   0.329   7.566 -0.5142 -0.4385  1.5435
  182SOPE   H7Y20848   0.949   0.267   7.575  0.2958 -0.2022  1.1394
  182SOPE   C3820849   0.804   0.135   7.665  0.3229 -0.7635 -0.7075
  182SOPE   H8X20850   0.861   0.040   7.656  1.0844 -0.4929  0.8827
  182SOPE   H8Y20851   0.696   0.109   7.656 -0.7424  2.2708  1.4938
  182SOPE   C3920852   0.812   0.198   7.803  0.4456  0.3395 -0.1978
  182SOPE   H9X20853   0.804   0.309   7.801  1.3671  0.4182  0.4577
  182SOPE   H9Y20854   0.912   0.173   7.844 -1.0218 -1.2940  2.7246
  182SOPE  C31020855   0.708   0.145   7.902  0.4005  0.1118  0.2291
  182SOPE  H10X20856   0.719   0.036   7.884  0.0618  0.3643 -1.8074
  182SOPE  H10Y20857   0.608   0.179   7.867 -0.0486  0.5626  1.8774
  182SOPE  C31120858   0.741   0.193   8.041  0.1481 -0.5787  0.2410
  182SOPE  H11X20859   0.741   0.304   8.047 -2.8060 -0.5417  1.0700
  182SOPE  H11Y20860   0.842   0.152   8.061  0.9630  0.8891 -0.7639
  182SOPE  C31220861   0.628   0.153   8.141 -0.3201  0.2444 -0.4980
  182SOPE  H12X20862   0.627   0.043   8.156  0.8014  0.2740 -0.1009
  182SOPE  H12Y20863   0.532   0.172   8.088 -1.4708  0.5606  1.5930
  182SOPE  C31320864   0.619   0.228   8.267 -0.1996  0.1387  0.4764
  182SOPE  H13X20865   0.586   0.330   8.239  2.1809  0.8467  0.0966
  182SOPE  H13Y20866   0.721   0.232   8.310 -0.4593  0.4928  1.0690
  182SOPE  C31420867   0.532   0.159   8.379  0.2045 -0.2915 -0.6082
  182SOPE  H14X20868   0.571   0.058   8.405  0.0722 -0.1320  0.2655
  182SOPE  H14Y20869   0.433   0.137   8.335  1.0876 -3.1848 -1.3378
  182SOPE  C31520870   0.535   0.246   8.504  0.0648  0.2350  0.3287
  182SOPE  H15X20871   0.501   0.351   8.491 -0.7871 -0.1115 -0.3763
  182SOPE  H15Y20872   0.643   0.245   8.528 -0.0624  0.0708  0.8977
  182SOPE  C31620873   0.468   0.175   8.622 -0.5960 -0.0559 -0.2108
  182SOPE  H16X20874   0.505   0.071   8.635  0.4938  0.4690  1.2888
  182SOPE  H16Y20875   0.359   0.183   8.603 -0.7177 -1.7898 -0.3844
  182SOPE  C31720876   0.493   0.247   8.758  0.4693 -0.0894 -0.1016
  182SOPE  H17X20877   0.593   0.218   8.797 -1.3733 -4.0421  2.2407
  182SOPE  H17Y20878   0.424   0.203   8.832  0.4301  0.0274 -0.0683
  182SOPE  C31820879   0.480   0.397   8.759 -0.0611  0.2314 -0.1988
  182SOPE  H18X20880   0.386   0.426   8.708 -1.0485 -1.5210  0.5307
  182SOPE  H18Y20881   0.571   0.433   8.706 -0.9053 -0.7068 -2.3784
  182SOPE  H18Z20882   0.471   0.436   8.863  1.8390  0.2714 -0.0195
  183SOPE     N20883   4.348   2.555   6.472  0.3110  0.0273 -0.1120
  183SOPE   HN120884   4.358   2.633   6.404 -1.1901 -1.5638 -2.3049
  183SOPE   HN220885   4.417   2.567   6.549  2.3968  1.9737 -2.1268
  183SOPE   HN320886   4.374   2.470   6.418  0.0350  0.4643 -0.9586
  183SOPE   C1220887   4.202   2.548   6.523 -0.4324  0.2653 -0.2525
  183SOPE  H12A20888   4.206   2.488   6.617 -0.6980  1.1027  0.3136
  183SOPE  H12B20889   4.146   2.509   6.435 -0.5519  0.1571 -0.1311
  183SOPE   C1120890   4.150   2.690   6.554  0.2293 -0.5208  0.2363
  183SOPE  H11A20891   4.222   2.745   6.619  1.2027 -0.1925 -1.0722
  183SOPE  H11B20892   4.056   2.683   6.613 -0.4740 -3.8048 -1.0457
  183SOPE     P20893   4.201   2.860   6.342 -0.2618  0.0058  0.0991
  183SOPE   O1320894   4.127   2.877   6.218 -0.1766 -0.0605 -0.1431
  183SOPE   O1420895   4.329   2.789   6.332  0.0733 -0.1033 -0.2702
  183SOPE   O1220896   4.111   2.764   6.437 -0.2791  0.7466 -0.8511
  183SOPE   O1120897   4.207   2.987   6.427  0.1032 -0.6650  0.6162
  183SOPE    C120898   4.102   3.063   6.489  0.4855  0.2851 -0.5294
  183SOPE    HA20899   4.014   2.999   6.514 -0.0345  1.6612  1.4108
  183SOPE    HB20900   4.057   3.138   6.421  0.8933 -0.1581 -1.3010
  183SOPE    C220901   4.153   3.135   6.615  0.9833  0.0453 -0.7861
  183SOPE    HS20902   4.243   3.197   6.593  0.9326  0.4562  0.1130
  183SOPE   O2120903   4.182   3.036   6.720  0.0675 -0.2806  0.6470
  183SOPE   C2120904   4.309   2.993   6.744  0.2184 -1.1349  0.6203
  183SOPE   O2220905   4.405   3.029   6.675 -0.0592 -0.0003  0.2975
  183SOPE   C2220906   4.300   2.906   6.868 -0.4312 -0.2993  0.6142
  183SOPE   H2R20907   4.394   2.846   6.875  0.1114  0.2286 -1.4904
  183SOPE   H2S20908   4.214   2.837   6.864  0.3613 -1.3498  1.1951
  183SOPE    C320909   4.048   3.232   6.673  0.2186  0.0174  0.2652
  183SOPE    HX20910   3.951   3.179   6.682  0.5491 -1.2154 -2.3273
  183SOPE    HY20911   4.032   3.313   6.598  0.9417  0.7927  0.9209
  183SOPE   O3120912   4.088   3.298   6.795  0.3353  0.7257  0.3561
  183SOPE   C3120913   3.998   3.390   6.834  0.6965 -0.3951  0.0934
  183SOPE   O3220914   3.885   3.410   6.786  0.4132  0.1345 -0.2930
  183SOPE   C3220915   4.060   3.451   6.961  0.2273 -0.6438  0.2781
  183SOPE   H2X20916   4.039   3.559   6.944  1.0993 -0.6198 -0.6946
  183SOPE   H2Y20917   4.170   3.445   6.968  0.3530  0.2493 -0.7787
  183SOPE   C2320918   4.284   2.995   6.997  0.2623  0.4229  0.9282
  183SOPE   H3R20919   4.265   2.933   7.087 -1.4989  1.1069  1.0802
  183SOPE   H3S20920   4.187   3.047   6.980 -0.1441 -0.2710  1.1015
  183SOPE   C2420921   4.396   3.082   7.027 -0.0694 -0.3675 -0.4601
  183SOPE   H4R20922   4.483   3.013   7.016 -0.7434 -1.3641  0.2251
  183SOPE   H4S20923   4.414   3.156   6.946 -0.4577 -0.3339 -0.5149
  183SOPE   C2520924   4.390   3.147   7.159 -0.0890 -0.3287 -0.6012
  183SOPE   H5R20925   4.482   3.207   7.178 -0.6555  0.0426  1.1778
  183SOPE   H5S20926   4.296   3.207   7.164  0.8356  1.1194  0.2351
  183SOPE   C2620927   4.394   3.057   7.283 -0.9604 -0.6719  0.4153
  183SOPE   H6R20928   4.346   2.958   7.265  1.0123 -1.8921  1.5233
  183SOPE   H6S20929   4.503   3.054   7.304 -0.7699  1.3740 -0.0106
  183SOPE   C2720930   4.331   3.114   7.407 -0.0188 -0.3239 -0.5744
  183SOPE   H7R20931   4.384   3.210   7.427 -0.1041 -0.5435  0.7426
  183SOPE   H7S20932   4.224   3.131   7.381  0.0450 -0.9039 -1.2440
  183SOPE   C2820933   4.345   3.035   7.538 -0.5764  0.2199  0.1439
  183SOPE   H8R20934   4.453   3.021   7.559 -0.0903  2.8058 -0.2912
  183SOPE   H8S20935   4.314   3.091   7.629 -1.6301 -1.7946  1.0930
  183SOPE   C2920936   4.257   2.907   7.520 -0.0172  0.3410  0.3501
  183SOPE   H9120937   4.148   2.921   7.509 -0.1078 -0.2919  0.4260
  183SOPE  C21020938   4.302   2.781   7.511 -0.2979  0.3459 -0.6494
  183SOPE  H10120939   4.224   2.705   7.499 -1.0697  0.8542  0.9427
  183SOPE  C21120940   4.445   2.740   7.524 -0.3223  0.2499 -0.1787
  183SOPE  H11R20941   4.509   2.802   7.458 -0.5557  1.9260  1.1134
  183SOPE  H11S20942   4.458   2.642   7.473 -0.0473  0.6551 -0.9028
  183SOPE  C21220943   4.477   2.732   7.677  0.2838  0.0652 -0.5517
  183SOPE  H12R20944   4.405   2.660   7.723 -1.1958  1.2129 -1.0170
  183SOPE  H12S20945   4.463   2.828   7.730 -0.2169 -1.3763  2.1125
  183SOPE  C21320946   4.613   2.674   7.702  0.1419 -0.4457  0.3903
  183SOPE  H13R20947   4.688   2.737   7.651 -0.6132 -1.1387 -1.6762
  183SOPE  H13S20948   4.619   2.576   7.648  4.5570  0.6411 -1.5764
  183SOPE  C21420949   4.641   2.655   7.846 -1.0932  0.7285  0.2000
  183SOPE  H14R20950   4.729   2.587   7.855 -0.8756  1.0085  0.1892
  183SOPE  H14S20951   4.555   2.591   7.878 -1.7202  1.6941  0.4716
  183SOPE  C21520952   4.650   2.775   7.931  0.3022  0.3884  0.3115
  183SOPE  H15R20953   4.552   2.827   7.937  0.6933  1.3044 -0.9182
  183SOPE  H15S20954   4.716   2.847   7.878  1.8549 -0.7978  0.5530
  183SOPE  C21620955   4.713   2.745   8.068  0.2857 -0.3044  0.1335
  183SOPE  H16R20956   4.737   2.847   8.105 -2.2234  0.8187 -1.0858
  183SOPE  H16S20957   4.804   2.683   8.052 -0.2602 -1.4285  1.2570
  183SOPE  C21720958   4.622   2.676   8.168 -0.0884 -0.4693 -0.0782
  183SOPE  H17R20959   4.584   2.585   8.116  0.5088 -1.1277  0.6185
  183SOPE  H17S20960   4.538   2.743   8.195 -0.9981 -1.2413 -0.9047
  183SOPE  C21820961   4.699   2.626   8.291 -0.8185  0.3457  0.6435
  183SOPE  H18R20962   4.757   2.716   8.322  0.3656  0.0646 -0.6349
  183SOPE  H18S20963   4.779   2.552   8.268 -1.6406 -0.2634 -0.3712
  183SOPE  H18T20964   4.628   2.585   8.365 -0.0964 -0.3473  0.9691
  183SOPE   C3320965   3.995   3.422   7.089  0.1644 -0.0100 -0.5880
  183SOPE   H3X20966   4.003   3.311   7.097  1.9592  0.1993  2.0316
  183SOPE   H3Y20967   3.892   3.462   7.097  0.0334 -0.4930  0.3576
  183SOPE   C3420968   4.075   3.496   7.208  0.3803  0.1485 -0.2666
  183SOPE   H4X20969   4.062   3.605   7.190  0.5027  0.0075 -1.2674
  183SOPE   H4Y20970   4.184   3.475   7.211  0.1059 -1.2411  0.9901
  183SOPE   C3520971   4.030   3.451   7.347  1.0716 -0.2779 -0.2443
  183SOPE   H5X20972   4.058   3.343   7.349  1.8401 -0.0916 -0.4289
  183SOPE   H5Y20973   3.924   3.476   7.368  0.9016  1.3983 -2.6877
  183SOPE   C3620974   4.115   3.525   7.451 -0.0857 -0.0312 -0.3381
  183SOPE   H6X20975   4.112   3.632   7.420  0.1755  0.1449  0.2440
  183SOPE   H6Y20976   4.221   3.493   7.440 -0.1538 -0.0245 -1.0762
  183SOPE   C3720977   4.063   3.513   7.597 -0.0439  0.0007  0.4635
  183SOPE   H7X20978   3.956   3.541   7.588 -0.1534 -0.2348  0.9952
  183SOPE   H7Y20979   4.112   3.592   7.658 -0.1421  0.6968 -0.3419
  183SOPE   C3820980   4.080   3.370   7.655 -0.3754 -0.2438  0.1046
  183SOPE   H8X20981   4.186   3.341   7.639 -0.6561 -1.0000 -0.4049
  183SOPE   H8Y20982   4.012   3.299   7.605  0.9147 -2.0401  0.8124
  183SOPE   C3920983   4.054   3.361   7.807  0.4172  0.1427 -0.5314
  183SOPE   H9X20984   3.951   3.403   7.812 -0.1031 -1.0990 -0.4615
  183SOPE   H9Y20985   4.128   3.420   7.865 -0.4379  2.4639 -1.6487
  183SOPE  C31020986   4.057   3.229   7.863 -0.3469  0.3169  0.0865
  183SOPE  H10X20987   4.138   3.168   7.818 -2.8348 -2.7617 -0.5672
  183SOPE  H10Y20988   3.969   3.168   7.833 -0.0474 -0.3049  0.4466
  183SOPE  C31120989   4.059   3.228   8.015 -0.7152  0.0070 -0.6269
  183SOPE  H11X20990   3.972   3.280   8.061 -1.3036 -0.8366 -0.7634
  183SOPE  H11Y20991   4.152   3.279   8.046 -2.2746  1.0618  2.8700
  183SOPE  C31220992   4.054   3.089   8.069 -0.2014  0.8492 -0.0518
  183SOPE  H12X20993   4.138   3.034   8.022 -0.1803  0.0637  0.8791
  183SOPE  H12Y20994   3.970   3.036   8.021  1.6104 -0.9502 -1.4400
  183SOPE  C31320995   4.059   3.063   8.220  0.0616  0.5425  0.9701
  183SOPE  H13X20996   4.157   3.095   8.263  0.2616 -0.1315  1.0241
  183SOPE  H13Y20997   4.052   2.954   8.238 -0.0150  0.4970  0.6703
  183SOPE  C31420998   3.957   3.142   8.306  0.4190 -0.2794 -0.0074
  183SOPE  H14X20999   3.871   3.115   8.242  1.2150 -0.1159 -1.1727
  183SOPE  H14Y21000   3.989   3.249   8.309 -0.6005  0.2125 -3.1617
  183SOPE  C31521001   3.935   3.076   8.444 -0.0151  0.0247  0.0280
  183SOPE  H15X21002   4.029   3.081   8.502  0.8281 -1.6249 -1.1188
  183SOPE  H15Y21003   3.909   2.968   8.446  0.8570 -0.1897  0.4981
  183SOPE  C31621004   3.811   3.136   8.522 -0.0862 -0.0711  0.6059
  183SOPE  H16X21005   3.810   3.085   8.621 -0.4478 -0.5166  0.3791
  183SOPE  H16Y21006   3.726   3.090   8.467  0.2595 -0.8569  0.7128
  183SOPE  C31721007   3.788   3.280   8.516 -0.2355 -0.1280 -0.6537
  183SOPE  H17X21008   3.694   3.295   8.573  2.0264  2.8440  2.7967
  183SOPE  H17Y21009   3.779   3.325   8.415 -2.4111 -0.5510 -0.6896
  183SOPE  C31821010   3.898   3.355   8.592  0.7975 -0.1197  0.0718
  183SOPE  H18X21011   3.887   3.465   8.587 -0.0279 -0.2276 -0.8429
  183SOPE  H18Y21012   3.998   3.337   8.547  0.6496 -2.5232  0.5866
  183SOPE  H18Z21013   3.892   3.322   8.698  0.0598  1.0427  0.4133
  184SOPE     N21014   1.984   4.372   6.044 -0.4782 -0.4300  0.4387
  184SOPE   HN121015   1.945   4.276   6.047  1.2186 -1.1362  2.3846
  184SOPE   HN221016   1.939   4.432   5.971  0.5890  0.2167  0.2845
  184SOPE   HN321017   2.084   4.360   6.016 -0.6361 -3.8680  0.9922
  184SOPE   C1221018   1.954   4.435   6.175  0.4211 -0.5231 -0.8983
  184SOPE  H12A21019   2.019   4.383   6.248 -0.5039 -1.4227 -0.6800
  184SOPE  H12B21020   1.851   4.408   6.208  0.8698 -1.9352 -0.5893
  184SOPE   C1121021   1.979   4.587   6.167 -0.3397  0.0790 -0.0114
  184SOPE  H11A21022   1.964   4.625   6.271  2.0361 -1.0213  0.8155
  184SOPE  H11B21023   1.907   4.644   6.106 -0.2746  1.8776  1.5153
  184SOPE     P21024   2.174   4.759   6.120  0.3607 -0.0209  0.2138
  184SOPE   O1321025   2.121   4.810   5.992  0.3027  0.1563  0.3871
  184SOPE   O1421026   2.320   4.764   6.129 -0.5248 -0.2253  0.4116
  184SOPE   O1221027   2.115   4.612   6.133  0.2936 -0.1604 -0.3983
  184SOPE   O1121028   2.109   4.838   6.248  0.3286 -0.0429  0.3750
  184SOPE    C121029   2.190   4.828   6.369 -0.6082 -1.2144 -0.3109
  184SOPE    HA21030   2.284   4.887   6.370 -0.9705 -0.6228  1.3421
  184SOPE    HB21031   2.211   4.722   6.395 -3.0209 -1.6628  0.0505
  184SOPE    C221032   2.114   4.872   6.498  0.6473 -0.5529 -0.1537
  184SOPE    HS21033   2.022   4.810   6.507  1.3371 -1.3581  1.8854
  184SOPE   O2121034   2.095   5.018   6.501 -0.3028  0.3257 -0.1661
  184SOPE   C2121035   1.987   5.058   6.573  0.1108  0.0393  0.2130
  184SOPE   O2221036   1.906   4.985   6.623 -0.1663  0.2478 -0.5641
  184SOPE   C2221037   1.970   5.212   6.568 -0.2561  0.2394 -0.2481
  184SOPE   H2R21038   1.920   5.245   6.474  0.8568  0.4512 -0.7878
  184SOPE   H2S21039   2.074   5.252   6.572  1.0277 -2.8369 -0.4994
  184SOPE    C321040   2.203   4.820   6.619 -0.1545  0.6459  0.0472
  184SOPE    HX21041   2.303   4.867   6.608  0.4789 -0.4288  0.9827
  184SOPE    HY21042   2.228   4.712   6.610  1.1008  0.7631  1.6954
  184SOPE   O3121043   2.149   4.848   6.753  0.6608 -0.5851  0.3384
  184SOPE   C3121044   2.072   4.750   6.791 -0.0298  0.0203 -0.2826
  184SOPE   O3221045   2.045   4.646   6.735 -0.3707 -0.7520 -0.2113
  184SOPE   C3221046   2.026   4.790   6.934 -0.1530  0.2678  0.3315
  184SOPE   H2X21047   1.978   4.889   6.943 -0.9316 -0.2453  2.2792
  184SOPE   H2Y21048   2.113   4.781   7.003  0.3222  0.0230 -0.2871
  184SOPE   C2321049   1.902   5.271   6.694  0.5776  0.3489  0.7754
  184SOPE   H3R21050   1.808   5.221   6.727  1.1231  0.6593  2.8896
  184SOPE   H3S21051   1.882   5.380   6.689 -0.0540  0.2352  0.6873
  184SOPE   C2421052   1.999   5.247   6.813  0.1236 -0.2896 -0.1011
  184SOPE   H4R21053   2.003   5.138   6.835 -2.9009 -0.3032  0.8303
  184SOPE   H4S21054   2.104   5.280   6.801  0.6497 -1.4933  0.9416
  184SOPE   C2521055   1.945   5.322   6.939 -0.7595  0.4570  0.5873
  184SOPE   H5R21056   1.954   5.429   6.910  0.0028 -0.1857 -1.8232
  184SOPE   H5S21057   1.841   5.283   6.948 -0.9430  0.7958 -0.0189
  184SOPE   C2621058   2.021   5.292   7.061 -0.7078 -0.3707 -0.1053
  184SOPE   H6R21059   2.045   5.185   7.081  0.4342 -0.7528 -3.0187
  184SOPE   H6S21060   2.118   5.338   7.030 -0.9389 -0.4699 -0.9887
  184SOPE   C2721061   1.955   5.359   7.181 -0.1488 -0.1634 -0.7606
  184SOPE   H7R21062   1.926   5.461   7.149 -0.6572 -0.4781 -1.3228
  184SOPE   H7S21063   1.860   5.303   7.199 -0.8339  1.0456 -0.5194
  184SOPE   C2821064   2.045   5.354   7.305 -0.6398 -0.0254 -0.8804
  184SOPE   H8R21065   2.066   5.246   7.324 -0.4566 -0.1598 -1.8221
  184SOPE   H8S21066   2.143   5.404   7.297  1.5024 -3.0860  2.6527
  184SOPE   C2921067   1.981   5.386   7.441  0.6927 -0.3035  0.3718
  184SOPE   H9121068   1.871   5.391   7.440  0.6794 -0.6820 -0.6944
  184SOPE  C21021069   2.047   5.399   7.558  0.7347  0.3032  0.1103
  184SOPE  H10121070   1.989   5.422   7.649  2.0551 -1.5093  1.4673
  184SOPE  C21121071   2.194   5.383   7.576  0.2559  0.0186  0.2702
  184SOPE  H11R21072   2.241   5.352   7.481  2.1945  0.2119  1.1100
  184SOPE  H11S21073   2.214   5.303   7.651  0.1495  1.7131  2.2232
  184SOPE  C21221074   2.270   5.506   7.631 -0.0840 -0.0584  0.0680
  184SOPE  H12R21075   2.255   5.600   7.575 -1.4426 -0.2210  0.1258
  184SOPE  H12S21076   2.379   5.483   7.620  0.1572  0.2807  1.5804
  184SOPE  C21321077   2.239   5.526   7.783 -0.2172 -1.0988  0.3372
  184SOPE  H13R21078   2.274   5.436   7.840  0.6934  0.2113  1.9354
  184SOPE  H13S21079   2.131   5.554   7.787  0.0801  0.1755 -0.1439
  184SOPE  C21421080   2.322   5.650   7.837  0.2851 -0.0232  0.3579
  184SOPE  H14R21081   2.306   5.743   7.779  0.4995  0.3703  0.9138
  184SOPE  H14S21082   2.430   5.627   7.830  0.4863  0.2001  2.0779
  184SOPE  C21521083   2.284   5.672   7.980 -0.0330 -0.0544  0.1017
  184SOPE  H15R21084   2.311   5.585   8.043 -1.4859 -0.5859  0.0290
  184SOPE  H15S21085   2.173   5.686   7.986 -0.0653 -0.9389  1.9044
  184SOPE  C21621086   2.347   5.799   8.040 -0.1797 -0.1353 -0.1061
  184SOPE  H16R21087   2.453   5.798   8.009  0.1691  2.1444  0.8475
  184SOPE  H16S21088   2.348   5.812   8.151  0.4061 -2.2536  0.1799
  184SOPE  C21721089   2.286   5.931   7.996 -0.4936 -0.6816  0.1637
  184SOPE  H17R21090   2.195   5.956   8.055 -0.1581  2.3100 -0.3918
  184SOPE  H17S21091   2.249   5.911   7.893  0.0054  0.6356 -0.3014
  184SOPE  C21821092   2.381   6.046   8.023  0.5675  0.4794 -0.1222
  184SOPE  H18R21093   2.406   6.035   8.130  0.7187 -2.0449 -0.3503
  184SOPE  H18S21094   2.317   6.135   8.008  1.9078  1.6266  0.7118
  184SOPE  H18T21095   2.475   6.051   7.963 -0.1156 -1.8848 -1.5411
  184SOPE   C3321096   1.914   4.698   6.987 -0.8322  0.0536 -0.7811
  184SOPE   H3X21097   1.954   4.595   6.996  0.6727  0.7031  0.2177
  184SOPE   H3Y21098   1.820   4.680   6.930 -1.2339 -0.5911  0.0755
  184SOPE   C3421099   1.852   4.754   7.118  0.5523  0.5989 -0.0583
  184SOPE   H4X21100   1.808   4.853   7.093  2.7054  1.4121 -0.9211
  184SOPE   H4Y21101   1.928   4.775   7.197  0.7844  1.2748 -0.4525
  184SOPE   C3521102   1.749   4.654   7.172 -0.2274  0.7241 -0.2826
  184SOPE   H5X21103   1.816   4.566   7.182  0.0340  0.7439 -1.6567
  184SOPE   H5Y21104   1.680   4.627   7.090  0.5559 -1.2134 -0.3711
  184SOPE   C3621105   1.676   4.677   7.307  0.1064  0.7134 -0.1552
  184SOPE   H6X21106   1.631   4.583   7.343 -0.0870  0.4641 -1.0304
  184SOPE   H6Y21107   1.590   4.742   7.281 -0.4814  0.2361  0.5828
  184SOPE   C3721108   1.773   4.727   7.416 -0.5130 -0.6048  0.2406
  184SOPE   H7X21109   1.816   4.826   7.389  0.4171 -0.9705  0.3316
  184SOPE   H7Y21110   1.855   4.656   7.442 -0.2602 -0.2101  0.5474
  184SOPE   C3821111   1.711   4.745   7.554  0.3301  0.2629 -0.5609
  184SOPE   H8X21112   1.687   4.644   7.595  0.8325  0.3130 -0.1272
  184SOPE   H8Y21113   1.610   4.787   7.536  0.7613  0.8292 -1.8013
  184SOPE   C3921114   1.797   4.831   7.647  0.3279  0.5826 -0.0198
  184SOPE   H9X21115   1.902   4.803   7.622  0.0276  0.7227 -1.4883
  184SOPE   H9Y21116   1.773   4.806   7.753  1.3305  1.4982  0.4431
  184SOPE  C31021117   1.776   4.984   7.635  0.3041 -0.0724 -0.0335
  184SOPE  H10X21118   1.668   5.008   7.639  0.2277 -0.2281 -0.9914
  184SOPE  H10Y21119   1.800   5.008   7.530 -0.1454 -1.1661 -0.4023
  184SOPE  C31121120   1.866   5.065   7.735  0.5966  0.4257  0.1239
  184SOPE  H11X21121   1.950   5.115   7.682 -0.8294  1.5468 -1.1716
  184SOPE  H11Y21122   1.892   4.984   7.806  0.8622  0.7325  0.3814
  184SOPE  C31221123   1.811   5.179   7.817  0.1783 -0.2466  0.0930
  184SOPE  H12X21124   1.720   5.148   7.871  1.1139 -3.3575  0.0838
  184SOPE  H12Y21125   1.781   5.267   7.755 -0.8432  0.2220  1.2200
  184SOPE  C31321126   1.917   5.223   7.915  0.8670 -0.3695  0.1686
  184SOPE  H13X21127   2.010   5.224   7.853 -1.2309  0.3650 -3.2660
  184SOPE  H13Y21128   1.914   5.145   7.994 -0.6590  0.0422  0.5389
  184SOPE  C31421129   1.883   5.364   7.977 -0.3131  0.4334 -0.1717
  184SOPE  H14X21130   1.773   5.362   7.987 -0.5507  1.9433 -1.7974
  184SOPE  H14Y21131   1.912   5.440   7.900  0.7589  0.5442  0.3228
  184SOPE  C31521132   1.958   5.391   8.109 -0.0184  0.8879  0.0081
  184SOPE  H15X21133   2.062   5.364   8.081 -0.9444 -1.8259 -1.1399
  184SOPE  H15Y21134   1.926   5.331   8.197  3.7456 -1.2328  0.1579
  184SOPE  C31621135   1.961   5.538   8.140 -0.5501 -0.6007 -0.2764
  184SOPE  H16X21136   1.863   5.571   8.180 -1.2519 -0.4978 -1.9852
  184SOPE  H16Y21137   1.988   5.601   8.053  1.1520  0.4583  0.9516
  184SOPE  C31721138   2.074   5.568   8.241  0.4143 -0.6276 -0.3412
  184SOPE  H17X21139   2.169   5.529   8.199  1.3918 -0.8578  1.8980
  184SOPE  H17Y21140   2.056   5.511   8.335 -0.2701  0.7551  0.4020
  184SOPE  C31821141   2.084   5.722   8.280  0.0399  0.3151  0.2732
  184SOPE  H18X21142   2.171   5.739   8.347 -2.2572  1.1424  3.2190
  184SOPE  H18Y21143   2.000   5.759   8.342 -0.1911  0.6680 -0.2429
  184SOPE  H18Z21144   2.083   5.780   8.185 -0.7897  2.2917  1.4396
  185SAPI   C1221145   3.246   2.799  11.132 -0.2405 -0.2855  0.0556
  185SAPI    H221146   3.215   2.884  11.066 -1.3478 -0.5336  0.2396
  185SAPI    O221147   3.284   2.865  11.254 -0.2505 -0.2641  0.1101
  185SAPI   HO221148   3.271   2.959  11.242  0.9449 -0.2633 -1.4883
  185SAPI   C1321149   3.130   2.707  11.160 -0.3201  0.7528 -0.0000
  185SAPI    H321150   3.099   2.661  11.063 -0.7578 -4.1966  2.1752
  185SAPI    O321151   3.021   2.786  11.204 -0.4828  0.4717 -0.1365
  185SAPI   HO321152   3.062   2.841  11.272 -0.3910  0.2935 -0.0465
  185SAPI   C1421153   3.175   2.599  11.257  0.4293 -1.1530  0.3471
  185SAPI    H421154   3.199   2.639  11.357 -2.7911 -0.2399  0.8619
  185SAPI    O421155   3.071   2.501  11.274 -0.3531 -0.4892  0.2412
  185SAPI   HO421156   3.093   2.457  11.357  1.5000  1.0146  0.6277
  185SAPI   C1521157   3.295   2.527  11.189 -0.0764  0.1224  0.4246
  185SAPI    H521158   3.265   2.477  11.094  1.7030 -4.0664  1.8296
  185SAPI    O521159   3.343   2.418  11.268  0.2540  0.4331  0.2903
  185SAPI   HO521160   3.376   2.469  11.342 -2.6735  2.8964  0.0965
  185SAPI   C1621161   3.409   2.615  11.152 -0.2830 -0.6520  0.3127
  185SAPI    H621162   3.448   2.656  11.248 -0.9160  0.5678  0.0673
  185SAPI    O621163   3.511   2.542  11.093 -0.4202 -0.4811  0.2626
  185SAPI   HO621164   3.491   2.516  11.003  1.7242  1.9000 -1.0572
  185SAPI   C1121165   3.359   2.726  11.062 -0.9346  0.7962  0.5803
  185SAPI    H121166   3.311   2.684  10.971  0.0833 -1.6711  1.1116
  185SAPI     P21167   3.512   2.857  10.879  0.4161 -0.1265 -0.1883
  185SAPI   O1321168   3.488   2.749  10.780 -0.1409 -0.6572  0.1938
  185SAPI   O1421169   3.647   2.910  10.882 -0.1175 -0.2345 -0.4152
  185SAPI   O1221170   3.467   2.815  11.034  0.1157  0.0103  0.2441
  185SAPI   O1121171   3.418   2.976  10.836 -0.3890  0.6130 -0.0090
  185SAPI    C121172   3.280   2.944  10.811 -0.3092  0.3023 -0.6932
  185SAPI    HA21173   3.244   2.843  10.840 -1.3345  1.0686  0.8035
  185SAPI    HB21174   3.212   3.010  10.869 -0.3136  0.4167 -0.8264
  185SAPI    C221175   3.248   2.970  10.658 -0.3340  0.1857  0.2895
  185SAPI    HS21176   3.137   2.971  10.652 -0.5373 -0.0761  2.8870
  185SAPI   O2121177   3.315   2.868  10.586 -0.2704  0.1379 -0.1901
  185SAPI   C2121178   3.258   2.744  10.586  0.4288 -0.5099 -0.3416
  185SAPI   O2221179   3.144   2.733  10.642 -0.2851  0.4111  0.2283
  185SAPI   C2221180   3.325   2.644  10.504 -0.1285 -0.0850  0.7253
  185SAPI   H2R21181   3.433   2.666  10.509 -0.1247 -0.2605  1.6932
  185SAPI   H2S21182   3.298   2.548  10.553 -0.8256  0.3651  1.2585
  185SAPI    C321183   3.306   3.108  10.609 -0.4166 -0.1594  1.0724
  185SAPI    HX21184   3.405   3.123  10.656 -0.5309  2.3788  0.6482
  185SAPI    HY21185   3.246   3.193  10.649 -0.3202  0.3173  0.2236
  185SAPI   O3121186   3.320   3.111  10.464  0.2514 -0.1126  0.3342
  185SAPI   C3121187   3.205   3.114  10.402  0.0844  0.6871 -0.1501
  185SAPI   O3221188   3.093   3.116  10.447  0.3279  0.2230  0.1083
  185SAPI   C3221189   3.239   3.129  10.250 -0.0099 -0.5399 -0.1873
  185SAPI   H2X21190   3.348   3.111  10.238  0.2778  0.2138  1.0554
  185SAPI   H2Y21191   3.221   3.235  10.221  1.8316 -0.7271 -2.2736
  185SAPI   C2321192   3.264   2.633  10.365 -0.1539  0.2243  0.1149
  185SAPI   H3R21193   3.293   2.724  10.308 -0.6109 -0.8807 -1.9706
  185SAPI   H3S21194   3.153   2.632  10.372 -0.0417  0.3015  3.3365
  185SAPI   C2421195   3.318   2.507  10.299  0.2464  0.4944  0.0092
  185SAPI   H4R21196   3.420   2.490  10.339  0.5266 -1.7989 -1.5043
  185SAPI   H4S21197   3.345   2.521  10.192 -2.5141 -3.8329 -1.5222
  185SAPI   C2521198   3.233   2.390  10.340  0.0895  0.2218  0.4865
  185SAPI   H5R21199   3.221   2.370  10.448  0.7985 -1.7562  0.2365
  185SAPI   C2621200   3.171   2.302  10.264  0.2484 -0.2688 -0.2780
  185SAPI   H6R21201   3.107   2.227  10.312  0.2131  0.0299  0.1501
  185SAPI   C2721202   3.164   2.300  10.115  0.6635 -0.8388  0.4581
  185SAPI   H7R21203   3.128   2.201  10.082  0.1453 -1.1619  1.9293
  185SAPI   H7S21204   3.258   2.316  10.059 -0.0587 -0.9728 -0.8367
  185SAPI   C2821205   3.058   2.403  10.074  0.3957 -0.5982 -0.1717
  185SAPI   H8R21206   3.032   2.473  10.154  0.6922 -0.1761 -0.4397
  185SAPI   C2921207   2.989   2.412   9.962  0.0838 -0.1343 -0.2283
  185SAPI   H9R21208   2.917   2.495   9.955 -1.0435 -0.5837  3.7666
  185SAPI  C21021209   2.996   2.319   9.848 -0.0035 -0.0470 -1.2457
  185SAPI  H10R21210   2.915   2.243   9.854  0.3882 -0.3986 -0.2908
  185SAPI  H10S21211   3.091   2.262   9.850  0.7991  1.0884  3.4996
  185SAPI  C21121212   2.993   2.401   9.724 -0.0456 -0.5172  0.1814
  185SAPI  H11R21213   3.059   2.489   9.724  0.1562 -0.6635  0.7059
  185SAPI  C21221214   2.934   2.378   9.610  0.0529  0.4104  0.5973
  185SAPI  H12R21215   2.946   2.442   9.521  2.1594  1.2042  1.3969
  185SAPI  C21321216   2.853   2.258   9.574  0.1500 -0.6312  0.3434
  185SAPI  H13R21217   2.827   2.196   9.662 -0.0215 -0.6031  0.3131
  185SAPI  H13S21218   2.917   2.205   9.500  0.0241  0.9818 -1.0116
  185SAPI  C21421219   2.714   2.298   9.525  1.1958  0.5693 -0.0825
  185SAPI  H14R21220   2.646   2.328   9.606  0.7613 -0.3511 -0.0944
  185SAPI  C21521221   2.656   2.262   9.408  0.1505 -1.1783  0.1749
  185SAPI  H15R21222   2.550   2.292   9.401  0.5319  0.0785 -0.5261
  185SAPI  C21621223   2.730   2.183   9.292  0.5014 -0.1732  0.5070
  185SAPI  H16R21224   2.652   2.141   9.224  0.4166 -0.9047  1.0492
  185SAPI  H16S21225   2.787   2.095   9.329  1.3902  0.8303  1.5994
  185SAPI  C21721226   2.839   2.265   9.212  0.3302 -0.5374 -0.8532
  185SAPI  H17R21227   2.904   2.304   9.294  1.6732 -2.4405 -0.9559
  185SAPI  H17S21228   2.784   2.352   9.169  1.5697  0.1599 -1.0748
  185SAPI  C21821229   2.913   2.197   9.098 -0.0797 -0.5446  0.3574
  185SAPI  H18R21230   2.860   2.199   9.000  3.6850  1.0909 -1.9009
  185SAPI  H18S21231   2.937   2.095   9.136  1.7159  0.6912  2.8306
  185SAPI  C21921232   3.046   2.257   9.062 -0.5730  0.7801  0.1212
  185SAPI  H19R21233   3.102   2.256   9.158  0.9998 -0.6084 -0.7620
  185SAPI  H19S21234   3.036   2.361   9.025  0.8686  0.6560 -0.6619
  185SAPI  C22021235   3.129   2.169   8.957 -0.0907  0.5321  0.3871
  185SAPI  H20R21236   3.062   2.148   8.871  1.7690 -0.6083 -0.8480
  185SAPI  H20S21237   3.143   2.067   8.998 -1.4847  1.2735  2.9956
  185SAPI  H20T21238   3.222   2.222   8.927  0.7928 -1.5373 -0.7395
  185SAPI   C3321239   3.145   3.048  10.160 -0.4854  0.2793  0.5117
  185SAPI   H3X21240   3.043   3.091  10.168 -1.4167 -1.7704  0.3871
  185SAPI   H3Y21241   3.130   2.941  10.185 -2.0546 -0.1031 -1.7144
  185SAPI   C3421242   3.186   3.049  10.007 -0.1787  0.2320 -0.2294
  185SAPI   H4X21243   3.106   3.006   9.942 -0.3311  3.1196 -2.1428
  185SAPI   H4Y21244   3.287   3.001  10.008 -0.4154 -0.2647  0.7591
  185SAPI   C3521245   3.211   3.187   9.946  0.0055 -0.7483  0.3456
  185SAPI   H5X21246   3.282   3.244  10.009 -1.6309  0.2761  1.3299
  185SAPI   H5Y21247   3.115   3.242   9.942  0.3147 -0.3125 -1.7922
  185SAPI   C3621248   3.265   3.166   9.801  0.4653  0.2958  0.0202
  185SAPI   H6X21249   3.335   3.082   9.819 -0.0076 -0.1382 -0.1076
  185SAPI   H6Y21250   3.316   3.252   9.753 -0.0148 -0.0224 -1.1120
  185SAPI   C3721251   3.155   3.125   9.708  0.4524  0.3693 -0.0513
  185SAPI   H7X21252   3.069   3.195   9.703 -0.3487 -0.6224 -0.5641
  185SAPI   H7Y21253   3.108   3.029   9.738 -0.8765  1.1613  0.4707
  185SAPI   C3821254   3.208   3.112   9.560  0.0882  0.0607 -1.2028
  185SAPI   H8X21255   3.293   3.040   9.550  2.2025  2.3615 -0.8316
  185SAPI   H8Y21256   3.262   3.208   9.547  1.5771  0.0041  2.9955
  185SAPI   C3921257   3.088   3.082   9.464 -0.2320 -0.8912 -0.2880
  185SAPI   H9X21258   3.029   3.176   9.465  3.8126  1.9263 -0.2765
  185SAPI   H9Y21259   3.032   2.995   9.503  1.1057 -1.0226  1.4603
  185SAPI  C31021260   3.129   3.067   9.320 -0.4712 -0.6592  0.0255
  185SAPI  H10X21261   3.037   3.058   9.259 -0.7038  0.6708  0.1469
  185SAPI  H10Y21262   3.185   2.971   9.315 -0.4065 -0.6143 -0.1162
  185SAPI  C31121263   3.206   3.184   9.255 -0.6785  0.0568 -0.1612
  185SAPI  H11X21264   3.278   3.226   9.329 -0.4336 -0.8018  0.0926
  185SAPI  H11Y21265   3.130   3.263   9.240 -2.0521 -1.4524 -1.4796
  185SAPI  C31221266   3.290   3.141   9.130  0.7383 -0.6137 -0.7388
  185SAPI  H12X21267   3.360   3.061   9.163 -0.3100 -1.7750 -1.2709
  185SAPI  H12Y21268   3.352   3.224   9.087  0.1580  0.4752  0.4475
  185SAPI  C31321269   3.203   3.099   9.016  0.0948 -0.1233  0.1995
  185SAPI  H13X21270   3.171   3.196   8.972 -0.8392 -0.0876  0.9421
  185SAPI  H13Y21271   3.120   3.034   9.050 -0.6009  0.7196  0.1450
  185SAPI  C31421272   3.293   3.012   8.924 -0.3119 -0.2049 -0.6575
  185SAPI  H14X21273   3.351   2.939   8.985 -0.8500 -0.4518 -0.4349
  185SAPI  H14Y21274   3.367   3.078   8.875  0.5675  0.7670  1.8482
  185SAPI  C31521275   3.220   2.944   8.807  0.0774  0.0189  0.3812
  185SAPI  H15X21276   3.129   3.007   8.795 -0.6669 -0.2828  3.5364
  185SAPI  H15Y21277   3.193   2.841   8.838  1.7441  0.0034  1.9305
  185SAPI  C31621278   3.312   2.942   8.681  0.0197  0.5123  0.2452
  185SAPI  H16X21279   3.337   3.042   8.639  1.7645 -0.6232 -1.6116
  185SAPI  H16Y21280   3.251   2.885   8.609 -2.9668  2.0742  1.3450
  185SAPI  C31721281   3.445   2.873   8.704 -0.5712 -0.2105  0.5531
  185SAPI  H17X21282   3.440   2.769   8.664 -1.0452  0.1744 -0.4286
  185SAPI  H17Y21283   3.471   2.876   8.812 -0.3550 -0.1155  0.4986
  185SAPI  C31821284   3.561   2.949   8.642  0.0904 -0.0968 -0.1080
  185SAPI  H18X21285   3.652   2.888   8.657  0.2571 -0.8281 -3.3028
  185SAPI  H18Y21286   3.562   3.053   8.681 -0.7751 -0.0987 -0.0636
  185SAPI  H18Z21287   3.550   2.957   8.531  2.2797  2.7179 -0.2259
  186SAPI   C1221288   5.169   1.917  11.123  0.1877  0.3409 -0.1050
  186SAPI    H221289   5.190   1.983  11.035 -0.5383 -1.5105 -1.7388
  186SAPI    O221290   5.285   1.831  11.147  0.1224 -0.7234  0.4393
  186SAPI   HO221291   5.275   1.771  11.073 -1.7857  1.0336 -0.8421
  186SAPI   C1321292   5.141   2.004  11.247  0.4164 -0.0586  0.2059
  186SAPI    H321293   5.072   2.088  11.223  0.3906  0.1905  1.1073
  186SAPI    O321294   5.263   2.070  11.280 -0.3756  0.3771  0.0691
  186SAPI   HO321295   5.334   2.012  11.251  1.4945  3.0280 -1.1324
  186SAPI   C1421296   5.085   1.924  11.356 -0.2944 -0.2870 -0.1840
  186SAPI    H421297   5.162   1.852  11.394 -2.0506 -2.7812 -1.0807
  186SAPI    O421298   5.045   2.014  11.465 -0.2733 -0.5568  0.2746
  186SAPI   HO421299   5.126   2.045  11.506 -0.3069 -0.7768  0.5072
  186SAPI   C1521300   4.971   1.833  11.320 -0.4457 -0.1881  0.0650
  186SAPI    H521301   4.894   1.905  11.285  1.3880  0.8074 -2.2847
  186SAPI    O521302   4.919   1.755  11.422 -0.2070  0.0062 -0.7217
  186SAPI   HO521303   4.864   1.814  11.474  0.5340  0.1338 -0.0608
  186SAPI   C1621304   5.001   1.739  11.196  0.1082 -0.4741  0.0809
  186SAPI    H621305   5.084   1.673  11.229  1.8758  2.5795  2.2624
  186SAPI    O621306   4.889   1.665  11.156 -0.2199  0.8490 -0.2319
  186SAPI   HO621307   4.877   1.686  11.064  2.1676 -2.2564 -1.4484
  186SAPI   C1121308   5.052   1.827  11.077 -0.4254  0.2127 -0.0591
  186SAPI    H121309   4.969   1.895  11.047  0.2286 -0.8296 -4.9449
  186SAPI     P21310   4.998   1.739  10.824 -0.2834 -0.5522  0.1070
  186SAPI   O1321311   4.872   1.672  10.859 -0.5592 -0.0991 -0.0297
  186SAPI   O1421312   5.081   1.666  10.731  0.3104 -0.0447  0.5602
  186SAPI   O1221313   5.090   1.753  10.958  0.0174 -0.3313 -0.1359
  186SAPI   O1121314   4.988   1.880  10.768 -0.5379 -0.1971 -0.4192
  186SAPI    C121315   4.880   1.923  10.685 -1.2395 -0.0783  0.7929
  186SAPI    HA21316   4.779   1.908  10.729 -1.1694  2.9701  2.2740
  186SAPI    HB21317   4.897   2.033  10.676  1.3537 -0.5804 -1.8888
  186SAPI    C221318   4.883   1.868  10.536  0.2393  0.1702 -0.4390
  186SAPI    HS21319   4.863   1.759  10.539  0.8098  0.0869  1.2444
  186SAPI   O2121320   5.013   1.887  10.484 -0.0310 -0.4769  0.4081
  186SAPI   C2121321   5.069   1.781  10.427 -0.6454  0.5170  0.4975
  186SAPI   O2221322   5.014   1.690  10.376  0.4137 -1.0573  0.3406
  186SAPI   C2221323   5.223   1.808  10.431 -0.8396  0.4117 -0.2474
  186SAPI   H2R21324   5.237   1.867  10.525  1.9266 -2.0056  0.9878
  186SAPI   H2S21325   5.271   1.709  10.439 -0.4054  0.3953 -2.4657
  186SAPI    C321326   4.771   1.934  10.455 -0.2059  0.3571 -0.0147
  186SAPI    HX21327   4.789   2.043  10.459 -0.9626  0.7050 -3.3614
  186SAPI    HY21328   4.669   1.911  10.494 -0.9795  0.9739 -1.5699
  186SAPI   O3121329   4.768   1.892  10.314 -0.2731 -0.0149 -0.4138
  186SAPI   C3121330   4.736   1.768  10.280  0.3520  0.2779 -0.7355
  186SAPI   O3221331   4.702   1.677  10.360  0.3912 -0.1573 -0.3340
  186SAPI   C3221332   4.731   1.757  10.127 -0.0269  0.4210  0.3002
  186SAPI   H2X21333   4.808   1.829  10.094  2.9788 -2.4228  0.5952
  186SAPI   H2Y21334   4.633   1.798  10.096 -0.4792 -0.3597  0.6568
  186SAPI   C2321335   5.288   1.883  10.308  1.3727  0.2537 -0.7313
  186SAPI   H3R21336   5.378   1.940  10.341  1.4661 -0.2979 -0.0332
  186SAPI   H3S21337   5.219   1.966  10.282  1.2885  1.1481  2.0840
  186SAPI   C2421338   5.322   1.813  10.174  0.5400  0.6411 -0.9206
  186SAPI   H4R21339   5.384   1.725  10.204 -1.3279 -0.1768  0.7159
  186SAPI   H4S21340   5.392   1.871  10.110 -0.1720  2.8397  0.2284
  186SAPI   C2521341   5.192   1.756  10.116 -0.1192  0.2709 -0.5247
  186SAPI   H5R21342   5.146   1.675  10.174 -0.5242  0.0007 -1.2025
  186SAPI   C2621343   5.135   1.784   9.991 -0.8093 -0.5278 -0.3537
  186SAPI   H6R21344   5.049   1.728   9.951  0.0206 -0.7275 -1.9213
  186SAPI   C2721345   5.191   1.893   9.903 -0.0882 -0.5219 -0.8764
  186SAPI   H7R21346   5.215   1.979   9.969  0.4508 -2.0713  1.0351
  186SAPI   H7S21347   5.120   1.942   9.833  1.7779  1.7355 -1.3106
  186SAPI   C2821348   5.316   1.867   9.833  0.2900  0.2442  0.6567
  186SAPI   H8R21349   5.400   1.894   9.898  2.6015  0.1328 -2.0786
  186SAPI   C2921350   5.329   1.842   9.698  1.1239  0.6882 -0.3498
  186SAPI   H9R21351   5.426   1.798   9.672  0.7802 -0.4291  0.2194
  186SAPI  C21021352   5.219   1.802   9.601 -0.1946 -0.5365 -0.5168
  186SAPI  H10R21353   5.142   1.740   9.652  0.4822 -0.3707  0.7406
  186SAPI  H10S21354   5.260   1.734   9.522  0.0840 -0.5521 -0.3601
  186SAPI  C21121355   5.150   1.917   9.525  0.3196 -0.5408 -0.2601
  186SAPI  H11R21356   5.169   2.016   9.568 -3.9286  0.8547 -1.0821
  186SAPI  C21221357   5.053   1.908   9.432  0.2025 -0.3864 -0.2986
  186SAPI  H12R21358   5.010   1.997   9.383 -0.5941  0.3251  1.5711
  186SAPI  C21321359   5.000   1.784   9.374 -0.0211 -0.0896 -0.7528
  186SAPI  H13R21360   4.946   1.720   9.447  1.0976 -1.5925 -1.1863
  186SAPI  H13S21361   5.082   1.728   9.325  1.0497  1.7089 -1.0829
  186SAPI  C21421362   4.885   1.816   9.277  1.1954 -0.4291  0.2719
  186SAPI  H14R21363   4.789   1.847   9.322  1.3327  1.0002 -0.3620
  186SAPI  C21521364   4.895   1.800   9.143  0.8406  0.0046 -0.2859
  186SAPI  H15R21365   4.812   1.833   9.079 -0.3335 -3.4666 -0.7274
  186SAPI  C21621366   5.019   1.756   9.070 -0.1302  0.4571  0.1463
  186SAPI  H16R21367   5.072   1.670   9.117  0.0223 -0.8999 -2.3392
  186SAPI  H16S21368   5.089   1.840   9.057 -0.8320  1.0951  0.4329
  186SAPI  C21721369   4.990   1.699   8.931 -0.3665  0.1053 -0.2113
  186SAPI  H17R21370   5.095   1.677   8.902  1.1473  4.0195  1.5708
  186SAPI  H17S21371   4.947   1.770   8.857 -1.1141  0.4913  0.5810
  186SAPI  C21821372   4.916   1.564   8.932 -0.3997  0.5982 -1.1934
  186SAPI  H18R21373   4.841   1.575   9.013  0.9082 -0.3036  0.1717
  186SAPI  H18S21374   4.991   1.491   8.969 -0.8409  1.8114  2.4933
  186SAPI  C21921375   4.852   1.519   8.799 -0.0236  0.3552  0.1151
  186SAPI  H19R21376   4.761   1.582   8.790 -0.9212 -0.7846  1.0272
  186SAPI  H19S21377   4.811   1.417   8.791  2.5166 -0.7243 -0.1046
  186SAPI  C22021378   4.944   1.543   8.680 -0.2433  0.5572  0.1485
  186SAPI  H20R21379   5.038   1.485   8.687 -1.2994 -1.1045  1.1408
  186SAPI  H20S21380   4.968   1.652   8.678  0.0332  0.5249  1.2135
  186SAPI  H20T21381   4.902   1.507   8.584  2.3568 -1.9468 -0.1664
  186SAPI   C3321382   4.772   1.611  10.078  0.4198  0.4204 -0.9082
  186SAPI   H3X21383   4.722   1.522  10.123 -1.2529  1.4674 -0.6020
  186SAPI   H3Y21384   4.877   1.599  10.112  0.3844 -0.3285 -1.0422
  186SAPI   C3421385   4.774   1.603   9.925  0.1086  0.0880 -0.6474
  186SAPI   H4X21386   4.846   1.523   9.898 -0.1094 -1.4358  2.7898
  186SAPI   H4Y21387   4.818   1.692   9.873 -0.5077  0.8726  0.1509
  186SAPI   C3521388   4.643   1.568   9.862  0.9533 -0.0705  0.2867
  186SAPI   H5X21389   4.564   1.640   9.891 -1.0250 -1.3111 -1.6480
  186SAPI   H5Y21390   4.615   1.473   9.912  1.9248  0.6062  2.1957
  186SAPI   C3621391   4.654   1.565   9.707  0.5753  0.0348 -0.5972
  186SAPI   H6X21392   4.727   1.487   9.679  0.8611 -0.0705  0.3908
  186SAPI   H6Y21393   4.687   1.665   9.671 -0.1060  0.6664  0.4679
  186SAPI   C3721394   4.517   1.525   9.649 -0.8125 -0.2798 -0.0022
  186SAPI   H7X21395   4.449   1.612   9.664 -0.5054 -0.4095  2.7542
  186SAPI   H7Y21396   4.479   1.445   9.717  0.3920 -0.8504  0.0312
  186SAPI   C3821397   4.535   1.487   9.501 -0.1153  0.5328  0.1691
  186SAPI   H8X21398   4.438   1.443   9.469  1.0418 -1.8064 -0.3599
  186SAPI   H8Y21399   4.612   1.407   9.500  0.5718  1.1403  1.9763
  186SAPI   C3921400   4.575   1.598   9.403 -0.0664  0.2313  0.7315
  186SAPI   H9X21401   4.685   1.614   9.413  0.0113  1.2465 -1.2511
  186SAPI   H9Y21402   4.516   1.684   9.440  0.3589  1.7077 -1.7741
  186SAPI  C31021403   4.541   1.573   9.249 -0.0969  1.0157 -0.4749
  186SAPI  H10X21404   4.566   1.661   9.186 -2.0530 -0.4913 -3.5727
  186SAPI  H10Y21405   4.433   1.572   9.226 -0.3634 -0.9746  0.6069
  186SAPI  C31121406   4.616   1.450   9.197 -0.6076 -0.1491 -0.2460
  186SAPI  H11X21407   4.579   1.366   9.260 -0.8854 -0.9798 -1.4849
  186SAPI  H11Y21408   4.725   1.468   9.204 -0.3212 -2.2439  4.8897
  186SAPI  C31221409   4.585   1.426   9.046 -0.4559  0.4972 -0.1532
  186SAPI  H12X21410   4.615   1.513   8.983 -1.3163  0.5173 -0.5425
  186SAPI  H12Y21411   4.477   1.406   9.034 -0.0664 -0.9750 -1.5545
  186SAPI  C31321412   4.654   1.303   8.995 -0.6073  0.7383 -0.1616
  186SAPI  H13X21413   4.643   1.225   9.074 -0.9580  0.6744 -0.2754
  186SAPI  H13Y21414   4.765   1.310   8.994 -0.4273 -1.1406  0.5742
  186SAPI  C31421415   4.604   1.235   8.859  0.4556 -0.0287 -0.2480
  186SAPI  H14X21416   4.683   1.161   8.835 -0.3405 -1.5404  1.5253
  186SAPI  H14Y21417   4.616   1.317   8.785 -2.9617  1.0378  0.2174
  186SAPI  C31521418   4.459   1.179   8.855 -0.4415 -0.0232  0.5551
  186SAPI  H15X21419   4.394   1.267   8.873  0.0492 -0.1164  3.0727
  186SAPI  H15Y21420   4.436   1.112   8.940 -0.1735  1.2358  1.6458
  186SAPI  C31621421   4.439   1.113   8.713 -0.1869  0.4580 -0.2214
  186SAPI  H16X21422   4.476   1.008   8.714 -0.9110  0.1783 -1.2798
  186SAPI  H16Y21423   4.499   1.162   8.634  1.1210 -0.1539  0.3585
  186SAPI  C31721424   4.288   1.097   8.674 -0.4789  0.4679  0.4227
  186SAPI  H17X21425   4.226   1.063   8.760 -0.9957  2.6964  0.9854
  186SAPI  H17Y21426   4.281   1.021   8.593 -2.7276  2.2843 -1.2142
  186SAPI  C31821427   4.220   1.227   8.614  0.4414 -0.3080  0.5373
  186SAPI  H18X21428   4.125   1.193   8.568  1.6197  0.5891 -2.8780
  186SAPI  H18Y21429   4.275   1.255   8.522  1.7923 -1.2120  1.0326
  186SAPI  H18Z21430   4.219   1.310   8.688  1.8014  0.6466 -0.4641
  187SAPI   C1221431   2.121   1.123   6.059  0.3417 -0.6695  0.2470
  187SAPI    H221432   2.032   1.057   6.065  0.3882 -0.8946 -1.2418
  187SAPI    O221433   2.203   1.072   5.953 -0.2702  0.1265 -0.0963
  187SAPI   HO221434   2.267   1.009   5.987 -0.0190  1.1415  1.4347
  187SAPI   C1321435   2.071   1.262   6.019 -0.1272 -0.4135 -0.3300
  187SAPI    H321436   2.014   1.301   6.105  0.1979 -0.2882 -0.1687
  187SAPI    O321437   1.981   1.256   5.908 -0.4597  0.1768 -0.6008
  187SAPI   HO321438   1.899   1.304   5.923 -0.6996 -0.8101  1.7027
  187SAPI   C1421439   2.190   1.360   5.997 -0.0320  0.0551 -0.0172
  187SAPI    H421440   2.252   1.327   5.911  0.9571  3.0454 -0.5718
  187SAPI    O421441   2.146   1.491   5.965  0.0530  0.1745 -0.1637
  187SAPI   HO421442   2.219   1.552   5.962 -0.1084  0.5880  2.0902
  187SAPI   C1521443   2.285   1.357   6.123  0.6515  0.4176 -0.5690
  187SAPI    H521444   2.229   1.410   6.203  0.3807 -1.7380  0.7510
  187SAPI    O521445   2.408   1.426   6.096  0.2586 -0.2809  0.1134
  187SAPI   HO521446   2.427   1.498   6.156 -0.7187  0.1384 -0.0629
  187SAPI   C1621447   2.316   1.214   6.173  0.4427 -0.7527  1.0382
  187SAPI    H621448   2.386   1.168   6.100  0.0042  0.7017 -0.3541
  187SAPI    O621449   2.379   1.229   6.298 -0.9543 -0.0187 -0.2558
  187SAPI   HO621450   2.389   1.137   6.322  0.8872  0.0246 -0.7285
  187SAPI   C1121451   2.194   1.133   6.188 -0.5024 -0.3881 -0.6590
  187SAPI    H121452   2.129   1.186   6.261 -0.2802 -1.1654  0.1258
  187SAPI     P21453   2.117   0.934   6.342 -0.0636 -0.2804 -0.0711
  187SAPI   O1321454   2.149   0.788   6.363  0.0117  0.0954  0.6159
  187SAPI   O1421455   1.978   0.972   6.304 -0.1561 -0.0144 -0.8517
  187SAPI   O1221456   2.219   1.003   6.233  0.2118  0.0586  0.3939
  187SAPI   O1121457   2.164   1.016   6.476 -0.3618 -0.1821 -0.3140
  187SAPI    C121458   2.070   1.014   6.587  0.3336  0.2582 -0.7018
  187SAPI    HA21459   1.993   0.933   6.590  0.8359 -0.2157  2.0415
  187SAPI    HB21460   2.125   0.995   6.681 -0.7099  0.5529 -0.0149
  187SAPI    C221461   1.984   1.140   6.599  0.5337  0.2838  0.5488
  187SAPI    HS21462   1.930   1.147   6.502 -0.9446 -0.0664  1.3346
  187SAPI   O2121463   2.069   1.249   6.625 -0.4448  0.0890  0.0266
  187SAPI   C2121464   2.085   1.347   6.529  0.1484 -0.0850  0.6654
  187SAPI   O2221465   2.025   1.350   6.423 -0.2474  0.0366  0.4235
  187SAPI   C2221466   2.173   1.460   6.580 -0.0037 -0.1033 -0.1031
  187SAPI   H2R21467   2.114   1.512   6.658  1.7053 -0.5377  1.5381
  187SAPI   H2S21468   2.258   1.417   6.637 -0.1916  0.1942  0.4004
  187SAPI    C321469   1.870   1.130   6.704 -0.0405 -0.6359 -0.5899
  187SAPI    HX21470   1.812   1.036   6.689 -2.4092  0.3255  1.6764
  187SAPI    HY21471   1.795   1.210   6.688 -0.8891 -1.3729 -0.3811
  187SAPI   O3121472   1.945   1.129   6.832  0.4026 -0.1744  0.0507
  187SAPI   C3121473   1.923   1.237   6.903 -0.0927  0.3755 -0.5670
  187SAPI   O3221474   1.850   1.331   6.868 -0.1297  0.1170  0.2585
  187SAPI   C3221475   2.016   1.236   7.022 -0.1405  0.1258  0.9825
  187SAPI   H2X21476   2.117   1.273   6.991  0.7728 -1.3219  2.1294
  187SAPI   H2Y21477   2.034   1.132   7.056 -0.8315  0.5699  2.7983
  187SAPI   C2321478   2.210   1.570   6.473  0.1421 -0.5805  0.2545
  187SAPI   H3R21479   2.125   1.601   6.409 -1.2388 -0.6906  1.9450
  187SAPI   H3S21480   2.291   1.518   6.418 -1.4599 -0.8298 -1.9910
  187SAPI   C2421481   2.271   1.705   6.517 -0.1240 -1.1174  0.5250
  187SAPI   H4R21482   2.211   1.752   6.598 -1.3510  0.4099 -1.1721
  187SAPI   H4S21483   2.249   1.782   6.439 -1.7680 -1.9783  0.0966
  187SAPI   C2521484   2.418   1.713   6.551 -0.1385  0.3274 -0.4190
  187SAPI   H5R21485   2.472   1.691   6.458  0.9907  2.5638 -0.3527
  187SAPI   C2621486   2.481   1.736   6.665 -0.1585  0.0545  0.4033
  187SAPI   H6R21487   2.591   1.745   6.668 -0.0554 -1.1164  1.0339
  187SAPI   C2721488   2.427   1.771   6.805 -0.1402 -0.1218 -0.0125
  187SAPI   H7R21489   2.337   1.835   6.795 -0.1356 -0.1215 -0.0504
  187SAPI   H7S21490   2.504   1.839   6.847  1.2882 -2.1833  0.8920
  187SAPI   C2821491   2.398   1.658   6.900 -0.8699 -0.2068  0.9118
  187SAPI   H8R21492   2.408   1.554   6.867 -0.5329 -0.7253  2.5760
  187SAPI   C2921493   2.344   1.680   7.020 -0.2241 -0.2461  0.0138
  187SAPI   H9R21494   2.346   1.596   7.090 -0.1526  0.9572  1.5013
  187SAPI  C21021495   2.319   1.819   7.078  0.4136 -0.5779  0.2838
  187SAPI  H10R21496   2.214   1.855   7.083  0.9104  1.2389 -1.2295
  187SAPI  H10S21497   2.356   1.892   7.004 -2.1777 -1.3055 -1.8866
  187SAPI  C21121498   2.385   1.831   7.212  0.3521 -0.7080 -0.0146
  187SAPI  H11R21499   2.494   1.842   7.211  0.2405  0.7019  0.5808
  187SAPI  C21221500   2.320   1.826   7.335  0.3092  0.4757 -0.4069
  187SAPI  H12R21501   2.378   1.837   7.428  0.9370  0.8162 -0.8396
  187SAPI  C21321502   2.167   1.797   7.354 -0.9791  0.4775  0.4721
  187SAPI  H13R21503   2.102   1.869   7.300 -1.1947  0.0647  0.1833
  187SAPI  H13S21504   2.138   1.813   7.460 -1.0052  1.9832  0.2606
  187SAPI  C21421505   2.144   1.654   7.323 -0.2725 -0.6203  0.3712
  187SAPI  H14R21506   2.228   1.603   7.274 -1.2867 -2.1065  0.0901
  187SAPI  C21521507   2.026   1.595   7.336  0.5599 -0.1180 -0.3071
  187SAPI  H15R21508   2.008   1.489   7.316 -0.5253 -0.1112  0.5654
  187SAPI  C21621509   1.905   1.651   7.395 -0.2027 -0.1204 -0.0074
  187SAPI  H16R21510   1.811   1.627   7.341 -1.2124  2.2256  0.5620
  187SAPI  H16S21511   1.917   1.761   7.406  0.9485 -0.1265 -1.0234
  187SAPI  C21721512   1.896   1.601   7.547 -0.2641  0.3202  0.2647
  187SAPI  H17R21513   1.992   1.635   7.591  1.4790  0.0304 -2.9229
  187SAPI  H17S21514   1.883   1.491   7.557  1.6304  0.2505  2.7347
  187SAPI  C21821515   1.778   1.670   7.618  0.0326  0.2067  0.2143
  187SAPI  H18R21516   1.685   1.638   7.566  0.0126  0.2764  0.2076
  187SAPI  H18S21517   1.783   1.781   7.617  1.0209  0.1820 -1.6413
  187SAPI  C21921518   1.760   1.632   7.766 -0.5582 -0.4766 -0.0952
  187SAPI  H19R21519   1.759   1.522   7.784 -1.1469 -0.5270 -0.4232
  187SAPI  H19S21520   1.664   1.677   7.800 -0.3766  0.5262 -0.8908
  187SAPI  C22021521   1.877   1.678   7.861  0.0705  0.6796  0.0325
  187SAPI  H20R21522   1.904   1.784   7.840  1.7987  0.5723  1.4709
  187SAPI  H20S21523   1.966   1.613   7.847 -0.5985 -0.5907  1.3823
  187SAPI  H20T21524   1.840   1.668   7.965 -1.7186 -0.0236 -0.6344
  187SAPI   C3321525   1.971   1.309   7.147  0.2708 -0.0614  0.1622
  187SAPI   H3X21526   1.954   1.416   7.122  3.3541  0.8378  1.5502
  187SAPI   H3Y21527   2.061   1.325   7.210  0.6224  3.1633 -0.9688
  187SAPI   C3421528   1.852   1.247   7.220 -0.4896 -0.4102  0.6074
  187SAPI   H4X21529   1.877   1.150   7.268 -0.4748 -1.2368 -1.0091
  187SAPI   H4Y21530   1.780   1.220   7.141 -0.7346  0.4671  0.5260
  187SAPI   C3521531   1.794   1.322   7.338 -0.1753 -0.0939 -0.3193
  187SAPI   H5X21532   1.767   1.426   7.308  1.6621  0.6965  0.6272
  187SAPI   H5Y21533   1.870   1.337   7.417  2.1347 -0.8416 -2.2996
  187SAPI   C3621534   1.668   1.247   7.393  0.2729 -0.6463  0.8051
  187SAPI   H6X21535   1.669   1.140   7.365  1.4291 -0.5222  0.3139
  187SAPI   H6Y21536   1.583   1.282   7.330 -0.3628 -2.1672  0.7717
  187SAPI   C3721537   1.642   1.277   7.539 -0.3608  0.1418 -0.0373
  187SAPI   H7X21538   1.536   1.252   7.559 -0.5311  0.7732 -0.1204
  187SAPI   H7Y21539   1.637   1.388   7.542 -1.6820  0.0809  1.3238
  187SAPI   C3821540   1.738   1.204   7.631 -0.5779 -0.9914 -0.4718
  187SAPI   H8X21541   1.705   1.229   7.734 -1.9902  0.6537 -1.2681
  187SAPI   H8Y21542   1.841   1.239   7.611 -0.7013 -0.1706  0.2880
  187SAPI   C3921543   1.746   1.052   7.628 -0.7895  0.0517  0.1236
  187SAPI   H9X21544   1.838   1.012   7.676 -0.2381  0.9652 -0.1554
  187SAPI   H9Y21545   1.746   1.023   7.521 -2.2554 -0.5950  0.2717
  187SAPI  C31021546   1.623   0.997   7.689  0.7540 -0.1222  0.0150
  187SAPI  H10X21547   1.531   1.038   7.642 -1.2304  0.1958  3.7947
  187SAPI  H10Y21548   1.620   1.024   7.797  0.1007 -0.9791  0.2260
  187SAPI  C31121549   1.607   0.845   7.694  0.6064  0.0260 -0.2352
  187SAPI  H11X21550   1.521   0.831   7.763  2.2033 -0.6761  1.6954
  187SAPI  H11Y21551   1.696   0.806   7.746 -0.7717 -1.0650  1.4239
  187SAPI  C31221552   1.590   0.781   7.556  0.3170  0.5125 -0.0426
  187SAPI  H12X21553   1.565   0.674   7.564 -2.1422  1.0399  0.1026
  187SAPI  H12Y21554   1.688   0.789   7.504  1.0292 -1.9358  0.7914
  187SAPI  C31321555   1.477   0.833   7.476  0.5787 -0.2224 -0.2625
  187SAPI  H13X21556   1.512   0.933   7.444 -0.1498 -0.3372 -1.4762
  187SAPI  H13Y21557   1.390   0.828   7.545  0.6467 -0.8433 -0.2165
  187SAPI  C31421558   1.464   0.768   7.344  0.0805  0.2232  0.5717
  187SAPI  H14X21559   1.377   0.808   7.288  0.1311 -1.0798 -0.4683
  187SAPI  H14Y21560   1.433   0.662   7.350  2.6444 -0.6793 -0.5702
  187SAPI  C31521561   1.589   0.785   7.257  0.3729  0.1542  0.3769
  187SAPI  H15X21562   1.684   0.752   7.303  0.5324  1.7903  1.3090
  187SAPI  H15Y21563   1.601   0.895   7.242 -0.9910  0.0379 -1.9784
  187SAPI  C31621564   1.580   0.716   7.121 -0.3896 -0.2919 -0.4576
  187SAPI  H16X21565   1.513   0.783   7.063 -1.7090  0.4681  1.8188
  187SAPI  H16Y21566   1.526   0.619   7.131 -1.6565  0.1495 -2.4962
  187SAPI  C31721567   1.715   0.702   7.052 -0.7752  0.2348  0.2573
  187SAPI  H17X21568   1.701   0.669   6.947  0.0919  1.2516 -0.1900
  187SAPI  H17Y21569   1.771   0.618   7.098 -1.5264 -0.7518 -0.5866
  187SAPI  C31821570   1.794   0.830   7.033 -0.4005 -0.6021 -0.5196
  187SAPI  H18X21571   1.721   0.908   7.002 -2.7267 -3.0748 -1.6486
  187SAPI  H18Y21572   1.876   0.829   6.958  2.3303  1.1454  2.1956
  187SAPI  H18Z21573   1.844   0.849   7.130 -0.5180 -0.0669 -0.5616
  188SAPI   C1221574   4.719   5.060   6.105 -0.0060 -0.5653  0.2091
  188SAPI    H221575   4.779   5.030   6.193  0.5235 -0.6459 -0.1750
  188SAPI    O221576   4.714   5.203   6.115 -0.1188 -0.1001  0.7090
  188SAPI   HO221577   4.683   5.228   6.202 -1.6681 -0.4280  0.2752
  188SAPI   C1321578   4.787   5.025   5.983 -0.3864 -0.6795  0.6196
  188SAPI    H321579   4.791   4.915   5.974 -0.9793 -0.8892  2.5026
  188SAPI    O321580   4.926   5.069   5.989 -0.1107  0.5610 -0.5409
  188SAPI   HO321581   4.929   5.162   6.013  0.3641  0.6425 -0.8913
  188SAPI   C1421582   4.713   5.079   5.861  1.1130  1.0837  0.2712
  188SAPI    H421583   4.708   5.189   5.875 -1.4411  0.8427  1.9699
  188SAPI    O421584   4.780   5.048   5.741 -0.8442  0.1176 -0.5398
  188SAPI   HO421585   4.849   5.115   5.740 -0.0782 -0.6178 -2.7033
  188SAPI   C1521586   4.571   5.027   5.856 -0.6676 -0.5504  0.2561
  188SAPI    H521587   4.566   4.916   5.846  1.4654 -0.8280  1.6513
  188SAPI    O521588   4.495   5.083   5.749  0.1032 -0.3645 -0.1173
  188SAPI   HO521589   4.534   5.060   5.665  0.0192 -0.0964 -0.2291
  188SAPI   C1621590   4.499   5.045   5.991  0.3496 -0.1238 -0.2479
  188SAPI    H621591   4.479   5.155   5.997 -1.4091 -0.4888  2.0745
  188SAPI    O621592   4.373   4.984   5.996  0.4769  0.0913 -0.1542
  188SAPI   HO621593   4.383   4.890   5.975  0.6485  0.2460 -0.7898
  188SAPI   C1121594   4.581   5.001   6.113  0.6250  0.2485  0.4323
  188SAPI    H121595   4.598   4.891   6.105 -0.6107  0.1046 -0.4115
  188SAPI     P21596   4.529   4.988   6.384 -0.0434 -0.2926  0.3939
  188SAPI   O1321597   4.506   5.096   6.479  0.4307  0.2361 -0.4120
  188SAPI   O1421598   4.652   4.909   6.402  0.2674 -0.0068 -0.2240
  188SAPI   O1221599   4.521   5.042   6.228  0.5341 -0.3453 -0.0589
  188SAPI   O1121600   4.408   4.887   6.386 -0.6361 -0.4084 -0.1446
  188SAPI    C121601   4.417   4.757   6.340  0.3415  0.5492 -1.3137
  188SAPI    HA21602   4.351   4.748   6.251 -0.4432  0.6302 -0.7502
  188SAPI    HB21603   4.515   4.714   6.312  0.6152 -0.6832  1.2863
  188SAPI    C221604   4.351   4.672   6.449  0.4505  0.2103  0.1539
  188SAPI    HS21605   4.251   4.713   6.475 -0.6729 -3.2348  1.9062
  188SAPI   O2121606   4.436   4.660   6.566 -0.0958  0.7661  0.1319
  188SAPI   C2121607   4.423   4.755   6.656  0.3682 -0.2221 -0.5630
  188SAPI   O2221608   4.316   4.818   6.670 -0.9057  0.2604  0.5430
  188SAPI   C2221609   4.552   4.773   6.742 -0.1952  0.6101 -0.4185
  188SAPI   H2R21610   4.566   4.690   6.815 -0.3925  2.6200  2.0378
  188SAPI   H2S21611   4.630   4.774   6.664 -0.5254 -3.0561 -0.9736
  188SAPI    C321612   4.323   4.537   6.387 -0.3406 -0.1784 -0.5996
  188SAPI    HX21613   4.425   4.499   6.366  0.6841  1.6234  0.7767
  188SAPI    HY21614   4.273   4.530   6.288 -0.1637  1.1127 -0.7974
  188SAPI   O3121615   4.251   4.450   6.483 -0.0150  0.6431 -0.5382
  188SAPI   C3121616   4.124   4.430   6.456  0.6337  0.5258  0.3017
  188SAPI   O3221617   4.056   4.493   6.381  0.5809  0.3666  0.1146
  188SAPI   C3221618   4.083   4.292   6.525 -0.0450 -0.0455  0.0850
  188SAPI   H2X21619   4.164   4.219   6.500 -1.8135 -2.5200  1.1724
  188SAPI   H2Y21620   3.994   4.253   6.472  0.3072  0.0626 -0.5984
  188SAPI   C2321621   4.555   4.899   6.834 -0.6669  0.4904 -0.2621
  188SAPI   H3R21622   4.457   4.913   6.885 -0.7524 -0.7118 -0.0508
  188SAPI   H3S21623   4.568   4.987   6.768 -0.6682  0.1551 -0.7172
  188SAPI   C2421624   4.673   4.884   6.932 -0.2818  0.5434 -0.5311
  188SAPI   H4R21625   4.765   4.846   6.882 -0.3747 -0.3164 -0.0734
  188SAPI   H4S21626   4.640   4.812   7.010 -0.3543 -0.1783 -1.2056
  188SAPI   C2521627   4.713   5.013   7.002 -0.4243 -0.0430  0.0579
  188SAPI   H5R21628   4.774   5.086   6.946 -0.4806  1.2081  1.5377
  188SAPI   C2621629   4.671   5.043   7.128  0.1138 -0.5216  0.6839
  188SAPI   H6R21630   4.694   5.143   7.168 -0.0362 -0.2690  0.1533
  188SAPI   C2721631   4.590   4.955   7.225 -0.3147 -1.0552 -0.1630
  188SAPI   H7R21632   4.520   4.891   7.167 -0.9243  1.2928 -2.2071
  188SAPI   H7S21633   4.530   5.008   7.302  0.7773 -0.5520  0.3658
  188SAPI   C2821634   4.684   4.871   7.304  0.0058 -0.1531  0.0057
  188SAPI   H8R21635   4.707   4.774   7.259 -0.5996 -0.4412  0.3151
  188SAPI   C2921636   4.752   4.910   7.421 -0.0454  0.6928  0.0748
  188SAPI   H9R21637   4.827   4.836   7.452 -1.0583 -1.2586 -1.8991
  188SAPI  C21021638   4.754   5.041   7.491 -0.5479  0.6402  0.2435
  188SAPI  H10R21639   4.752   5.121   7.414 -0.6652  1.2692  0.8861
  188SAPI  H10S21640   4.852   5.054   7.543 -0.2681 -0.0127 -0.1042
  188SAPI  C21121641   4.644   5.069   7.587  0.1726  0.5190 -0.6425
  188SAPI  H11R21642   4.552   5.020   7.550 -0.0243 -0.4303  0.9979
  188SAPI  C21221643   4.648   5.131   7.708 -0.6632  0.2194  0.0665
  188SAPI  H12R21644   4.549   5.128   7.756 -1.2254 -0.7616 -1.0886
  188SAPI  C21321645   4.761   5.202   7.779  0.1352  0.3554  0.6215
  188SAPI  H13R21646   4.842   5.205   7.704  2.8344 -1.6485  3.2235
  188SAPI  H13S21647   4.800   5.140   7.862  1.9112  0.2761 -0.2252
  188SAPI  C21421648   4.729   5.341   7.825 -0.4879  0.1782  0.3427
  188SAPI  H14R21649   4.746   5.424   7.756  3.4992 -0.2175  0.5925
  188SAPI  C21521650   4.690   5.368   7.948 -0.5706 -0.5132 -0.5267
  188SAPI  H15R21651   4.696   5.475   7.970  0.1876 -0.4983 -0.7744
  188SAPI  C21621652   4.660   5.283   8.066 -0.2257  0.3941 -0.5513
  188SAPI  H16R21653   4.691   5.178   8.052  0.0195  0.5960 -1.6022
  188SAPI  H16S21654   4.551   5.266   8.086  0.2529 -1.3221  0.8759
  188SAPI  C21721655   4.707   5.335   8.198 -0.9052 -0.1423  0.2030
  188SAPI  H17R21656   4.675   5.441   8.203  1.3796  0.6063 -0.0222
  188SAPI  H17S21657   4.818   5.328   8.193 -0.8277  1.2535 -0.5437
  188SAPI  C21821658   4.668   5.255   8.326  0.8913 -0.2399  0.0819
  188SAPI  H18R21659   4.683   5.149   8.298  0.7130  0.1235 -1.4933
  188SAPI  H18S21660   4.560   5.273   8.347  0.7580  0.3768 -1.0094
  188SAPI  C21921661   4.761   5.292   8.443 -0.3563  0.2314  0.0684
  188SAPI  H19R21662   4.736   5.390   8.489 -2.1538 -0.6262  1.0150
  188SAPI  H19S21663   4.860   5.295   8.393 -0.2810  2.1009  0.2885
  188SAPI  C22021664   4.748   5.196   8.565 -0.1357 -0.5786 -0.2648
  188SAPI  H20R21665   4.649   5.198   8.615  0.5037 -1.3158  1.0802
  188SAPI  H20S21666   4.824   5.216   8.644  0.0673  0.5747 -0.7206
  188SAPI  H20T21667   4.767   5.094   8.525 -1.8157 -0.7076 -0.8103
  188SAPI   C3321668   4.062   4.304   6.678  0.2155  0.6250 -0.6654
  188SAPI   H3X21669   4.001   4.393   6.706  0.9200  0.8465  0.1953
  188SAPI   H3Y21670   4.160   4.326   6.725  0.0906 -1.4567  0.7067
  188SAPI   C3421671   4.002   4.181   6.747  0.7278 -0.5975 -0.9821
  188SAPI   H4X21672   4.030   4.083   6.703  1.1006 -2.7403  3.4455
  188SAPI   H4Y21673   3.892   4.195   6.751  0.6746 -1.3179  1.6612
  188SAPI   C3521674   4.058   4.172   6.891  0.0804  0.0612 -0.1704
  188SAPI   H5X21675   4.168   4.167   6.898  0.1971  1.7264 -0.4049
  188SAPI   H5Y21676   4.007   4.088   6.943 -0.8516  0.7485  0.0624
  188SAPI   C3621677   4.031   4.290   6.979 -0.3162  0.8481  0.4844
  188SAPI   H6X21678   3.926   4.322   6.962 -0.3046 -0.1180 -1.6911
  188SAPI   H6Y21679   4.101   4.371   6.948 -0.5567 -0.3495 -3.7666
  188SAPI   C3721680   4.029   4.249   7.124  0.1736  0.3170  0.6978
  188SAPI   H7X21681   4.110   4.174   7.140 -1.4421 -1.2504  1.9267
  188SAPI   H7Y21682   3.939   4.184   7.135  1.1082 -0.7549  2.5773
  188SAPI   C3821683   4.029   4.361   7.226 -0.2269 -0.0001 -0.4548
  188SAPI   H8X21684   3.938   4.423   7.213  1.1687  1.7257 -2.7140
  188SAPI   H8Y21685   4.116   4.428   7.212  0.9257 -1.4494 -0.4232
  188SAPI   C3921686   4.022   4.301   7.364  0.0360  0.4516  0.7474
  188SAPI   H9X21687   4.104   4.227   7.368  0.0000  0.3288 -0.4982
  188SAPI   H9Y21688   3.929   4.241   7.371 -0.1493  0.2473 -2.3670
  188SAPI  C31021689   4.036   4.399   7.477  0.2514  0.4297 -0.9615
  188SAPI  H10X21690   3.962   4.481   7.467  0.4384  0.4485 -2.4281
  188SAPI  H10Y21691   4.132   4.455   7.479  1.1526 -1.0669  0.7223
  188SAPI  C31121692   4.024   4.336   7.614 -0.1717 -0.1770  0.1367
  188SAPI  H11X21693   4.104   4.261   7.629 -0.5159 -0.2569  1.7800
  188SAPI  H11Y21694   3.931   4.277   7.632  0.1884 -0.1352  2.4055
  188SAPI  C31221695   4.027   4.435   7.733 -0.0792 -0.0514  0.9147
  188SAPI  H12X21696   3.932   4.491   7.743  1.2231  2.6515 -0.6217
  188SAPI  H12Y21697   4.102   4.515   7.709  1.4789 -1.1126  2.0422
  188SAPI  C31321698   4.066   4.378   7.870 -0.1280  0.7889 -0.1996
  188SAPI  H13X21699   4.156   4.314   7.861  0.3513  1.6655 -2.4861
  188SAPI  H13Y21700   3.983   4.316   7.910 -0.1596  0.7196 -0.3737
  188SAPI  C31421701   4.093   4.485   7.980  0.3494  0.0618 -0.3478
  188SAPI  H14X21702   4.003   4.549   7.996  0.4440  0.2954 -0.7294
  188SAPI  H14Y21703   4.172   4.555   7.945  0.9994 -1.2280 -1.5406
  188SAPI  C31521704   4.137   4.435   8.116 -0.6619  0.4388  0.1914
  188SAPI  H15X21705   4.237   4.388   8.109 -0.5053  0.5910  1.2402
  188SAPI  H15Y21706   4.061   4.359   8.147 -1.6202  0.9728 -0.7609
  188SAPI  C31621707   4.155   4.545   8.228 -0.0922 -0.5882  0.1951
  188SAPI  H16X21708   4.056   4.597   8.229  0.5827  0.7294  0.6634
  188SAPI  H16Y21709   4.234   4.620   8.207 -0.4249 -0.3361 -0.1625
  188SAPI  C31721710   4.169   4.484   8.370 -0.2023 -0.2870 -0.2807
  188SAPI  H17X21711   4.263   4.426   8.364  0.2839  0.2792  1.4409
  188SAPI  H17Y21712   4.086   4.417   8.400  1.9444 -1.8003  2.7396
  188SAPI  C31821713   4.195   4.596   8.483 -0.2732 -0.1354 -0.4654
  188SAPI  H18X21714   4.200   4.550   8.584 -2.0011 -3.1768 -1.6438
  188SAPI  H18Y21715   4.113   4.670   8.490 -1.5971 -1.5746  0.0254
  188SAPI  H18Z21716   4.288   4.653   8.460 -0.0849  0.2331  1.0521
  189POPC     N21717   4.056   5.849  11.163 -0.0586 -0.4769 -0.0269
  189POPC   C1221718   4.192   5.873  11.081  0.4035  0.0664 -0.7444
  189POPC  H12A21719   4.173   5.897  10.978  1.7219  1.3940 -0.7126
  189POPC  H12B21720   4.247   5.780  11.081 -0.5788 -0.6046 -3.5136
  189POPC   C1321721   3.984   5.728  11.104 -0.4302  0.3007  0.2083
  189POPC  H13A21722   3.965   5.748  10.999 -1.0880 -0.6886  0.1278
  189POPC  H13B21723   4.040   5.637  11.121 -1.1878 -0.6279 -1.9319
  189POPC  H13C21724   3.889   5.703  11.149 -0.5359  2.1503  1.1312
  189POPC   C1421725   4.078   5.820  11.307  0.1664 -0.3099 -0.0979
  189POPC  H14A21726   4.106   5.915  11.350 -1.4913  0.1179  0.0954
  189POPC  H14B21727   3.995   5.781  11.365  1.7401 -0.8812  1.8820
  189POPC  H14C21728   4.160   5.757  11.338  0.8139  1.6554  2.6053
  189POPC   C1521729   3.967   5.969  11.146  0.2038  0.4965  0.1717
  189POPC  H15A21730   3.882   5.960  11.212  1.9440 -1.5018  2.3090
  189POPC  H15B21731   3.935   5.995  11.046 -2.0914  1.7616  1.1559
  189POPC  H15C21732   4.014   6.059  11.185 -0.2645  0.7251  0.2238
  189POPC   C1121733   4.267   5.989  11.134 -0.4913  0.4332  0.6265
  189POPC  H11A21734   4.370   5.984  11.093 -0.9399 -0.9598 -0.3976
  189POPC  H11B21735   4.277   5.991  11.245  0.6210 -0.1357  0.5481
  189POPC     P21736   4.242   6.165  10.944 -0.4039  0.3078 -0.4688
  189POPC   O1321737   4.375   6.221  10.955 -0.1379 -0.0875 -0.0108
  189POPC   O1421738   4.137   6.261  10.912 -0.1768  0.2905  0.2520
  189POPC   O1221739   4.203   6.104  11.093 -0.0905 -0.2372  0.3969
  189POPC   O1121740   4.249   6.040  10.855  0.1040 -0.1623 -0.1045
  189POPC    C121741   4.366   5.988  10.790 -0.0584  0.3750 -0.5370
  189POPC    HA21742   4.347   5.883  10.757 -0.5495 -0.9162  3.2666
  189POPC    HB21743   4.447   5.981  10.866 -0.9504  2.2530  0.6467
  189POPC    C221744   4.409   6.079  10.676 -0.5744 -0.4508  0.7720
  189POPC    HS21745   4.437   6.175  10.725 -1.8222  0.2600  0.1429
  189POPC   O2121746   4.299   6.101  10.588  0.3511 -0.5674 -0.0886
  189POPC   C2121747   4.305   6.218  10.521  0.1299 -0.3788  0.0130
  189POPC   O2221748   4.384   6.308  10.536  0.0201  0.6535 -0.0490
  189POPC   C2221749   4.181   6.222  10.427  1.1283  0.5080  0.3617
  189POPC   H2R21750   4.093   6.250  10.489  2.2883  1.4393  1.6726
  189POPC   H2S21751   4.162   6.120  10.387 -0.7815 -0.0575  2.4724
  189POPC    C321752   4.525   6.012  10.597  0.3693  0.6232  0.7979
  189POPC    HX21753   4.500   5.904  10.583  1.3714  0.2337  1.8152
  189POPC    HY21754   4.613   5.996  10.663  1.2135  0.2572 -0.3818
  189POPC   O3121755   4.563   6.083  10.476 -0.6880 -0.4957 -0.4267
  189POPC   C3121756   4.536   6.026  10.364  0.6971 -0.6841 -0.1310
  189POPC   O3221757   4.449   5.942  10.350  0.8441  0.3258  0.7002
  189POPC   C3221758   4.631   6.087  10.256 -0.1131  0.4572  0.0787
  189POPC   H2X21759   4.734   6.070  10.295 -0.2601  2.2188  1.3346
  189POPC   H2Y21760   4.610   6.196  10.250  1.4046  0.9280  2.1011
  189POPC   C2321761   4.204   6.312  10.302  1.0262  0.1882  0.3271
  189POPC   H3R21762   4.229   6.415  10.337  1.5829 -0.6546  2.5781
  189POPC   H3S21763   4.102   6.324  10.259  0.2912 -4.4541  0.2963
  189POPC   C2421764   4.296   6.257  10.191  0.0124  0.4015  0.2804
  189POPC   H4R21765   4.275   6.148  10.187 -1.2446  0.5690  1.4316
  189POPC   H4S21766   4.402   6.272  10.219 -0.1230  2.7083 -0.2618
  189POPC   C2521767   4.268   6.297  10.049 -0.0828 -0.5884  0.0765
  189POPC   H5R21768   4.287   6.405  10.027  0.7554 -0.9311 -1.0045
  189POPC   H5S21769   4.158   6.288  10.036  0.0333 -3.8193  0.5351
  189POPC   C2621770   4.333   6.212   9.947 -0.4211 -0.1692 -0.1674
  189POPC   H6R21771   4.330   6.102   9.959  3.1197 -0.4375 -0.6862
  189POPC   H6S21772   4.443   6.221   9.959 -0.3570 -0.9308 -0.1187
  189POPC   C2721773   4.298   6.256   9.799  0.2010 -0.4952  0.1592
  189POPC   H7R21774   4.318   6.364   9.781 -0.9585 -0.2790  0.1123
  189POPC   H7S21775   4.193   6.223   9.783  0.3243 -0.1548 -1.5268
  189POPC   C2821776   4.392   6.195   9.689 -0.2374  0.2710  0.1954
  189POPC   H8R21777   4.403   6.087   9.714  2.4564  0.9855  2.4839
  189POPC   H8S21778   4.496   6.230   9.701  0.5859 -2.0860  0.4220
  189POPC   C2921779   4.354   6.233   9.546  0.2761 -1.0424  0.6842
  189POPC   H9121780   4.288   6.320   9.529 -0.3506 -1.2621  1.8581
  189POPC  C21021781   4.374   6.170   9.429 -0.1440  0.1977  0.5020
  189POPC  H10121782   4.327   6.210   9.339  0.6601  3.6403  1.4465
  189POPC  C21121783   4.453   6.042   9.418 -0.0274 -0.3350 -0.1309
  189POPC  H11R21784   4.383   5.965   9.377 -1.0720 -0.3843  1.6472
  189POPC  H11S21785   4.458   5.985   9.513 -2.4305 -0.4019  0.0373
  189POPC  C21221786   4.586   6.041   9.344 -0.2457  0.0156  0.5194
  189POPC  H12R21787   4.669   5.996   9.402  1.2456 -0.5842 -1.9138
  189POPC  H12S21788   4.605   6.149   9.324 -3.6650  0.6584  0.2036
  189POPC  C21321789   4.581   5.965   9.212 -0.4502  0.4271 -0.3770
  189POPC  H13R21790   4.548   5.861   9.236  0.0151  0.6107  1.1992
  189POPC  H13S21791   4.678   5.972   9.159  0.2194  0.7695  0.8602
  189POPC  C21421792   4.469   6.013   9.126  0.3491 -0.0139  0.5884
  189POPC  H14R21793   4.474   6.124   9.126 -4.3338  0.3960 -0.2744
  189POPC  H14S21794   4.376   5.980   9.178  0.7954 -1.4950  0.4954
  189POPC  C21521795   4.463   5.958   8.986 -0.9913  0.6047 -0.1523
  189POPC  H15R21796   4.470   5.848   9.002 -1.9565  0.6346  0.5796
  189POPC  H15S21797   4.560   5.982   8.937 -0.7714  2.5739  1.1459
  189POPC  C21621798   4.334   5.993   8.905 -0.0187  0.1307 -0.3358
  189POPC  H16R21799   4.307   6.101   8.914 -2.3908 -0.4163 -0.0808
  189POPC  H16S21800   4.243   5.952   8.955 -0.1778  2.1640  1.1441
  189POPC  C21721801   4.332   5.944   8.756  0.4821  0.7156  0.5528
  189POPC  H17R21802   4.393   6.014   8.694  0.6687 -0.2033 -0.3380
  189POPC  H17S21803   4.231   5.966   8.717 -0.0475 -0.1373  1.4227
  189POPC  C21821804   4.378   5.797   8.728 -0.1559  0.3469 -0.6168
  189POPC  H18R21805   4.394   5.775   8.621  0.9128  0.8383 -0.5703
  189POPC  H18S21806   4.307   5.726   8.776  0.3502  0.2893  0.0629
  189POPC  H18T21807   4.473   5.774   8.779 -0.1284 -2.4240 -1.7369
  189POPC   C3321808   4.631   6.026  10.118 -0.1670  0.7221 -0.4653
  189POPC   H3X21809   4.529   6.014  10.075  0.2436 -1.4908 -0.9292
  189POPC   H3Y21810   4.675   5.924  10.124 -1.6080 -0.2500 -3.7923
  189POPC   C3421811   4.724   6.098  10.018 -0.2530  0.0382  0.4556
  189POPC   H4X21812   4.828   6.076  10.050 -0.5125 -2.5804 -0.2533
  189POPC   H4Y21813   4.710   6.208  10.008 -1.3831 -0.3122 -3.7778
  189POPC   C3521814   4.705   6.043   9.878 -0.1621 -0.0182 -0.1403
  189POPC   H5X21815   4.604   6.072   9.844  0.0418  2.7223  1.3172
  189POPC   H5Y21816   4.725   5.934   9.883  0.2481  0.0616  0.0266
  189POPC   C3621817   4.813   6.115   9.788 -0.1358 -0.9219  0.4890
  189POPC   H6X21818   4.918   6.099   9.821  0.5075  0.4225 -0.8149
  189POPC   H6Y21819   4.792   6.223   9.781  0.7941 -0.7331  0.4452
  189POPC   C3721820   4.818   6.067   9.636 -0.0901  1.1361 -0.2163
  189POPC   H7X21821   4.734   6.112   9.579  1.1812  1.3846 -1.9917
  189POPC   H7Y21822   4.799   5.958   9.643 -0.7545  1.0883 -2.0290
  189POPC   C3821823   4.944   6.109   9.561 -0.0497  0.1835 -0.1964
  189POPC   H8X21824   4.943   6.083   9.453  1.4138  0.3503 -0.2588
  189POPC   H8Y21825   5.034   6.063   9.605  1.2438  0.6401 -2.2600
  189POPC   C3921826   4.971   6.260   9.569  0.3500 -0.7600  0.4299
  189POPC   H9X21827   5.061   6.284   9.508 -0.3698 -0.2869 -0.4759
  189POPC   H9Y21828   4.983   6.291   9.675 -0.1638  0.0395  0.2589
  189POPC  C31021829   4.865   6.352   9.506 -0.2527 -0.1860 -0.0794
  189POPC  H10X21830   4.771   6.346   9.565 -0.9744  0.0951 -1.1676
  189POPC  H10Y21831   4.835   6.314   9.406 -2.5425  3.3855 -0.9191
  189POPC  C31121832   4.921   6.491   9.510  0.9370  0.2940 -0.4742
  189POPC  H11X21833   5.015   6.472   9.454  0.8100 -2.2916  0.0602
  189POPC  H11Y21834   4.948   6.520   9.614  0.2359 -0.3732 -0.0971
  189POPC  C31221835   4.834   6.604   9.460 -0.3578  0.7041  0.6049
  189POPC  H12X21836   4.839   6.608   9.350 -0.2756 -1.2716  0.4964
  189POPC  H12Y21837   4.880   6.701   9.487 -0.6604  0.4543  2.1498
  189POPC  C31321838   4.691   6.603   9.505  0.7629  0.7891 -0.1173
  189POPC  H13X21839   4.626   6.518   9.475 -1.5763  1.6570  2.1194
  189POPC  H13Y21840   4.640   6.688   9.455 -0.8760  0.1684  0.4260
  189POPC  C31421841   4.660   6.604   9.659  0.1578  0.2480  0.2778
  189POPC  H14X21842   4.679   6.705   9.700  1.4725 -0.0056  0.3468
  189POPC  H14Y21843   4.729   6.529   9.703  0.8927  0.0095 -1.2096
  189POPC  C31521844   4.513   6.576   9.687  0.1274 -0.4302 -0.2297
  189POPC  H15X21845   4.484   6.475   9.651  0.3395 -0.3123 -0.7358
  189POPC  H15Y21846   4.457   6.648   9.624 -0.5463  0.5267  1.4195
  189POPC  C31621847   4.478   6.587   9.834 -0.1504  0.2460  0.5193
  189POPC  H16X21848   4.496   6.686   9.881  1.2480  0.2326  0.0694
  189POPC  H16Y21849   4.539   6.512   9.888  2.0857  1.4803 -0.1802
  189POPC  H16Z21850   4.373   6.565   9.863  0.2082 -1.2791  0.7613
  190POPC     N21851   5.920   2.310  11.439  0.2756  0.3118  0.7132
  190POPC   C1221852   5.940   2.439  11.361 -0.0504 -0.5302  0.3939
  190POPC  H12A21853   6.012   2.492  11.421  0.5209 -1.3865  0.4793
  190POPC  H12B21854   5.847   2.493  11.356 -0.0584 -0.6459 -1.3890
  190POPC   C1321855   5.840   2.319  11.566 -0.3551  0.3709 -0.2160
  190POPC  H13A21856   5.874   2.403  11.626  2.0635 -0.0766 -0.8445
  190POPC  H13B21857   5.735   2.338  11.554 -0.5260  1.7844  2.6813
  190POPC  H13C21858   5.843   2.226  11.621 -2.7011 -0.1696 -0.9174
  190POPC   C1421859   5.852   2.213  11.347  0.2297  0.8392 -0.1060
  190POPC  H14A21860   5.919   2.195  11.265 -1.8678 -2.1420 -1.3802
  190POPC  H14B21861   5.821   2.121  11.395 -1.0710  0.7582 -1.0523
  190POPC  H14C21862   5.756   2.254  11.317  0.7250  2.2011  0.1153
  190POPC   C1521863   6.058   2.255  11.458 -0.7580  0.5863  0.3704
  190POPC  H15A21864   6.099   2.212  11.367 -1.0566 -0.8942  0.9063
  190POPC  H15B21865   6.054   2.166  11.519  0.0977 -0.7608 -1.4356
  190POPC  H15C21866   6.130   2.324  11.499  3.9139 -0.9241 -4.1547
  190POPC   C1121867   6.004   2.447  11.218 -0.2755  0.2163 -0.1521
  190POPC  H11A21868   6.103   2.402  11.239  0.0641  0.8201 -0.4401
  190POPC  H11B21869   6.014   2.555  11.193 -1.7362  0.6233  0.8577
  190POPC     P21870   5.792   2.416  11.068  0.2655 -0.3963 -0.1301
  190POPC   O1321871   5.742   2.544  11.130 -0.2024  1.1227 -0.1940
  190POPC   O1421872   5.699   2.299  11.070 -0.2571  0.3025 -0.0194
  190POPC   O1221873   5.934   2.370  11.127  0.3756 -0.3293 -0.4283
  190POPC   O1121874   5.833   2.447  10.921 -0.1174 -0.2209  0.1591
  190POPC    C121875   5.896   2.337  10.845 -0.4392  0.3013  0.5006
  190POPC    HA21876   5.821   2.258  10.829 -0.5246  0.5784 -0.5540
  190POPC    HB21877   5.981   2.282  10.891  1.6429  0.6911 -2.6192
  190POPC    C221878   5.933   2.392  10.708 -0.3694  0.5434  0.8627
  190POPC    HS21879   5.984   2.491  10.712 -1.2432  0.9741  1.9966
  190POPC   O2121880   5.809   2.399  10.632 -0.0968 -0.6645  0.4178
  190POPC   C2121881   5.813   2.485  10.534 -0.3551 -0.0756  0.3708
  190POPC   O2221882   5.904   2.558  10.508 -0.8408  0.1754 -0.0200
  190POPC   C2221883   5.676   2.465  10.458 -0.0942 -0.3302 -0.2591
  190POPC   H2R21884   5.600   2.512  10.524 -1.9468  1.1884 -3.2396
  190POPC   H2S21885   5.656   2.357  10.443 -0.0718 -0.3699 -0.0129
  190POPC    C321886   6.039   2.302  10.637 -0.4531  0.7627 -0.0281
  190POPC    HX21887   6.126   2.295  10.705  1.6496 -0.1794 -2.6092
  190POPC    HY21888   6.074   2.337  10.537 -0.1055 -0.1105 -0.2292
  190POPC   O3121889   5.991   2.170  10.625  0.4981  0.1560  0.3335
  190POPC   C3121890   5.908   2.145  10.516  0.5937  0.5867  0.4426
  190POPC   O3221891   5.897   2.219  10.421  0.5003 -0.3872 -0.4339
  190POPC   C3221892   5.845   2.004  10.532 -0.8270 -0.2814  0.3899
  190POPC   H2X21893   5.826   1.984  10.640 -2.0781 -0.3777  0.1657
  190POPC   H2Y21894   5.920   1.929  10.499 -0.6575 -0.4896  1.2090
  190POPC   C2321895   5.682   2.535  10.320 -0.2218  0.0801  0.4507
  190POPC   H3R21896   5.718   2.640  10.325  0.6579  0.0330 -2.7925
  190POPC   H3S21897   5.582   2.533  10.272  0.2750  0.0294 -0.6123
  190POPC   C2421898   5.782   2.451  10.230  0.6152 -0.0315  0.1347
  190POPC   H4R21899   5.728   2.357  10.207 -2.0753  1.2468  0.7499
  190POPC   H4S21900   5.874   2.428  10.288  0.7759 -4.8685 -1.5928
  190POPC   C2521901   5.840   2.529  10.114  0.0916  0.4508  0.2316
  190POPC   H5R21902   5.931   2.477  10.077 -0.2309 -0.7302  1.0426
  190POPC   H5S21903   5.888   2.623  10.151  1.4002 -0.6251  1.4085
  190POPC   C2621904   5.745   2.539   9.991  0.4789 -0.2380  0.9772
  190POPC   H6R21905   5.665   2.614  10.011  2.3903  1.8566  1.1486
  190POPC   H6S21906   5.688   2.447   9.964 -1.6087  1.2916 -0.1710
  190POPC   C2721907   5.821   2.577   9.865  0.0461  0.2274  0.2322
  190POPC   H7R21908   5.907   2.511   9.840 -0.8565 -1.1779  0.7892
  190POPC   H7S21909   5.848   2.685   9.869 -1.5133  0.7072 -1.1001
  190POPC   C2821910   5.728   2.578   9.742 -0.0414  0.1290 -0.3835
  190POPC   H8R21911   5.630   2.624   9.765  0.7795  0.8018  1.9819
  190POPC   H8S21912   5.710   2.474   9.709  1.3623 -0.4643  0.6234
  190POPC   C2921913   5.795   2.628   9.613  0.9887  0.3660 -0.1511
  190POPC   H9121914   5.900   2.596   9.617  0.3364 -1.9765 -0.3112
  190POPC  C21021915   5.748   2.701   9.513 -0.1684 -0.3002  0.0478
  190POPC  H10121916   5.807   2.726   9.423  2.0278  2.7943  2.1600
  190POPC  C21121917   5.608   2.751   9.510  0.0726  0.4292 -0.6616
  190POPC  H11R21918   5.613   2.853   9.465 -0.9461  0.8680  0.1698
  190POPC  H11S21919   5.565   2.766   9.611  0.9989 -0.3639 -0.1302
  190POPC  C21221920   5.507   2.681   9.415  1.1712  0.2967 -0.3611
  190POPC  H12R21921   5.408   2.696   9.464  1.1027 -0.5523 -0.2140
  190POPC  H12S21922   5.536   2.574   9.416 -0.6954 -0.2891 -1.8564
  190POPC  C21321923   5.505   2.722   9.269 -0.1353  0.1299  0.3256
  190POPC  H13R21924   5.523   2.831   9.271  1.7326 -0.1436  0.7355
  190POPC  H13S21925   5.407   2.700   9.221  0.3436 -0.4357 -0.4233
  190POPC  C21421926   5.627   2.656   9.192 -0.3785  0.0446 -0.4808
  190POPC  H14R21927   5.622   2.546   9.207 -0.7399  0.1779  0.4783
  190POPC  H14S21928   5.717   2.702   9.238 -0.6984  0.4457 -0.2481
  190POPC  C21521929   5.615   2.681   9.041  0.9185  0.0779  0.0677
  190POPC  H15R21930   5.717   2.685   8.998  0.1824  0.6225 -1.7473
  190POPC  H15S21931   5.575   2.782   9.020  0.0585 -0.5461 -1.5553
  190POPC  C21621932   5.534   2.574   8.964 -0.0189  0.1838 -0.5079
  190POPC  H16R21933   5.549   2.474   9.008 -0.5536  0.4472  0.2892
  190POPC  H16S21934   5.569   2.572   8.858  2.4695 -1.8693  0.2822
  190POPC  C21721935   5.382   2.601   8.966 -0.3289  0.3932 -0.5024
  190POPC  H17R21936   5.358   2.709   8.953  1.0041  0.8320  0.4203
  190POPC  H17S21937   5.352   2.563   9.066 -0.7277 -1.6788 -1.3509
  190POPC  C21821938   5.297   2.513   8.875 -0.2669  0.3987 -0.0774
  190POPC  H18R21939   5.189   2.539   8.883 -0.4672  0.0394 -1.3902
  190POPC  H18S21940   5.300   2.405   8.901 -3.9648 -0.2582 -1.7033
  190POPC  H18T21941   5.314   2.528   8.766 -1.2144 -2.4466 -0.7160
  190POPC   C3321942   5.710   1.979  10.461  0.4077 -0.3882  0.2383
  190POPC   H3X21943   5.643   2.051  10.512 -0.5155  0.1745 -1.6895
  190POPC   H3Y21944   5.679   1.882  10.506 -1.4800  1.3138  2.9332
  190POPC   C3421945   5.702   1.983  10.305 -0.3940 -0.2742 -0.2570
  190POPC   H4X21946   5.725   2.085  10.266 -2.0809  0.3315  0.2635
  190POPC   H4Y21947   5.594   1.966  10.288 -0.3060 -0.8295 -0.2613
  190POPC   C3521948   5.780   1.880  10.227 -0.5496 -0.9156  1.0556
  190POPC   H5X21949   5.759   1.787  10.284 -2.2481 -0.4437  1.2646
  190POPC   H5Y21950   5.890   1.883  10.218 -0.5264  0.8989  1.5911
  190POPC   C3621951   5.714   1.853  10.091  0.4842 -0.5536  0.0969
  190POPC   H6X21952   5.603   1.857  10.091  0.0953 -2.6529 -5.4037
  190POPC   H6Y21953   5.734   1.749  10.057  0.9502 -0.5692  0.4125
  190POPC   C3721954   5.755   1.957   9.982  0.4703  0.3174  0.0767
  190POPC   H7X21955   5.863   1.969  10.002  0.4616  0.9738 -0.2733
  190POPC   H7Y21956   5.699   2.052   9.994 -1.2825 -0.6490 -0.0115
  190POPC   C3821957   5.721   1.899   9.843 -0.5129  0.0640 -0.3750
  190POPC   H8X21958   5.659   1.807   9.849  0.2138 -0.3484  1.5733
  190POPC   H8Y21959   5.816   1.862   9.800 -0.9499  1.7241 -2.9812
  190POPC   C3921960   5.662   2.011   9.748 -0.3861 -0.3438 -0.2006
  190POPC   H9X21961   5.726   2.102   9.757  0.9673 -0.9600 -2.7577
  190POPC   H9Y21962   5.560   2.043   9.776 -1.0188 -2.1707 -0.3318
  190POPC  C31021963   5.661   1.984   9.595 -0.0443  0.3809  0.8313
  190POPC  H10X21964   5.591   2.049   9.538 -1.6267  0.1263  2.4094
  190POPC  H10Y21965   5.643   1.879   9.565 -0.5734  0.5024  0.7229
  190POPC  C31121966   5.800   2.022   9.532 -0.7364 -0.4519 -0.4367
  190POPC  H11X21967   5.891   1.996   9.591  0.8491  1.9212 -1.6769
  190POPC  H11Y21968   5.799   2.132   9.517  1.7478 -0.3990 -0.6612
  190POPC  C31221969   5.814   1.972   9.392  0.5524 -0.2836  0.0070
  190POPC  H12X21970   5.754   2.046   9.335  0.9531 -0.5255 -0.7435
  190POPC  H12Y21971   5.771   1.871   9.374  0.4141 -0.1512 -0.4323
  190POPC  C31321972   5.957   2.001   9.333  0.0140 -0.0472  0.1704
  190POPC  H13X21973   6.023   1.921   9.373  1.0227  1.1336  0.9493
  190POPC  H13Y21974   5.996   2.096   9.376  0.1600  0.1188 -0.3229
  190POPC  C31421975   5.973   2.025   9.182  0.0716 -0.4424 -0.1340
  190POPC  H14X21976   5.922   2.117   9.147  2.6811  0.9412 -0.5200
  190POPC  H14Y21977   5.931   1.948   9.114  0.4276  0.1311 -1.0163
  190POPC  C31521978   6.116   2.042   9.145 -0.5807  0.1483  0.9743
  190POPC  H15X21979   6.169   1.946   9.133 -1.3905 -0.1002 -1.0599
  190POPC  H15Y21980   6.166   2.091   9.232 -0.2679 -1.0551  1.4885
  190POPC  C31621981   6.146   2.128   9.015 -0.2103  0.3359  0.3273
  190POPC  H16X21982   6.256   2.135   9.001 -0.1321  0.4359  0.9991
  190POPC  H16Y21983   6.109   2.233   9.021 -0.5852  0.2819 -0.7358
  190POPC  H16Z21984   6.095   2.075   8.931  0.0207  1.2122 -0.3769
  191POPC     N21985   6.609   2.687   6.265  0.1395 -0.8657 -0.2920
  191POPC   C1221986   6.468   2.747   6.284  0.2009  0.4197  0.0083
  191POPC  H12A21987   6.393   2.670   6.274  1.7353 -1.1329  0.0971
  191POPC  H12B21988   6.449   2.814   6.202 -2.1101 -0.3397 -0.1635
  191POPC   C1321989   6.630   2.629   6.130  0.1119  0.3290  0.2316
  191POPC  H13A21990   6.730   2.590   6.115 -1.4428 -3.2955 -2.2862
  191POPC  H13B21991   6.563   2.545   6.126 -1.8362  1.8236  0.1886
  191POPC  H13C21992   6.604   2.695   6.049  1.7117  0.5490 -0.1470
  191POPC   C1421993   6.716   2.795   6.298 -0.7523 -0.8860  0.6541
  191POPC  H14A21994   6.816   2.753   6.290 -1.0509 -1.3776 -0.8864
  191POPC  H14B21995   6.711   2.875   6.225  2.5779 -2.1110 -1.1508
  191POPC  H14C21996   6.717   2.837   6.397  0.6522 -0.4697  0.4851
  191POPC   C1521997   6.631   2.572   6.357  0.4130  0.6117 -0.2978
  191POPC  H15A21998   6.557   2.493   6.347  0.9958 -0.3530  2.2704
  191POPC  H15B21999   6.630   2.606   6.460  1.8257  2.1502 -0.7409
  191POPC  H15C22000   6.726   2.524   6.339  0.1310  1.1567 -4.0549
  191POPC   C1122001   6.438   2.825   6.416  0.1787 -0.2009  0.2691
  191POPC  H11A22002   6.467   2.759   6.501 -1.3436  0.7214  1.5552
  191POPC  H11B22003   6.330   2.841   6.435  0.2714 -0.9370  1.5144
  191POPC     P22004   6.435   3.076   6.327 -0.0378 -0.3923 -0.4057
  191POPC   O1322005   6.363   3.026   6.210  0.0560  0.1664 -0.2646
  191POPC   O1422006   6.542   3.174   6.303  0.1230 -0.9278 -0.8316
  191POPC   O1222007   6.504   2.950   6.409 -0.3839 -0.3302 -0.1496
  191POPC   O1122008   6.329   3.134   6.422  0.6044  0.1618  0.1789
  191POPC    C122009   6.363   3.194   6.549  0.4446 -0.5724  0.6291
  191POPC    HA22010   6.266   3.227   6.592 -1.1214 -2.8150 -0.9244
  191POPC    HB22011   6.429   3.280   6.529  1.6029 -1.9261 -1.7589
  191POPC    C222012   6.422   3.103   6.660 -0.0844 -0.3137  0.7314
  191POPC    HS22013   6.520   3.063   6.628 -0.3649 -1.2522  1.0200
  191POPC   O2122014   6.334   3.001   6.696 -0.1526  0.2805 -0.0165
  191POPC   C2122015   6.397   2.887   6.735 -0.1009 -0.1468 -0.0649
  191POPC   O2222016   6.521   2.878   6.751  0.7267  0.4897  0.0381
  191POPC   C2222017   6.296   2.776   6.767 -0.4492 -0.4685 -0.2936
  191POPC   H2R22018   6.324   2.689   6.704  0.6754 -0.4239  0.1140
  191POPC   H2S22019   6.196   2.816   6.739  0.2250  1.2906 -0.3189
  191POPC    C322020   6.453   3.183   6.789  0.0565 -0.0223  0.0069
  191POPC    HX22021   6.368   3.244   6.827  1.0049  0.4963  1.3787
  191POPC    HY22022   6.517   3.266   6.751  0.0002  0.4468  0.9129
  191POPC   O3122023   6.530   3.101   6.893  0.1832  0.2896  0.2907
  191POPC   C3122024   6.456   3.057   6.994 -0.4587 -0.6750  0.1809
  191POPC   O3222025   6.343   3.092   7.015  0.2897 -0.1685  0.1625
  191POPC   C3222026   6.535   2.958   7.082  1.1060 -0.7494 -0.4370
  191POPC   H2X22027   6.628   3.007   7.118  0.2834  2.2200 -1.9970
  191POPC   H2Y22028   6.562   2.874   7.015  2.2350 -1.0283  0.3431
  191POPC   C2322029   6.311   2.736   6.917  0.5860 -0.2369 -0.1827
  191POPC   H3R22030   6.276   2.819   6.983 -0.4010  0.3053 -1.3433
  191POPC   H3S22031   6.417   2.715   6.943  0.6348  1.6110  1.3915
  191POPC   C2422032   6.207   2.622   6.946  0.1207  0.4073  0.0268
  191POPC   H4R22033   6.241   2.525   6.903 -0.2655  1.9629 -4.2960
  191POPC   H4S22034   6.110   2.648   6.899  1.5668  0.0946 -3.4471
  191POPC   C2522035   6.178   2.607   7.089 -0.1268  0.0220 -1.2621
  191POPC   H5R22036   6.081   2.555   7.105 -0.6568  0.7272 -2.0376
  191POPC   H5S22037   6.158   2.707   7.134 -0.1544  0.1978 -1.6629
  191POPC   C2622038   6.289   2.530   7.172 -0.4116  0.9839 -0.5116
  191POPC   H6R22039   6.394   2.564   7.157  0.4012  0.3657  2.9980
  191POPC   H6S22040   6.279   2.423   7.143  3.1508  0.2002  0.6606
  191POPC   C2722041   6.249   2.534   7.326  0.1389  0.0854 -0.8007
  191POPC   H7R22042   6.141   2.507   7.326  0.0288  0.4359  0.6261
  191POPC   H7S22043   6.244   2.642   7.351  1.8798 -0.3477  1.7661
  191POPC   C2822044   6.352   2.468   7.412  0.2050 -0.5638 -0.0821
  191POPC   H8R22045   6.364   2.361   7.383  1.0611  0.1940 -2.8041
  191POPC   H8S22046   6.320   2.452   7.517  1.4401 -1.3708  0.2061
  191POPC   C2922047   6.488   2.536   7.411  0.8133 -0.4388  0.2680
  191POPC   H9122048   6.529   2.561   7.312  1.5875  1.9943  1.1338
  191POPC  C21022049   6.550   2.579   7.523 -0.1226  0.1719  0.3725
  191POPC  H10122050   6.646   2.632   7.507 -1.1157  1.9070 -0.1125
  191POPC  C21122051   6.496   2.561   7.669  0.1131  0.4667  0.7440
  191POPC  H11R22052   6.583   2.536   7.734  0.2156  0.1575  0.4952
  191POPC  H11S22053   6.431   2.472   7.680  0.8969 -0.1018  0.8922
  191POPC  C21222054   6.412   2.681   7.715  0.8767  0.8242  0.8136
  191POPC  H12R22055   6.320   2.687   7.654  1.6489  0.9135 -0.3772
  191POPC  H12S22056   6.473   2.772   7.694 -1.6932  2.4433 -0.0827
  191POPC  C21322057   6.371   2.675   7.861  0.4073  0.7566 -0.2831
  191POPC  H13R22058   6.284   2.607   7.872 -0.0255  1.5140  1.2198
  191POPC  H13S22059   6.333   2.780   7.870  1.0102  1.2322 -2.7083
  191POPC  C21422060   6.482   2.651   7.969 -0.0784 -0.3151  0.6514
  191POPC  H14R22061   6.570   2.718   7.961  0.9511 -1.5038  1.5585
  191POPC  H14S22062   6.516   2.547   7.949  1.0178  0.2520 -0.5679
  191POPC  C21522063   6.419   2.660   8.113  0.4134 -0.1141 -0.5158
  191POPC  H15R22064   6.326   2.600   8.117  1.3553 -1.5697  0.5471
  191POPC  H15S22065   6.380   2.764   8.112  0.6885  0.0374 -3.0253
  191POPC  C21622066   6.514   2.630   8.225  0.2731  0.3484  0.2958
  191POPC  H16R22067   6.604   2.691   8.200  1.0746 -1.2876 -1.0199
  191POPC  H16S22068   6.551   2.526   8.224  2.2491  0.9496  2.1290
  191POPC  C21722069   6.462   2.663   8.367  0.0090  0.7061  0.0044
  191POPC  H17R22070   6.374   2.596   8.381 -0.6071  1.8778  2.2712
  191POPC  H17S22071   6.424   2.767   8.354  1.1843  0.9815 -1.5948
  191POPC  C21822072   6.557   2.636   8.476 -0.2890  0.2915  0.5257
  191POPC  H18R22073   6.648   2.700   8.472  0.8363 -1.3478 -1.9719
  191POPC  H18S22074   6.594   2.532   8.462 -0.3351  0.1533  1.3646
  191POPC  H18T22075   6.516   2.672   8.573  0.1304  1.6761  0.2121
  191POPC   C3322076   6.456   2.911   7.207 -0.8538  0.2698  0.1187
  191POPC   H3X22077   6.516   2.829   7.254 -2.2032  0.7337  2.8438
  191POPC   H3Y22078   6.359   2.866   7.178 -1.6499  2.9562 -1.7705
  191POPC   C3422079   6.443   3.016   7.322 -0.1960  0.0000  0.2013
  191POPC   H4X22080   6.412   3.117   7.286 -0.0086 -0.6051 -1.8239
  191POPC   H4Y22081   6.543   3.018   7.370 -0.4687  0.1217  0.7723
  191POPC   C3522082   6.342   2.958   7.421 -0.5977  0.2963  0.1132
  191POPC   H5X22083   6.363   2.850   7.433 -0.9329 -0.1512 -2.7622
  191POPC   H5Y22084   6.243   2.983   7.377  0.1284  0.1424 -1.6634
  191POPC   C3622085   6.361   3.022   7.559 -0.8017 -0.0610 -0.0207
  191POPC   H6X22086   6.399   3.127   7.556 -0.7175 -0.1078 -1.0787
  191POPC   H6Y22087   6.419   2.961   7.631 -3.3495 -1.9850  0.5240
  191POPC   C3722088   6.235   3.037   7.647 -0.1346  0.3266 -0.4660
  191POPC   H7X22089   6.196   2.938   7.678  0.7210 -0.6147 -2.2370
  191POPC   H7Y22090   6.147   3.085   7.600 -1.1153 -2.1817 -1.3658
  191POPC   C3822091   6.263   3.130   7.773 -0.0056  0.0662  0.7471
  191POPC   H8X22092   6.307   3.229   7.750 -1.0859  0.1148 -1.2545
  191POPC   H8Y22093   6.338   3.079   7.838 -1.9353 -2.0186  1.4777
  191POPC   C3922094   6.129   3.149   7.852 -0.2067  0.4787 -0.3883
  191POPC   H9X22095   6.091   3.054   7.895 -0.5299  0.2658 -1.1376
  191POPC   H9Y22096   6.055   3.193   7.783  0.4671  0.5950 -1.0512
  191POPC  C31022097   6.158   3.245   7.973  0.5018  0.1056  0.8273
  191POPC  H10X22098   6.190   3.339   7.924  0.8789 -0.9449 -1.0135
  191POPC  H10Y22099   6.236   3.217   8.047  1.3298  1.9678  0.7434
  191POPC  C31122100   6.023   3.281   8.042 -0.6792  0.1665 -0.0836
  191POPC  H11X22101   5.984   3.193   8.097  1.2962 -1.0049 -0.4487
  191POPC  H11Y22102   5.945   3.306   7.967  0.4857  0.8151 -1.1179
  191POPC  C31222103   6.032   3.401   8.131 -0.1805  1.0654 -0.1043
  191POPC  H12X22104   6.032   3.487   8.061 -3.7262  0.6774 -0.7426
  191POPC  H12Y22105   6.128   3.392   8.186  0.2155 -0.7424 -1.0196
  191POPC  C31322106   5.917   3.424   8.227 -0.0703 -0.8095  0.0315
  191POPC  H13X22107   5.818   3.412   8.177 -0.3711 -0.0654  0.4305
  191POPC  H13Y22108   5.921   3.528   8.266 -0.7643 -0.3195 -1.1523
  191POPC  C31422109   5.903   3.335   8.357 -0.2552  0.8791  0.7951
  191POPC  H14X22110   5.995   3.347   8.417 -1.4330  0.2100  2.8521
  191POPC  H14Y22111   5.906   3.234   8.309  1.3355  0.5665  1.5081
  191POPC  C31522112   5.780   3.348   8.439 -0.4754  0.2898 -0.4130
  191POPC  H15X22113   5.726   3.253   8.461  1.1922 -0.5235  0.3486
  191POPC  H15Y22114   5.705   3.416   8.392 -0.2668  1.5642  1.0226
  191POPC  C31622115   5.815   3.401   8.584 -0.1515 -0.5351  0.0967
  191POPC  H16X22116   5.718   3.403   8.638 -0.0938  1.9099  0.2414
  191POPC  H16Y22117   5.856   3.504   8.582 -0.2952 -0.4466 -2.5451
  191POPC  H16Z22118   5.887   3.332   8.633 -1.0692 -1.2001  0.5333
  192POPC     N22119   6.333   6.745   5.842 -0.2551  0.1000  0.2698
  192POPC   C1222120   6.417   6.711   5.965 -0.0287  0.2592 -0.8751
  192POPC  H12A22121   6.449   6.801   6.014  0.7514 -0.4880  0.0350
  192POPC  H12B22122   6.505   6.651   5.947  1.8479  1.6954  2.5612
  192POPC   C1322123   6.212   6.826   5.877 -0.3749  0.0421  0.1175
  192POPC  H13A22124   6.243   6.928   5.892 -0.6985  0.1335  0.1560
  192POPC  H13B22125   6.142   6.812   5.796  2.6231 -2.3695 -2.3183
  192POPC  H13C22126   6.175   6.796   5.974  1.3299  0.9910  1.1064
  192POPC   C1422127   6.403   6.831   5.746 -0.1404  0.5554  0.4368
  192POPC  H14A22128   6.499   6.796   5.711  1.2343  3.2395  1.2375
  192POPC  H14B22129   6.344   6.839   5.656  0.0067 -2.5682 -0.0552
  192POPC  H14C22130   6.424   6.929   5.786  1.5961  0.7977 -0.9892
  192POPC   C1522131   6.286   6.619   5.772  0.0169  0.2917  0.5652
  192POPC  H15A22132   6.227   6.562   5.843  2.8434  0.7754  3.5384
  192POPC  H15B22133   6.369   6.558   5.739  2.1986  1.5552  3.3183
  192POPC  H15C22134   6.226   6.650   5.687  0.1073 -0.0224  0.3856
  192POPC   C1122135   6.338   6.639   6.080 -0.4349  0.4196 -0.6144
  192POPC  H11A22136   6.418   6.592   6.142 -1.3829 -1.6421 -0.8479
  192POPC  H11B22137   6.272   6.561   6.036 -0.7221  0.4210 -0.1875
  192POPC     P22138   6.315   6.814   6.285 -0.2721  0.0002 -0.5456
  192POPC   O1322139   6.195   6.892   6.325  0.0288 -0.4056  0.4006
  192POPC   O1422140   6.439   6.887   6.253  0.1614  0.0899 -0.2925
  192POPC   O1222141   6.266   6.730   6.163 -0.0949 -0.0926 -0.1413
  192POPC   O1122142   6.339   6.694   6.390  0.0609 -0.6474  0.0173
  192POPC    C122143   6.248   6.593   6.419  0.7771 -0.0479 -0.1277
  192POPC    HA22144   6.298   6.495   6.431 -1.1271 -1.2293 -1.2472
  192POPC    HB22145   6.192   6.567   6.327  2.0069  1.5955 -1.4172
  192POPC    C222146   6.155   6.627   6.531  0.2418 -0.2211 -0.3526
  192POPC    HS22147   6.100   6.718   6.500 -0.6077 -0.1262  1.3422
  192POPC   O2122148   6.237   6.659   6.646  0.1949  0.3217  0.8221
  192POPC   C2122149   6.193   6.764   6.720  0.3702 -0.5434 -0.1876
  192POPC   O2222150   6.102   6.839   6.693  0.2464  0.6919  0.1103
  192POPC   C2222151   6.288   6.788   6.839  0.2027  0.5521  0.2785
  192POPC   H2R22152   6.382   6.826   6.793 -0.0672  0.2297 -0.5614
  192POPC   H2S22153   6.318   6.693   6.890  2.2132  1.4651  0.9005
  192POPC    C322154   6.055   6.517   6.563  0.2435  0.1577 -0.3793
  192POPC    HX22155   6.121   6.429   6.582  0.6060  0.3459 -0.7482
  192POPC    HY22156   5.998   6.485   6.473 -1.8058  1.0073  0.5575
  192POPC   O3122157   5.970   6.560   6.676 -0.0943 -0.0043  0.6007
  192POPC   C3122158   5.904   6.468   6.738 -0.4112  0.4856 -0.0670
  192POPC   O3222159   5.899   6.349   6.711  0.1138 -0.1228  0.5147
  192POPC   C3222160   5.815   6.528   6.842  0.0271 -0.1972 -0.2604
  192POPC   H2X22161   5.715   6.479   6.838  0.5030 -1.0992 -2.4714
  192POPC   H2Y22162   5.801   6.634   6.811 -0.2035 -0.9913 -3.2203
  192POPC   C2322163   6.239   6.882   6.943 -0.2420  0.5011 -0.7865
  192POPC   H3R22164   6.129   6.870   6.955 -0.1968  1.7087  1.2025
  192POPC   H3S22165   6.250   6.984   6.900  1.1697  1.0330  0.7714
  192POPC   C2422166   6.316   6.881   7.080  0.2696  0.0175 -0.3902
  192POPC   H4R22167   6.423   6.904   7.064  0.7377 -1.3423  0.5837
  192POPC   H4S22168   6.323   6.784   7.134  3.9815  0.9558  1.0947
  192POPC   C2522169   6.261   6.988   7.181 -0.6175 -0.2411  0.1181
  192POPC   H5R22170   6.150   6.984   7.195 -0.4095 -2.7168  1.6745
  192POPC   H5S22171   6.283   7.084   7.130  3.5624 -2.8496 -3.6983
  192POPC   C2622172   6.332   6.988   7.315  0.2274  0.6627  0.4166
  192POPC   H6R22173   6.434   7.031   7.304 -0.6864  3.0086  0.6996
  192POPC   H6S22174   6.330   6.883   7.353  1.1963  0.9306  1.2586
  192POPC   C2722175   6.259   7.076   7.418  0.4874  0.0784  0.2624
  192POPC   H7R22176   6.153   7.047   7.427  1.1160 -1.9935  1.7833
  192POPC   H7S22177   6.262   7.181   7.381  0.3471  0.2590  0.7527
  192POPC   C2822178   6.326   7.070   7.553  0.4257 -0.1622 -0.1643
  192POPC   H8R22179   6.435   7.076   7.533  0.3853  0.3260 -0.2432
  192POPC   H8S22180   6.306   6.967   7.591  1.6055  0.5736  2.6778
  192POPC   C2922181   6.280   7.180   7.653 -0.0699  0.2772  0.1054
  192POPC   H9122182   6.272   7.286   7.624  1.5061  0.3200 -0.2524
  192POPC  C21022183   6.243   7.149   7.785  0.5962  0.0101  0.1923
  192POPC  H10122184   6.224   7.231   7.856 -3.4226 -0.0828 -0.5468
  192POPC  C21122185   6.245   7.003   7.842  0.0348  0.0007  0.5566
  192POPC  H11R22186   6.329   6.941   7.802 -0.2383 -0.7164  1.0747
  192POPC  H11S22187   6.161   6.935   7.816 -0.5310  0.7409  0.4231
  192POPC  C21222188   6.248   7.012   7.994 -0.4598  0.0823  0.2166
  192POPC  H12R22189   6.336   7.067   8.034  2.7516 -3.0596 -1.9295
  192POPC  H12S22190   6.283   6.913   8.030 -0.8879 -0.4035 -0.6707
  192POPC  C21322191   6.121   7.039   8.067  0.2184 -0.8242 -0.9342
  192POPC  H13R22192   6.033   7.010   8.006 -0.6933 -0.3920  0.1314
  192POPC  H13S22193   6.104   7.149   8.074  0.2251 -0.9015  0.8720
  192POPC  C21422194   6.129   6.981   8.214 -0.3282 -0.2356  0.4729
  192POPC  H14R22195   6.145   6.873   8.193 -0.7962  0.3655 -3.9707
  192POPC  H14S22196   6.026   6.982   8.255 -1.0297  2.1870 -1.1390
  192POPC  C21522197   6.234   7.046   8.298 -0.8107  0.3497  0.2476
  192POPC  H15R22198   6.217   7.154   8.318 -0.5681  0.7758 -1.6420
  192POPC  H15S22199   6.334   7.039   8.251 -1.0079 -0.2321 -0.0881
  192POPC  C21622200   6.246   6.974   8.430 -0.1427  0.0943 -1.1596
  192POPC  H16R22201   6.277   6.869   8.415 -1.3004 -0.3654 -0.4658
  192POPC  H16S22202   6.140   6.963   8.462  0.0283  2.4448  0.5151
  192POPC  C21722203   6.347   7.037   8.527  0.4649  0.5731 -0.3057
  192POPC  H17R22204   6.317   7.134   8.573  2.4902  1.0682  0.0641
  192POPC  H17S22205   6.444   7.060   8.477  0.6437  0.3480 -0.0664
  192POPC  C21822206   6.372   6.935   8.633 -0.0718  0.5002 -0.1470
  192POPC  H18R22207   6.280   6.890   8.674  0.3542  1.2092  1.7272
  192POPC  H18S22208   6.421   6.983   8.721 -1.1730  1.4871 -0.0484
  192POPC  H18T22209   6.429   6.851   8.589 -0.1792  1.2955 -1.8933
  192POPC   C3322210   5.866   6.522   6.986  0.5267 -0.0229 -0.5434
  192POPC   H3X22211   5.890   6.422   7.027 -0.7602 -0.2463 -0.2948
  192POPC   H3Y22212   5.794   6.566   7.058  2.3017  0.3310  1.0864
  192POPC   C3422213   5.997   6.603   7.004 -0.0051 -0.3333 -0.3761
  192POPC   H4X22214   5.982   6.710   6.979 -0.5543  0.0413  1.4130
  192POPC   H4Y22215   6.070   6.563   6.931  1.2653  1.1223  0.0279
  192POPC   C3522216   6.054   6.590   7.143 -0.7170 -0.1058 -0.2738
  192POPC   H5X22217   6.141   6.658   7.154 -1.5941  0.9459  0.2395
  192POPC   H5Y22218   6.077   6.481   7.148  1.6775  0.1316 -3.1671
  192POPC   C3622219   5.967   6.626   7.269 -0.0063 -0.4194 -0.0342
  192POPC   H6X22220   5.903   6.538   7.290 -2.8054  0.9203 -2.1852
  192POPC   H6Y22221   5.898   6.711   7.247 -0.8140  0.0523  3.5923
  192POPC   C3722222   6.059   6.659   7.389  0.5366 -0.4596  0.0787
  192POPC   H7X22223   6.147   6.719   7.357 -0.2683 -0.6463 -2.8031
  192POPC   H7Y22224   6.104   6.565   7.428  1.2255 -0.3550 -0.4367
  192POPC   C3822225   5.982   6.722   7.506  0.0718  0.3396 -0.5008
  192POPC   H8X22226   5.928   6.813   7.472  1.7100  1.2956 -0.6497
  192POPC   H8Y22227   6.052   6.757   7.585 -0.1836  0.6648 -0.4131
  192POPC   C3922228   5.882   6.629   7.573  0.2702 -0.0096 -0.4926
  192POPC   H9X22229   5.932   6.544   7.625 -0.2034 -0.0727 -0.1321
  192POPC   H9Y22230   5.816   6.584   7.496  0.5558 -1.8221  0.2693
  192POPC  C31022231   5.796   6.694   7.686 -0.2154  0.0390  0.8307
  192POPC  H10X22232   5.724   6.624   7.733  0.8867 -1.2624  0.6259
  192POPC  H10Y22233   5.733   6.771   7.636  0.1095 -0.0715  0.2363
  192POPC  C31122234   5.874   6.758   7.805 -0.4225 -0.1465 -0.5417
  192POPC  H11X22235   5.942   6.832   7.756 -0.1087  0.4546  0.7531
  192POPC  H11Y22236   5.937   6.683   7.857 -0.8145  1.0222  1.7365
  192POPC  C31222237   5.785   6.818   7.916 -0.2140  0.2959  0.4121
  192POPC  H12X22238   5.696   6.867   7.872  0.1008  0.4440 -0.0743
  192POPC  H12Y22239   5.845   6.904   7.954 -0.6144  1.4653 -1.4682
  192POPC  C31322240   5.734   6.721   8.019  0.2393  0.2255  0.2079
  192POPC  H13X22241   5.710   6.629   7.961 -2.3492  1.4710 -0.8435
  192POPC  H13Y22242   5.630   6.743   8.052 -0.3013 -2.0457  0.1552
  192POPC  C31422243   5.821   6.700   8.137 -1.0466  0.2670 -0.3579
  192POPC  H14X22244   5.867   6.794   8.172  1.3306 -1.1780  0.5978
  192POPC  H14Y22245   5.911   6.644   8.104 -0.9476 -0.5840  1.2792
  192POPC  C31522246   5.747   6.621   8.249 -0.6909 -0.1986  0.1640
  192POPC  H15X22247   5.740   6.512   8.226 -0.5096 -0.0102 -0.8464
  192POPC  H15Y22248   5.638   6.641   8.245 -0.7890 -0.0466  2.4808
  192POPC  C31622249   5.803   6.640   8.386  0.9350  0.5486 -0.7562
  192POPC  H16X22250   5.794   6.742   8.428 -0.1186  0.9068 -1.8075
  192POPC  H16Y22251   5.912   6.619   8.388  0.7408 -0.6470  1.8418
  192POPC  H16Z22252   5.766   6.559   8.453 -0.1359  1.6397  0.0129
  193SOD    SOD22253   1.721   6.195   5.673 -0.3206 -0.1862 -0.3099
  194SOD    SOD22254   6.301   0.395  16.785  0.0660 -0.0705  0.2644
  195SOD    SOD22255   4.201   2.400  11.560 -0.1733 -0.0007 -0.2110
  196SOD    SOD22256   2.300   3.494   4.806 -0.2334  0.2581  0.3987
  197SOD    SOD22257   0.090   3.212  11.158  0.2445 -0.0965 -0.2342
  198SOD    SOD22258   2.841   5.401   0.876 -0.0803  0.4654  0.0365
  199SOD    SOD22259   3.781   5.050  13.596  0.7971 -0.0238 -0.4168
  200SOD    SOD22260   0.164   1.075  11.331 -0.6296  0.2957 -0.3090
  201SOD    SOD22261   5.252   1.021  10.900  0.0052  0.4422 -0.4309
  202SOD    SOD22262   1.199   0.549  15.759 -0.6508 -0.1592  0.2693
  203SOD    SOD22263   3.389   6.544  15.654 -0.7017  0.0108  0.1622
  204SOD    SOD22264   1.304   3.336  16.574 -0.1762  0.0887  0.0663
  205SOD    SOD22265   5.582   5.959   2.334 -0.0467 -0.8170  0.3879
  206SOD    SOD22266   1.880   0.451  13.069  0.7034 -0.0390 -0.5068
  207SOD    SOD22267   3.972   0.375   4.395 -0.4579 -0.1136  0.2325
  208SOD    SOD22268   0.202   3.532   6.447  0.3164 -0.0600  0.3067
  209SOD    SOD22269   1.220   4.460   1.120 -0.1980 -0.1207  0.6732
  210SOD    SOD22270   0.633   6.305  10.660  0.3511 -0.0840  0.5379
  211SOD    SOD22271   1.036   6.349   6.072 -0.1956  0.0057  0.1810
  212SOD    SOD22272   4.785   2.321   1.301 -0.1265  0.3894 -0.1161
  213SOD    SOD22273   6.561   1.659   1.824 -0.3985 -0.3778  0.3849
  214SOD    SOD22274   6.465   4.116   5.349 -0.0327  0.0206  0.9288
  215SOD    SOD22275   5.572   5.133  15.898  0.1430 -0.1998  0.5019
  216SOD    SOD22276   0.878   1.948  14.428 -0.1653 -0.4592 -0.4341
  217SOD    SOD22277   5.459   3.353  16.852  0.2619  0.1975  0.1875
  218SOD    SOD22278   0.657   4.433  13.032  0.0767 -0.5005 -0.2618
  219SOD    SOD22279   2.832   0.008  13.336 -0.4822 -0.3191 -0.0255
  220SOD    SOD22280   3.610   2.478   4.138  0.1375 -0.0238 -0.1290
  221SOD    SOD22281   4.665   4.964   1.033 -0.2050 -0.5335  0.1474
  222SOD    SOD22282   3.460   0.509   6.293 -0.4172  0.9987 -0.7159
  223SOD    SOD22283   5.268   0.553  14.077 -0.2426  0.3150  0.2363
  224SOD    SOD22284   3.280   1.483   0.762 -0.0318  0.1018  0.3708
  225SOD    SOD22285   4.813   3.025   4.872  0.7440  0.3195 -0.1930
  226SOD    SOD22286   2.679   2.574   6.182 -0.2439  0.0312 -0.0851
  227SOD    SOD22287   1.698   0.314  14.650 -0.4242 -0.2395 -0.2958
  228SOD    SOD22288   4.490   3.547   4.914  0.1264  0.2201 -0.0684
  229SOD    SOD22289   4.334   3.113   5.307 -0.2098 -0.4908 -0.0261
  230SOD    SOD22290   3.966   1.697   6.601  0.3876 -0.3027  0.4772
  231SOD    SOD22291   3.511   1.238   4.232 -0.1028 -0.5926  0.1346
  232SOD    SOD22292   3.648   4.464  10.967 -0.5995 -0.0113  0.6402
  233SOD    SOD22293   1.874   2.511  17.025 -0.1576 -0.2938 -0.3426
  234SOD    SOD22294   1.919   0.403   2.693 -0.4890 -0.0079  0.2560
  235SOD    SOD22295   1.847   4.231  16.611  0.1685 -0.7443 -0.6798
  236SOD    SOD22296   1.911   4.344  12.902 -0.0841  0.5674  0.4584
  237SOD    SOD22297   5.578   0.441  10.571 -0.2111  0.2400  0.0365
  238SOD    SOD22298   4.296   4.485  16.535  0.0883  0.6439  0.1454
  239SOD    SOD22299   6.703   5.602  15.592 -0.1342 -0.3284  0.3204
  240SOD    SOD22300   4.801   1.767   1.082  0.0070  0.2538 -0.2364
  241SOD    SOD22301   5.748   0.184   6.375 -0.1983  0.1769 -0.7239
  242SOD    SOD22302   5.324   3.360   6.626  0.6952 -0.5022 -0.1039
  243SOD    SOD22303   3.985   5.081  10.716  0.1315  0.2603  0.0083
  244SOD    SOD22304   0.479   1.987  14.422 -0.1436 -0.3004 -0.0047
  245SOD    SOD22305   2.945   3.073  15.587 -0.4149 -0.4045 -0.1417
  246SOD    SOD22306   0.298   0.879   4.355  0.5491 -0.0326  0.0628
  247SOD    SOD22307   4.521   5.668   4.456  0.4654 -0.0351 -0.3666
  248SOD    SOD22308   5.288   0.236   2.620  0.1814 -0.2956  0.2051
  249SOD    SOD22309   2.675   0.863   5.683 -0.1348 -0.4742 -0.0520
  250SOD    SOD22310   0.567   0.122   4.263 -0.0676 -0.2761  0.2144
  251SOD    SOD22311   5.771   4.945   2.781  0.0222  0.3963 -0.2781
  252SOD    SOD22312   2.348   2.954   0.777 -0.1250  0.2690 -0.1950
  253SOD    SOD22313   6.495   5.345  14.188 -0.0353 -0.3782  0.0022
  254SOD    SOD22314   5.636   4.854  12.402 -0.5515  0.5147  0.1828
  255SOD    SOD22315   1.160   2.343  13.537 -0.2367 -0.5582  0.1730
  256SOD    SOD22316   2.522   6.737   6.594 -0.1217 -0.3051  0.2805
  257SOD    SOD22317   4.260   5.520  16.353 -0.4149  0.5254 -0.1723
  258SOD    SOD22318   6.653   6.506   1.994  0.2533 -0.4191 -0.2337
  259SOD    SOD22319   4.503   4.886  13.975  0.2054 -0.2144  0.2387
  260SOD    SOD22320   6.401   3.636   6.330 -0.0462  0.0811  0.3631
  261SOD    SOD22321   0.241   4.392  10.950 -0.2527 -0.6275 -0.1083
  262SOD    SOD22322   4.639   0.426   3.876  0.0066 -0.0787  1.0206
  263SOD    SOD22323   2.599   4.820  11.388 -0.2324  0.0368  0.2461
  264SOD    SOD22324   3.511   1.943  14.051 -0.1244  0.3303 -0.1688
  265SOD    SOD22325   2.724   2.396  12.293 -0.5551 -0.5939 -0.1121
  266SOD    SOD22326   6.252   5.849  10.393 -0.0289 -0.4427 -0.4041
  267SOD    SOD22327   6.561   4.839  13.545  0.5991  0.0158  0.2844
  268SOD    SOD22328   6.130   3.813  13.819  0.4028  0.1489  0.4315
  269SOD    SOD22329   6.083   3.666   1.451  0.7546 -0.2041 -0.1573
  270CLA    CLA22330   2.748   2.419  14.193  0.2806 -0.0606 -0.1747
  271CLA    CLA22331   5.306   2.688   0.469  0.2084 -0.1659  0.2330
  272CLA    CLA22332   1.196   6.581  13.793  0.1173  0.2624  0.0591
  273CLA    CLA22333   0.739   1.855  14.915 -0.2360  0.2726 -0.2826
  274CLA    CLA22334   5.154   2.220   1.472 -0.5714 -0.0820  0.1261
  275CLA    CLA22335   3.032   3.149  16.070  0.2322 -0.1280 -0.0641
  276CLA    CLA22336   4.319   6.766   3.106  0.2022 -0.1848 -0.4750
  277CLA    CLA22337   5.561   3.471  17.253  0.2390  0.1940 -0.1845
  278CLA    CLA22338   0.647   2.314  16.945 -0.6117 -0.0617  0.1363
  279CLA    CLA22339   1.142   6.476   0.429  0.2967 -0.4295 -0.0769
  280CLA    CLA22340   2.412   5.862   5.539  0.2448 -0.0568  0.7883
  281CLA    CLA22341   2.709   3.801   0.175  0.2399 -0.0389 -0.1675
  282CLA    CLA22342   0.404   6.065   2.015  0.3420  0.1304 -0.2046
  283CLA    CLA22343   6.174   1.316   2.414 -0.5838  0.2282  0.0175
  284CLA    CLA22344   4.663   1.512  14.197  0.0443 -0.2299 -0.1661
  285CLA    CLA22345   0.034   5.518  15.125 -0.2552 -0.2523 -0.5551
  286CLA    CLA22346   1.833   2.769   0.604  0.1280 -0.0833  0.0505
  287CLA    CLA22347   5.943   3.649   2.582  0.2414  0.1304  0.2870
  288CLA    CLA22348   4.070   0.880   4.485  0.1692  0.0446 -0.1747
  289CLA    CLA22349   1.350   5.763  12.760  0.1003 -0.3522  0.1511
  290CLA    CLA22350   6.002   0.366   4.993 -0.0776 -0.0888 -0.2994
  291CLA    CLA22351   6.640   0.961  12.432  0.1427 -0.0366 -0.0279
  292CLA    CLA22352   0.350   6.514   4.639  0.1126  0.3202 -0.0863
  293CLA    CLA22353   5.276   6.630   1.003 -0.3916 -0.1331  0.0882
  294CLA    CLA22354   3.114   2.432  12.782 -0.4176 -0.2068  0.1507
  295CLA    CLA22355   4.410   5.367   1.977 -0.2768  0.1074  0.3215
  296CLA    CLA22356   3.174   6.333  16.298  0.1941 -0.1974 -0.0194
  297CLA    CLA22357   3.852   0.668  14.715  0.1762 -0.1524  0.2526
  298CLA    CLA22358   4.265   2.460   3.812 -0.1458 -0.3595 -0.0196
  299CLA    CLA22359   5.208   4.252  14.103  0.1724 -0.4489  0.0680
  300CLA    CLA22360   5.169   2.421   3.645  0.0355 -0.3415 -0.2409
  301CLA    CLA22361   6.283   4.421  13.795 -0.0479  0.3568 -0.2370
  302CLA    CLA22362   1.867   4.540  16.147  0.1629  0.3328  0.3359
  303CLA    CLA22363   3.491   5.109  13.952 -0.5547 -0.4494  0.1466
  304CLA    CLA22364   5.220   6.036  16.919  0.2612 -0.1215  0.3390
  305CLA    CLA22365   6.663   3.790   0.325 -0.3701 -0.0265  0.4179
  306CLA    CLA22366   0.054   0.728   1.488  0.0074 -0.2264 -0.2734
  307CLA    CLA22367   2.611   2.409   0.216 -0.0114  0.3084  0.1445
  308CLA    CLA22368   2.658   4.885  16.009  0.3985 -0.1868  0.3758
  309CLA    CLA22369   2.467   4.400   1.188 -0.0380 -0.1359 -0.2483
  310CLA    CLA22370   2.334   0.434   2.521 -0.5492  0.1346 -0.2132
  311CLA    CLA22371   0.141   2.616   0.723  0.3050  0.1041 -0.0021
  312CLA    CLA22372   3.759   3.611   4.406 -0.0946 -0.2127  0.2166
  313CLA    CLA22373   5.272   6.689   2.695  0.0856  0.0372 -0.3965
  314CLA    CLA22374   0.618   5.139  16.615 -0.2182 -0.2559  0.1427
  315CLA    CLA22375   0.662   5.685  13.324  0.1588 -0.0476 -0.3461
  316CLA    CLA22376   1.376   2.891  13.207 -0.1169 -0.4303 -0.3912
  317CLA    CLA22377   4.788   4.723   3.881  0.1440 -0.0319  0.1401
  318CLA    CLA22378   5.719   2.781   3.685 -0.0674 -0.2084  0.1914
  319CLA    CLA22379   0.632   4.653  12.590 -0.0278 -0.0843  0.0740
  320CLA    CLA22380   6.567   5.557  11.647 -0.1019  0.0079 -0.0623
  321CLA    CLA22381   6.651   2.984  14.211  0.2214  0.0488 -0.2166
  322CLA    CLA22382   0.289   4.525   3.746 -0.1452  0.0219 -0.0416
  323TIP3   OH222383   3.444   5.955  13.762  0.0037 -0.0153 -0.3781
  323TIP3    H122384   3.511   5.951  13.693  0.6376 -0.9976  0.2776
  323TIP3    H222385   3.491   5.981  13.840 -0.8772  2.0633 -0.4631
  324TIP3   OH222386   3.864   1.775  16.431 -0.6602 -0.3649  0.5504
  324TIP3    H122387   3.942   1.825  16.407 -0.8136 -0.1166  0.5614
  324TIP3    H222388   3.898   1.700  16.479 -0.5092  0.6581  2.1307
  325TIP3   OH222389   4.306   3.313   5.405 -0.1038 -0.4391  0.0731
  325TIP3    H122390   4.265   3.390   5.367  3.5746  1.6679 -0.1615
  325TIP3    H222391   4.362   3.347   5.475  2.6383 -2.6368 -0.8242
  326TIP3   OH222392   3.867   0.343  16.744  0.0910 -0.6370 -0.0805
  326TIP3    H122393   3.845   0.431  16.712 -3.6554 -1.3913 -0.0744
  326TIP3    H222394   3.817   0.284  16.687  0.2065 -2.5781  1.7022
  327TIP3   OH222395   5.961   5.524   5.193 -0.6460  0.2780 -0.4090
  327TIP3    H122396   6.035   5.498   5.247  0.5054 -0.2824 -2.1479
  327TIP3    H222397   5.962   5.463   5.119 -1.1419  1.9524 -1.8897
  328TIP3   OH222398   2.582   4.912   3.767 -0.0221 -0.0850  0.7893
  328TIP3    H122399   2.659   4.867   3.733  0.5260  1.0935  0.4273
  328TIP3    H222400   2.617   4.980   3.824 -0.6013  2.2937 -1.5084
  329TIP3   OH222401   5.420   2.482   2.710 -0.5777 -0.1660 -0.4978
  329TIP3    H122402   5.429   2.511   2.620  0.4240  2.0985  0.2508
  329TIP3    H222403   5.509   2.459   2.737  0.0033  3.1985  1.0518
  330TIP3   OH222404   5.337   6.606   5.246 -0.3519  0.6815 -0.2361
  330TIP3    H122405   5.392   6.684   5.239 -1.1591  1.3955  1.0655
  330TIP3    H222406   5.379   6.552   5.313 -0.5700  0.6478 -0.1258
  331TIP3   OH222407   3.850   3.330  14.763  0.0598 -0.0605  0.2686
  331TIP3    H122408   3.797   3.251  14.772  0.6842 -0.3226  2.0151
  331TIP3    H222409   3.808   3.393  14.821 -0.0047  0.6697 -0.5533
  332TIP3   OH222410   3.603   4.845  12.818  0.5817 -0.0738 -0.7108
  332TIP3    H122411   3.533   4.798  12.773  0.4987 -0.3794 -0.2737
  332TIP3    H222412   3.565   4.931  12.837 -0.2254 -0.7054  0.8007
  333TIP3   OH222413   5.482   1.222  14.263  0.2451  0.4652  0.4684
  333TIP3    H122414   5.419   1.179  14.204  0.1407 -1.3696  1.8102
  333TIP3    H222415   5.563   1.173  14.250  0.3274  0.3058  1.5437
  334TIP3   OH222416   3.346   3.321   4.697  0.6720 -0.0149  0.1023
  334TIP3    H122417   3.302   3.385   4.752 -1.7625 -1.2066 -0.3262
  334TIP3    H222418   3.347   3.360   4.610 -0.6078 -0.4282 -0.1132
  335TIP3   OH222419   2.469   6.219  14.996 -0.0083 -0.0008  0.0779
  335TIP3    H122420   2.536   6.164  15.036 -0.1064  0.5673  1.0723
  335TIP3    H222421   2.393   6.162  14.987  0.7805 -0.8405 -1.6790
  336TIP3   OH222422   6.055   5.915   2.663 -0.0630 -0.5334 -0.1357
  336TIP3    H122423   6.127   5.853   2.650 -0.2608 -0.9640  0.7581
  336TIP3    H222424   6.028   5.939   2.574 -0.5927 -2.4803 -0.5528
  337TIP3   OH222425   4.904   1.080  15.914  0.4619 -0.1147 -0.3348
  337TIP3    H122426   4.892   1.060  15.821 -1.6677  1.6208 -0.5249
  337TIP3    H222427   4.901   1.176  15.918 -0.7050 -0.1797  1.6391
  338TIP3   OH222428   5.195   2.478   2.154  0.2890  0.0262  0.3983
  338TIP3    H122429   5.242   2.435   2.225  1.1625  2.4265  1.3935
  338TIP3    H222430   5.103   2.457   2.169  0.7280 -2.2552  0.2019
  339TIP3   OH222431   3.309   0.432   0.703  0.3408  0.1493  0.0923
  339TIP3    H122432   3.314   0.384   0.620  2.3743  0.6086 -0.0999
  339TIP3    H222433   3.260   0.511   0.682  2.0141  0.9439 -1.0871
  340TIP3   OH222434   4.315   4.368  15.508  0.7202 -0.4850 -0.1672
  340TIP3    H122435   4.243   4.376  15.571  0.7603  0.7501 -0.2532
  340TIP3    H222436   4.390   4.342  15.562  0.2246 -1.7517 -0.0740
  341TIP3   OH222437   0.215   1.584   3.013  0.0826  0.3698 -0.1170
  341TIP3    H122438   0.148   1.528   3.052  2.2974 -1.7496  0.8953
  341TIP3    H222439   0.245   1.535   2.936  3.5046 -1.0875  1.9213
  342TIP3   OH222440   2.741   3.314  16.521  0.4115 -0.1097 -0.5024
  342TIP3    H122441   2.799   3.331  16.595  0.8078 -2.1105 -0.3097
  342TIP3    H222442   2.799   3.316  16.444  0.2274  0.6241 -0.6352
  343TIP3   OH222443   0.319   6.350   3.092 -0.2360 -0.7287 -0.6903
  343TIP3    H122444   0.299   6.349   3.185  0.0818  1.0897 -0.5674
  343TIP3    H222445   0.293   6.437   3.063 -0.3224 -1.2640 -2.3120
  344TIP3   OH222446   1.738   3.762   1.117  0.3498 -0.2444  0.2899
  344TIP3    H122447   1.713   3.826   1.184  0.5248 -0.9857  1.0780
  344TIP3    H222448   1.759   3.815   1.040 -1.4571  0.5361  0.2797
  345TIP3   OH222449   0.900   5.794  13.091  0.3587 -0.4355  0.3449
  345TIP3    H122450   0.832   5.733  13.118  2.1120 -2.1202  1.1552
  345TIP3    H222451   0.945   5.750  13.019 -0.6263  1.5521 -1.6168
  346TIP3   OH222452   0.938   0.782  12.053  0.1536 -0.2511  0.2930
  346TIP3    H122453   0.887   0.863  12.061 -1.3724 -1.1886  0.4223
  346TIP3    H222454   0.920   0.752  11.964  1.7535  0.1889 -0.2118
  347TIP3   OH222455   0.825   2.573   2.422  0.5950 -0.9959 -0.1222
  347TIP3    H122456   0.806   2.640   2.356 -0.4426  0.0610  1.2009
  347TIP3    H222457   0.794   2.491   2.383  0.6608 -0.5141 -1.2225
  348TIP3   OH222458   5.308   4.041   2.388  0.7421  0.1942 -0.1749
  348TIP3    H122459   5.221   4.018   2.356 -0.2510  1.8167  1.1903
  348TIP3    H222460   5.364   3.968   2.361 -1.0682 -0.9758 -0.9308
  349TIP3   OH222461   0.667   4.318   2.728 -0.1259  0.0234 -0.5454
  349TIP3    H122462   0.580   4.322   2.768  0.5660  2.7146  0.9349
  349TIP3    H222463   0.707   4.240   2.766 -1.0089  0.1742  0.7545
  350TIP3   OH222464   6.603   5.999  14.607 -0.4795  0.7150  0.3224
  350TIP3    H122465   6.664   6.072  14.616 -0.4161  0.6610  0.3247
  350TIP3    H222466   6.524   6.038  14.570 -0.3196  0.7206 -0.0109
  351TIP3   OH222467   4.817   5.873  12.574  0.5016 -0.0935  0.3121
  351TIP3    H122468   4.804   5.968  12.574  1.6625  0.0744 -0.4586
  351TIP3    H222469   4.785   5.844  12.489 -2.9620 -0.9091  1.6873
  352TIP3   OH222470   1.172   2.156  16.316  0.4771 -0.1174 -0.0046
  352TIP3    H122471   1.157   2.136  16.223 -1.6105  0.9292  0.0385
  352TIP3    H222472   1.160   2.251  16.321 -0.3563 -0.2825  1.4810
  353TIP3   OH222473   3.344   4.909   6.626 -0.3655 -0.2655  0.7117
  353TIP3    H122474   3.271   4.962   6.592  1.0953 -0.6004 -3.4707
  353TIP3    H222475   3.311   4.819   6.623 -0.8811 -0.1518  2.2096
  354TIP3   OH222476   4.352   3.116  11.928 -0.0090  0.6597  0.9168
  354TIP3    H122477   4.358   3.180  11.857 -0.6338  1.6379  1.7187
  354TIP3    H222478   4.366   3.168  12.007 -1.1122 -0.0885  1.6230
  355TIP3   OH222479   5.157   2.898  11.272  0.0400  0.5601  0.4175
  355TIP3    H122480   5.161   2.805  11.294 -0.8804  0.6021  0.8307
  355TIP3    H222481   5.201   2.942  11.344  2.6504  0.3393 -0.9188
  356TIP3   OH222482   1.152   3.841  13.529 -0.2230  0.0724  0.0680
  356TIP3    H122483   1.170   3.790  13.450  0.0116 -1.6205  1.1820
  356TIP3    H222484   1.152   3.932  13.498  0.1474 -0.5146 -1.8210
  357TIP3   OH222485   4.235   4.066  11.531 -0.1388 -0.0233 -0.6670
  357TIP3    H122486   4.170   4.074  11.600  0.2207  0.5621 -0.3877
  357TIP3    H222487   4.190   4.019  11.461 -1.2402  1.3668 -0.9398
  358TIP3   OH222488   5.984   1.676   3.358 -1.1096 -0.1424 -0.6267
  358TIP3    H122489   6.054   1.727   3.317 -0.2224  0.7650  1.8478
  358TIP3    H222490   5.904   1.706   3.314 -0.2316  0.6848 -1.7225
  359TIP3   OH222491   0.906   6.036  11.985 -0.3933  0.4600 -0.2593
  359TIP3    H122492   0.878   6.068  11.900 -0.5403  0.2225 -0.3032
  359TIP3    H222493   0.974   5.972  11.966 -0.6715  0.1467 -0.2222
  360TIP3   OH222494   4.429   2.017   2.209 -0.2439  0.3212  0.6378
  360TIP3    H122495   4.338   2.039   2.191 -0.7305 -0.3151  2.0653
  360TIP3    H222496   4.453   2.072   2.284  0.2879 -0.0571  0.7555
  361TIP3   OH222497   2.163   0.637   3.558  0.7879 -0.0151 -0.6079
  361TIP3    H122498   2.151   0.589   3.640 -0.1839 -0.1393 -0.8072
  361TIP3    H222499   2.196   0.572   3.496 -1.7130 -0.8064 -1.2212
  362TIP3   OH222500   4.084   1.295  13.770 -0.0504 -0.5626  0.1437
  362TIP3    H122501   4.000   1.299  13.816 -0.3267 -0.5482 -0.3553
  362TIP3    H222502   4.143   1.348  13.823  0.2078 -2.2424  1.6377
  363TIP3   OH222503   6.002   3.522  13.282  0.1617  0.3770 -0.1258
  363TIP3    H122504   5.942   3.451  13.304  0.3821 -0.0759 -0.9365
  363TIP3    H222505   5.946   3.597  13.264 -0.1593  0.0227 -0.6324
  364TIP3   OH222506   2.220   0.886  14.195 -0.2016  0.0389  0.1730
  364TIP3    H122507   2.268   0.938  14.131  0.8078  1.2408  1.8198
  364TIP3    H222508   2.208   0.944  14.270 -5.1037  0.1435 -0.3768
  365TIP3   OH222509   0.591   5.157  11.164 -0.2798 -0.1182 -0.2568
  365TIP3    H122510   0.625   5.177  11.077  0.5882 -0.4029  0.0061
  365TIP3    H222511   0.616   5.233  11.218  0.0214 -0.3655 -0.0435
  366TIP3   OH222512   3.397   1.858   4.962 -0.4876  0.4469 -0.4002
  366TIP3    H122513   3.308   1.824   4.977 -0.5807  0.0163 -1.7218
  366TIP3    H222514   3.454   1.794   5.004 -0.7117 -0.9405 -2.0447
  367TIP3   OH222515   5.719   0.927   1.035 -0.1872  0.0883 -0.0813
  367TIP3    H122516   5.673   0.990   0.979  0.4185  1.3079  0.7417
  367TIP3    H222517   5.747   0.858   0.976  0.0749  1.1367 -1.2120
  368TIP3   OH222518   1.307   0.588   0.330  0.0561  0.1188  0.0767
  368TIP3    H122519   1.330   0.497   0.349 -0.3976  0.0340  0.2299
  368TIP3    H222520   1.236   0.607   0.391 -0.7673  0.1522 -0.8783
  369TIP3   OH222521   1.253   4.437  12.561  0.2179  0.0739  0.3906
  369TIP3    H122522   1.306   4.516  12.573 -0.6338  1.4239 -3.4411
  369TIP3    H222523   1.316   4.368  12.544  0.8789  0.5112  0.9887
  370TIP3   OH222524   1.342   5.048   5.557  0.0008 -0.1852 -0.4425
  370TIP3    H122525   1.431   5.026   5.528  2.3064  4.0799  2.3689
  370TIP3    H222526   1.305   5.095   5.482  0.8034 -0.4238 -1.0164
  371TIP3   OH222527   6.560   4.839   2.797  0.3957 -0.3807 -0.0261
  371TIP3    H122528   6.625   4.844   2.726  1.6707  0.0204  1.1172
  371TIP3    H222529   6.493   4.903   2.772  1.6085  0.9032 -0.1364
  372TIP3   OH222530   2.574   4.421  10.695  0.7576  0.6434 -0.4513
  372TIP3    H122531   2.587   4.386  10.783 -1.2877 -1.0274 -0.7349
  372TIP3    H222532   2.525   4.353  10.649  0.9737  1.8625 -2.6250
  373TIP3   OH222533   2.019   5.740   4.560 -0.9928  0.2179 -0.2349
  373TIP3    H122534   1.968   5.683   4.502 -1.2704  1.2424 -1.0216
  373TIP3    H222535   2.031   5.687   4.639 -1.6743 -0.7470 -0.7408
  374TIP3   OH222536   4.685   3.565  13.059  0.2356  0.2731 -0.1026
  374TIP3    H122537   4.652   3.475  13.056 -0.3827  0.5247 -1.7446
  374TIP3    H222538   4.672   3.592  13.150 -3.0096 -0.0661 -0.3478
  375TIP3   OH222539   4.193   3.408  14.236  0.3028  0.4729 -0.2892
  375TIP3    H122540   4.157   3.346  14.172 -0.0269 -1.2663  1.5095
  375TIP3    H222541   4.122   3.470  14.251 -0.2198 -0.0762 -0.4125
  376TIP3   OH222542   2.318   3.222   4.107 -0.1333 -0.6432  0.3867
  376TIP3    H122543   2.305   3.128   4.095 -1.0814 -0.2886 -1.9405
  376TIP3    H222544   2.344   3.253   4.020 -0.3890  1.3288  0.9783
  377TIP3   OH222545   3.846   0.161  13.261 -0.9259 -0.8200 -0.1153
  377TIP3    H122546   3.847   0.080  13.312  1.5140  0.6576  2.4479
  377TIP3    H222547   3.908   0.145  13.189  1.4282 -0.5770  1.7369
  378TIP3   OH222548   2.360   1.125  11.671  0.7456 -0.2587  0.1576
  378TIP3    H122549   2.391   1.213  11.651  1.0876 -0.4647 -0.2326
  378TIP3    H222550   2.439   1.077  11.696  1.0882 -1.2451 -2.4640
  379TIP3   OH222551   3.764   4.583  12.594  0.7651  0.1996 -0.1521
  379TIP3    H122552   3.770   4.677  12.579 -0.8260  0.5529  1.1045
  379TIP3    H222553   3.744   4.546  12.508 -1.3911  1.3534 -0.2269
  380TIP3   OH222554   3.708   2.092   6.818  0.0785  0.0904  0.2966
  380TIP3    H122555   3.773   2.158   6.844 -0.3735  1.2877 -1.4300
  380TIP3    H222556   3.754   2.009   6.827  1.0724  0.7231  1.3699
  381TIP3   OH222557   1.940   2.458  12.280  0.4966 -0.1608 -0.0609
  381TIP3    H122558   2.027   2.433  12.249  0.2086 -1.3632  0.0718
  381TIP3    H222559   1.897   2.494  12.203  0.7873 -0.4256 -0.3535
  382TIP3   OH222560   6.280   1.983   2.367 -0.1063  0.2720 -0.7118
  382TIP3    H122561   6.254   2.064   2.410  0.0970 -0.2903  0.5087
  382TIP3    H222562   6.280   1.917   2.437  3.9564  0.0495 -0.6435
  383TIP3   OH222563   0.273   6.086   5.688  0.3802 -0.4217  0.0518
  383TIP3    H122564   0.301   6.017   5.748  0.2486  0.4932  1.2168
  383TIP3    H222565   0.313   6.166   5.723  0.8534  0.0371 -1.4916
  384TIP3   OH222566   3.604   5.910   5.726  0.1241 -0.2543 -0.0200
  384TIP3    H122567   3.609   6.001   5.754 -2.6088 -0.2959  0.9133
  384TIP3    H222568   3.644   5.909   5.639 -1.1531  2.1749 -0.7238
  385TIP3   OH222569   6.190   4.075   2.761  0.1000  0.2177 -0.0231
  385TIP3    H122570   6.107   4.117   2.738 -0.0416  0.8101  1.4340
  385TIP3    H222571   6.190   3.994   2.711 -0.1317  1.4043 -2.0591
  386TIP3   OH222572   0.731   2.786   2.273  0.2077 -0.1068  0.4941
  386TIP3    H122573   0.746   2.847   2.201 -0.4552 -0.5105  0.0054
  386TIP3    H222574   0.715   2.842   2.349 -0.5524  0.3325  0.0186
  387TIP3   OH222575   0.961   3.354  16.805  0.0504  0.3567  0.1797
  387TIP3    H122576   1.049   3.391  16.803  0.1129  0.4457  2.1052
  387TIP3    H222577   0.917   3.402  16.876 -0.7994 -1.2410  0.7754
  388TIP3   OH222578   2.474   3.215  15.690 -0.0671  0.1550 -0.5911
  388TIP3    H122579   2.400   3.203  15.631 -0.5138 -0.3242  0.0584
  388TIP3    H222580   2.547   3.237  15.632 -0.7359  0.7733 -1.2256
  389TIP3   OH222581   5.164   2.695   1.513 -0.0649 -0.4203 -0.0065
  389TIP3    H122582   5.136   2.626   1.573  2.0916 -0.0659  1.5212
  389TIP3    H222583   5.200   2.649   1.437  0.7558 -0.9887  0.7103
  390TIP3   OH222584   5.241   3.660  16.673 -0.0667  0.3538  0.2971
  390TIP3    H122585   5.327   3.624  16.695 -0.1707  0.6683  1.3019
  390TIP3    H222586   5.216   3.618  16.591  0.0911 -1.3809  1.1022
  391TIP3   OH222587   5.413   4.410  15.057 -0.3813 -0.3143  0.1491
  391TIP3    H122588   5.333   4.403  15.005 -1.7221  2.3733  1.6325
  391TIP3    H222589   5.469   4.470  15.007  0.5642 -1.8275 -0.6611
  392TIP3   OH222590   1.368   3.927   5.054  0.2417 -0.0491 -0.7365
  392TIP3    H122591   1.339   4.017   5.038  2.7732  0.8072 -0.8416
  392TIP3    H222592   1.287   3.880   5.073 -1.2399  2.0874 -1.3284
  393TIP3   OH222593   1.103   2.834   3.954  0.5675 -0.1925  0.3708
  393TIP3    H122594   1.079   2.924   3.979  0.6464 -0.0353 -0.1097
  393TIP3    H222595   1.160   2.845   3.878  0.9394 -0.6351  0.5831
  394TIP3   OH222596   2.950   5.194   6.226 -0.6712  0.3300  0.0428
  394TIP3    H122597   3.040   5.172   6.253 -0.4486  1.1481 -0.0238
  394TIP3    H222598   2.943   5.288   6.240 -1.7735  0.1518  0.7654
  395TIP3   OH222599   1.950   3.057  15.894 -0.0443  0.6215  0.0975
  395TIP3    H122600   1.997   3.091  15.970 -1.5736  0.7642  1.0130
  395TIP3    H222601   1.912   2.974  15.923  1.1292 -0.4162 -1.1960
  396TIP3   OH222602   3.644   4.805  14.010 -0.2161  0.1730 -0.2898
  396TIP3    H122603   3.663   4.895  13.984  0.0878  0.0234 -0.5831
  396TIP3    H222604   3.606   4.813  14.097  0.0099  0.5660 -0.2274
  397TIP3   OH222605   5.886   5.222   0.704 -0.2270  0.3808  0.0863
  397TIP3    H122606   5.895   5.224   0.608 -0.8970  0.6114  0.0235
  397TIP3    H222607   5.967   5.182   0.734  0.9446  2.2175 -0.4479
  398TIP3   OH222608   4.440   2.650   4.655  0.1657 -0.3077  0.3411
  398TIP3    H122609   4.492   2.727   4.632  0.3093  0.2655  2.3776
  398TIP3    H222610   4.351   2.683   4.663  0.0037 -0.6427 -0.0247
  399TIP3   OH222611   2.765   4.335  16.077  0.3571  0.1139  0.3847
  399TIP3    H122612   2.687   4.284  16.054  2.7409 -3.2929 -0.9856
  399TIP3    H222613   2.762   4.410  16.017 -1.9366  0.2063  0.5261
  400TIP3   OH222614   0.083   5.820   1.299 -0.5836 -0.0475  0.9014
  400TIP3    H122615   0.132   5.879   1.241  1.3981 -1.0024  1.5319
  400TIP3    H222616  -0.005   5.820   1.263 -0.3076  2.2011  0.0458
  401TIP3   OH222617   4.762   3.518   5.563 -0.0737  0.4037  0.1746
  401TIP3    H122618   4.851   3.518   5.527  0.2343  0.6563  0.9113
  401TIP3    H222619   4.736   3.610   5.559  0.5057  0.6667  1.8718
  402TIP3   OH222620   2.319   1.144   1.925 -0.0106  0.2971 -0.1317
  402TIP3    H122621   2.259   1.214   1.951 -1.1616 -1.3740  2.0288
  402TIP3    H222622   2.392   1.151   1.987 -0.4019 -0.7100  0.4662
  403TIP3   OH222623   4.507   1.305  14.000 -0.2696 -0.0947  0.0593
  403TIP3    H122624   4.553   1.378  14.042 -0.3328  0.0618 -0.1409
  403TIP3    H222625   4.577   1.248  13.969 -0.1879  0.4666 -0.8157
  404TIP3   OH222626   1.806   1.151   4.155  0.0820 -0.8164 -0.4185
  404TIP3    H122627   1.726   1.204   4.164  0.4773  0.0078 -1.4717
  404TIP3    H222628   1.784   1.085   4.089  0.7709  0.5357 -2.0920
  405TIP3   OH222629   5.451   2.093  12.835  0.3922  0.1136 -0.4462
  405TIP3    H122630   5.425   2.083  12.926  0.8603 -0.7325 -0.3937
  405TIP3    H222631   5.441   2.186  12.817 -1.3907  0.0364 -0.0517
  406TIP3   OH222632   3.123   5.983  13.107  0.2516 -0.3831 -0.3595
  406TIP3    H122633   3.039   6.015  13.138  1.0254 -1.2057  3.0849
  406TIP3    H222634   3.107   5.891  13.084  0.0662 -0.3700 -0.2847
  407TIP3   OH222635   1.009   3.192   4.395  0.7750 -0.1962  0.2618
  407TIP3    H122636   0.972   3.156   4.476 -0.5495  0.2709 -0.1060
  407TIP3    H222637   0.962   3.148   4.325  1.4221 -0.0876 -0.2537
  408TIP3   OH222638   0.390   6.117  15.178 -0.0021 -0.7910  0.0036
  408TIP3    H122639   0.462   6.174  15.152 -0.0968 -0.3467  0.7108
  408TIP3    H222640   0.313   6.174  15.176 -0.1349 -0.9501  0.4743
  409TIP3   OH222641   3.146   2.870   2.533  0.0119 -0.0417  0.2149
  409TIP3    H122642   3.122   2.804   2.599 -0.1976 -2.0753 -1.7898
  409TIP3    H222643   3.240   2.881   2.544  0.1647 -1.1557  0.2137
  410TIP3   OH222644   4.807   0.100   0.112 -0.2830 -0.5190 -0.3171
  410TIP3    H122645   4.811   0.014   0.071  0.3467 -1.3563  1.3646
  410TIP3    H222646   4.884   0.102   0.169 -0.8314  0.7493  0.4130
  411TIP3   OH222647   0.878   1.259   5.753  0.3766 -0.2701 -0.6982
  411TIP3    H122648   0.921   1.227   5.832  0.4973  2.1012  0.2694
  411TIP3    H222649   0.950   1.280   5.694  0.3296 -0.7400 -0.9329
  412TIP3   OH222650   4.525   2.226  13.782  0.1038 -0.3768  0.3863
  412TIP3    H122651   4.478   2.161  13.731 -0.1377  0.0484  0.0576
  412TIP3    H222652   4.461   2.257  13.846 -0.4932  1.1236 -0.8798
  413TIP3   OH222653   2.786   4.592  15.266 -0.0272 -0.2784  0.5037
  413TIP3    H122654   2.727   4.559  15.334 -1.4307  1.2019  0.0596
  413TIP3    H222655   2.770   4.533  15.192 -0.3677 -0.3636  0.6386
  414TIP3   OH222656   6.668   2.772  13.036  0.0540 -0.0888 -0.6933
  414TIP3    H122657   6.648   2.864  13.022 -2.4655 -0.5286 -0.3697
  414TIP3    H222658   6.737   2.772  13.102  0.8771  1.5428 -1.4876
  415TIP3   OH222659   4.207   1.415   3.700  0.4342 -0.1610  0.4474
  415TIP3    H122660   4.124   1.389   3.739 -0.1103  0.2294 -0.4244
  415TIP3    H222661   4.272   1.356   3.739 -0.5383 -1.8141 -0.3596
  416TIP3   OH222662   6.390   3.225  15.159 -0.2165  0.3360 -0.1218
  416TIP3    H122663   6.438   3.185  15.087 -0.2120 -0.5311  0.3498
  416TIP3    H222664   6.362   3.310  15.125 -0.3995 -0.1437 -1.2185
  417TIP3   OH222665   0.874   2.137   6.507  0.7368 -0.4135 -0.4277
  417TIP3    H122666   0.903   2.101   6.423  2.3739 -0.7060  0.2350
  417TIP3    H222667   0.950   2.130   6.564 -0.2672  0.0217  1.0226
  418TIP3   OH222668   1.629   5.217  15.346  0.4691  0.2246  0.1292
  418TIP3    H122669   1.706   5.274  15.356  0.8993 -0.5065  1.2094
  418TIP3    H222670   1.573   5.240  15.420  0.0496  0.1459 -0.1650
  419TIP3   OH222671   1.953   1.826  15.279 -0.5306 -0.0369 -0.9444
  419TIP3    H122672   1.886   1.765  15.308 -0.8481  1.7912  2.6480
  419TIP3    H222673   1.925   1.911  15.312  2.5937  1.1343 -0.9351
  420TIP3   OH222674   6.358   0.597   3.947  0.0629  0.5172 -0.2987
  420TIP3    H122675   6.452   0.590   3.963  0.1552 -1.2794 -1.3221
  420TIP3    H222676   6.336   0.517   3.898 -2.1519  0.4813  0.6367
  421TIP3   OH222677   1.280   4.731   4.484  0.1459 -0.1252  0.0404
  421TIP3    H122678   1.321   4.701   4.566 -2.0871  0.5733  1.5185
  421TIP3    H222679   1.303   4.823   4.478  0.9357 -0.3534 -0.5512
  422TIP3   OH222680   2.328   5.290  14.821  0.3583  0.0717 -0.0154
  422TIP3    H122681   2.305   5.270  14.912  3.0467 -1.2303  0.4702
  422TIP3    H222682   2.417   5.325  14.826  1.5608 -2.3454 -2.2993
  423TIP3   OH222683   6.604   3.759  16.399  0.2959 -0.6535  0.4822
  423TIP3    H122684   6.672   3.701  16.434  1.4693 -0.4677 -1.4053
  423TIP3    H222685   6.640   3.847  16.408  0.7424 -0.6159 -1.3657
  424TIP3   OH222686   6.058   4.778  14.300 -0.1206 -0.2527 -0.6330
  424TIP3    H122687   5.999   4.821  14.362 -1.7200 -1.0686 -1.5238
  424TIP3    H222688   6.121   4.732  14.356 -0.4755  0.4226  0.3553
  425TIP3   OH222689   3.913   3.199   3.928  0.5314  0.1721 -0.2191
  425TIP3    H122690   3.931   3.140   4.001 -0.6090  2.0339  1.6742
  425TIP3    H222691   3.977   3.174   3.861  1.4006 -1.8329  1.2573
  426TIP3   OH222692   4.678   0.351   3.444 -0.0916 -0.0231 -0.0829
  426TIP3    H122693   4.656   0.327   3.355  1.8700  1.6197 -1.1127
  426TIP3    H222694   4.635   0.435   3.458  0.7985  0.4462 -0.0615
  427TIP3   OH222695   1.995   1.374  15.641  0.1552  0.1989  0.1090
  427TIP3    H122696   2.086   1.391  15.617  0.6301  1.1380  2.2825
  427TIP3    H222697   2.000   1.316  15.717 -1.1563 -1.0831 -0.7201
  428TIP3   OH222698   0.745   2.271  16.012  0.7571 -0.0318 -0.1446
  428TIP3    H122699   0.659   2.232  16.000  0.9815 -0.4032 -0.6354
  428TIP3    H222700   0.742   2.313  16.097 -0.2004  0.7230 -0.5374
  429TIP3   OH222701   3.662   5.683   4.412  0.0341  0.1573 -0.0927
  429TIP3    H122702   3.618   5.763   4.441 -1.4293 -0.4690 -0.4726
  429TIP3    H222703   3.591   5.620   4.399  1.0633 -0.9275 -0.7009
  430TIP3   OH222704   4.864   1.944   0.650 -0.0406  0.1855 -0.1448
  430TIP3    H122705   4.858   1.956   0.555 -0.0656 -2.0677 -0.4879
  430TIP3    H222706   4.957   1.955   0.670  0.0522  0.0987 -0.5315
  431TIP3   OH222707   5.126   0.488  16.623  0.0521  0.4363  0.2578
  431TIP3    H122708   5.216   0.460  16.641 -0.4073 -2.9593 -1.7581
  431TIP3    H222709   5.082   0.483  16.707  1.6968  2.3937  1.3352
  432TIP3   OH222710   2.173   6.573  13.693 -0.3035 -0.0604 -0.3980
  432TIP3    H122711   2.150   6.651  13.743  0.3782 -0.9542  1.4258
  432TIP3    H222712   2.252   6.539  13.737  0.2599 -0.9691 -2.0390
  433TIP3   OH222713   0.685   0.731   3.277 -0.2911 -0.8714  0.6700
  433TIP3    H122714   0.618   0.680   3.322 -0.4735 -0.7377  0.5504
  433TIP3    H222715   0.670   0.716   3.184 -1.5431  0.8475  0.5297
  434TIP3   OH222716   4.268   0.062  17.034  0.1510 -0.1019  0.0951
  434TIP3    H122717   4.246   0.021  17.118  0.7028  0.8544  0.7390
  434TIP3    H222718   4.233   0.151  17.041  2.4558  0.8694  0.4173
  435TIP3   OH222719   4.560   5.315  17.171 -0.5055 -0.5735  0.4211
  435TIP3    H122720   4.549   5.359  17.087 -1.4045  0.5909  1.1251
  435TIP3    H222721   4.570   5.385  17.235 -1.3260 -1.3753  1.4849
  436TIP3   OH222722   5.879   0.386   6.352  0.2555 -0.2123  0.8106
  436TIP3    H122723   5.973   0.371   6.340 -0.0085 -0.2512 -1.9814
  436TIP3    H222724   5.870   0.481   6.354  0.2946 -0.1824  0.0230
  437TIP3   OH222725   1.669   4.707   1.468 -0.3097 -0.0503  0.3870
  437TIP3    H122726   1.591   4.683   1.418  0.1550 -0.1557 -0.2959
  437TIP3    H222727   1.741   4.659   1.427 -0.0893 -1.1322  1.9382
  438TIP3   OH222728   5.661   1.571   5.078  0.4301  0.3628 -0.0828
  438TIP3    H122729   5.645   1.651   5.129 -0.3970  0.0155  0.2101
  438TIP3    H222730   5.718   1.600   5.007 -1.7136  1.7396 -1.3533
  439TIP3   OH222731   1.028   4.153  11.580 -0.2409  0.0381 -0.6406
  439TIP3    H122732   1.017   4.246  11.565 -0.9164  0.2327  0.8676
  439TIP3    H222733   1.067   4.147  11.667 -1.9528 -1.0989  0.1096
  440TIP3   OH222734   1.189   3.779  15.410  0.0584  0.2834  0.5600
  440TIP3    H122735   1.267   3.829  15.387  0.0912 -0.5861 -1.4594
  440TIP3    H222736   1.121   3.812  15.351  0.2754 -2.4162 -1.4315
  441TIP3   OH222737   3.737   0.982  16.013  0.2004  0.0925 -0.3095
  441TIP3    H122738   3.737   0.888  16.030  1.3556  0.0908 -0.2975
  441TIP3    H222739   3.825   1.002  15.983  0.0738  1.2309  0.0140
  442TIP3   OH222740   3.941   3.460   3.184  0.2282 -0.5644  0.4672
  442TIP3    H122741   3.904   3.532   3.235  1.7331  0.1776  0.5551
  442TIP3    H222742   4.009   3.500   3.130 -0.7004 -1.4826 -1.4959
  443TIP3   OH222743   1.797   0.502   4.442  0.2042 -0.3977 -0.2760
  443TIP3    H122744   1.737   0.542   4.380 -1.1234  0.6432  1.5591
  443TIP3    H222745   1.794   0.559   4.519  1.9371 -1.4858  0.6829
  444TIP3   OH222746   2.749   2.723  14.772  0.4352  0.4193 -0.2602
  444TIP3    H122747   2.677   2.769  14.728 -0.4042  1.4842  2.0195
  444TIP3    H222748   2.828   2.755  14.728 -0.3344  1.3926 -1.0040
  445TIP3   OH222749   6.398   5.140  14.060 -0.2475 -0.0937 -0.2083
  445TIP3    H122750   6.345   5.184  13.993  1.2490  0.8229 -0.8427
  445TIP3    H222751   6.335   5.111  14.126 -1.5817  0.4567 -1.2090
  446TIP3   OH222752   1.495   0.012   2.437 -0.2684  0.0550 -0.8542
  446TIP3    H122753   1.482  -0.044   2.513 -2.5106  1.5781 -0.0354
  446TIP3    H222754   1.527   0.094   2.473  0.5374  0.1772 -1.7914
  447TIP3   OH222755   4.309   0.470  14.144  0.4073  0.1119  0.4857
  447TIP3    H122756   4.376   0.434  14.086 -0.9268 -0.9464 -0.4606
  447TIP3    H222757   4.301   0.562  14.118 -0.2041 -0.3568 -1.0808
  448TIP3   OH222758   5.616   0.693  12.528  0.3404  0.2303  0.1553
  448TIP3    H122759   5.629   0.760  12.595 -2.0996 -0.0664  1.0423
  448TIP3    H222760   5.560   0.736  12.463  1.3526  0.0059 -0.8887
  449TIP3   OH222761   2.435   3.795  16.964  0.0289 -0.0546  0.0484
  449TIP3    H122762   2.499   3.726  16.979  1.1887  0.6238 -1.5196
  449TIP3    H222763   2.380   3.762  16.893 -0.2386  0.1074  0.1759
  450TIP3   OH222764   5.034   3.386   0.019  0.0828 -0.3871 -0.0139
  450TIP3    H122765   4.945   3.420   0.025  0.8128  1.7244 -0.2373
  450TIP3    H222766   5.070   3.429  -0.058  1.7058 -0.1853  0.8260
  451TIP3   OH222767   2.254   5.827  10.881  0.1237 -0.1233 -0.2462
  451TIP3    H122768   2.237   5.861  10.793 -0.4600  1.3322  0.4044
  451TIP3    H222769   2.172   5.783  10.906 -0.2373  0.7500  0.1343
  452TIP3   OH222770   0.496   1.219  13.945  0.2037  0.3910 -0.6472
  452TIP3    H122771   0.424   1.228  13.883  0.0780  0.7282 -0.4581
  452TIP3    H222772   0.489   1.129  13.977  0.5191  0.0863 -1.4189
  453TIP3   OH222773   3.593   1.678   5.031 -0.1302  0.2753  0.5352
  453TIP3    H122774   3.619   1.689   5.123 -1.6524  0.8181  0.9360
  453TIP3    H222775   3.581   1.584   5.021  0.6499  0.1484  0.7058
  454TIP3   OH222776   6.697   3.377   2.485  0.1713 -0.0769  0.4075
  454TIP3    H122777   6.715   3.464   2.520  0.3272 -0.3625  1.0513
  454TIP3    H222778   6.751   3.371   2.407  0.3026  0.3343  0.4634
  455TIP3   OH222779   4.667   2.556   1.676  0.0161 -0.0178  0.8753
  455TIP3    H122780   4.727   2.595   1.612  0.5057 -0.5307  1.0068
  455TIP3    H222781   4.622   2.630   1.715 -0.2249  0.3129 -0.0017
  456TIP3   OH222782   2.659   4.515  16.866  0.2310 -0.3146 -0.3292
  456TIP3    H122783   2.670   4.490  16.958 -0.5557 -0.6101 -0.3101
  456TIP3    H222784   2.573   4.481  16.842  0.4665 -0.3095 -1.2016
  457TIP3   OH222785   4.632   2.399   6.349 -0.4057 -0.1123 -0.2334
  457TIP3    H122786   4.553   2.345   6.358  0.0916 -0.7995  0.1142
  457TIP3    H222787   4.639   2.415   6.255 -0.5154 -0.7384 -0.3572
  458TIP3   OH222788   3.577   4.784   3.873  0.0457  0.0205 -0.2416
  458TIP3    H122789   3.564   4.692   3.853  1.9674 -0.1402 -0.8962
  458TIP3    H222790   3.629   4.785   3.953 -0.7833  0.5737  0.3101
  459TIP3   OH222791   1.401   1.909  16.519 -0.1021 -0.3216  0.5628
  459TIP3    H122792   1.364   1.943  16.601 -1.4829  2.3028 -1.0301
  459TIP3    H222793   1.487   1.950  16.513  0.0669 -0.6408  0.7337
  460TIP3   OH222794   5.955   0.303   5.978  0.3439 -0.2801  0.1138
  460TIP3    H122795   6.029   0.263   5.932  0.3065 -1.6206  1.1418
  460TIP3    H222796   5.991   0.381   6.020  0.4949  0.6796 -1.6948
  461TIP3   OH222797   3.709   1.020  11.785 -0.4353 -0.1393 -0.0296
  461TIP3    H122798   3.701   0.955  11.715 -1.8613 -0.3631  0.3002
  461TIP3    H222799   3.773   1.083  11.752 -1.2149 -0.1292 -1.6454
  462TIP3   OH222800   3.503   3.073  11.985 -1.0521 -1.1210 -0.7143
  462TIP3    H122801   3.416   3.037  12.003  0.2030 -3.3975  1.4330
  462TIP3    H222802   3.559   2.996  11.975  1.0595  0.2574 -0.1585
  463TIP3   OH222803   1.556   6.512   4.608 -0.1724 -0.0219 -0.3866
  463TIP3    H122804   1.548   6.512   4.704 -0.2323 -0.1408 -0.3917
  463TIP3    H222805   1.466   6.523   4.577  0.0279  1.8796 -0.4129
  464TIP3   OH222806   2.316   0.387  14.945 -0.7601  0.1133 -0.0056
  464TIP3    H122807   2.276   0.335  15.015 -1.5405  0.9402  0.1858
  464TIP3    H222808   2.305   0.333  14.867 -0.2069 -0.6627  0.4397
  465TIP3   OH222809   4.884   2.272  15.289  0.3505  0.3374  0.7741
  465TIP3    H122810   4.944   2.223  15.345  1.8485  1.5976  0.3331
  465TIP3    H222811   4.838   2.331  15.349  0.1977  0.0158  0.9812
  466TIP3   OH222812   0.110   0.270  13.932 -0.6455 -0.0383  0.0885
  466TIP3    H122813   0.048   0.321  13.879 -0.8941 -1.0717 -0.6548
  466TIP3    H222814   0.193   0.315  13.922 -1.1095  0.9355  0.4738
  467TIP3   OH222815   3.523   0.084   5.715 -0.1442 -0.5841  0.3830
  467TIP3    H122816   3.585   0.149   5.749 -0.4863  0.4320 -0.8526
  467TIP3    H222817   3.530   0.092   5.620 -1.0625 -1.5365  0.2167
  468TIP3   OH222818   3.327   4.419  12.506 -0.0826 -0.3641  0.3770
  468TIP3    H122819   3.368   4.385  12.585 -0.0721 -0.7810  0.1946
  468TIP3    H222820   3.398   4.461  12.458 -0.3032  0.9108  1.1268
  469TIP3   OH222821   6.084   6.343  11.110 -0.2511 -0.1622 -0.0735
  469TIP3    H122822   6.040   6.331  11.026 -0.5322  0.4359 -0.0162
  469TIP3    H222823   6.106   6.254  11.138 -0.5987 -0.4017 -0.5415
  470TIP3   OH222824   2.873   0.958  11.055  0.1930 -0.1790 -0.8247
  470TIP3    H122825   2.910   0.926  10.973 -0.0484  0.2336 -1.0974
  470TIP3    H222826   2.794   1.005  11.029 -0.2542 -0.6213 -0.2939
  471TIP3   OH222827   4.023   6.661   5.340 -0.5071  0.0922  0.0817
  471TIP3    H122828   4.082   6.657   5.264 -0.8211 -0.3500 -0.1465
  471TIP3    H222829   3.956   6.595   5.321 -1.2042  0.7492  0.2347
  472TIP3   OH222830   4.420   6.166  14.068  0.0765  0.2266 -0.0527
  472TIP3    H122831   4.511   6.195  14.075  1.2978 -3.2589  0.8309
  472TIP3    H222832   4.410   6.141  13.976 -0.5637  2.0516 -0.5154
  473TIP3   OH222833   0.882   4.633  11.429 -0.0568 -0.1502 -0.5778
  473TIP3    H122834   0.948   4.691  11.467 -0.0195 -1.0386  0.8195
  473TIP3    H222835   0.932   4.557  11.398 -0.1677  0.2744 -1.8150
  474TIP3   OH222836   5.444   2.350  12.380  0.0257 -0.1698  0.3146
  474TIP3    H122837   5.505   2.418  12.412 -0.1789 -0.0279  0.4045
  474TIP3    H222838   5.357   2.388  12.392 -0.1207 -0.6920  0.9323
  475TIP3   OH222839   1.242   3.914  12.988 -0.4035 -0.6486 -0.0771
  475TIP3    H122840   1.337   3.913  12.979 -0.5269  0.2054 -1.9259
  475TIP3    H222841   1.215   4.000  12.955 -1.9070 -1.4089 -0.9682
  476TIP3   OH222842   5.293   0.002  11.951  0.3157 -0.0721 -0.2246
  476TIP3    H122843   5.202   0.016  11.924  0.3790 -0.5223 -0.6754
  476TIP3    H222844   5.311  -0.090  11.932  0.3359 -0.4464  1.4589
  477TIP3   OH222845   4.100   5.755  15.239 -0.4245  0.5418 -0.2444
  477TIP3    H122846   4.010   5.723  15.238  0.5014 -2.3054 -0.0804
  477TIP3    H222847   4.098   5.833  15.183 -2.9610  0.5322 -0.2726
  478TIP3   OH222848   5.844   3.874  12.144 -0.2707 -0.5892 -0.2087
  478TIP3    H122849   5.845   3.964  12.176 -0.3640 -0.2760 -1.0468
  478TIP3    H222850   5.831   3.821  12.222 -0.2707  0.1264  0.2934
  479TIP3   OH222851   1.809   3.770  15.917 -0.3253 -0.4478 -0.1182
  479TIP3    H122852   1.816   3.719  15.998  2.3154  1.8220  1.2946
  479TIP3    H222853   1.892   3.754  15.872  0.0878  1.5910 -0.1794
  480TIP3   OH222854   2.483   6.232  12.828  0.3614  0.3751 -0.1562
  480TIP3    H122855   2.434   6.297  12.878 -1.5412 -0.6003 -0.6899
  480TIP3    H222856   2.537   6.187  12.893 -0.4894  0.5423  0.6862
  481TIP3   OH222857   2.704   4.028  14.431 -0.2764 -0.6235 -0.3142
  481TIP3    H122858   2.703   4.081  14.511 -1.3380  0.7958 -1.2065
  481TIP3    H222859   2.633   3.965  14.443  1.1843 -2.1423  0.8810
  482TIP3   OH222860   4.454   0.782   2.612 -0.1318 -0.1114 -0.0967
  482TIP3    H122861   4.479   0.778   2.520  0.2840  1.1645 -0.0690
  482TIP3    H222862   4.537   0.775   2.660  0.0424  2.1472  0.0539
  483TIP3   OH222863   3.916   0.135  15.917 -0.2818  0.1469  0.0419
  483TIP3    H122864   3.881   0.185  15.990  0.2678  0.5072  0.0623
  483TIP3    H222865   3.841   0.122  15.858 -0.1258  2.2971 -0.7109
  484TIP3   OH222866   2.061   3.001  14.505 -0.2310  0.8059 -0.1221
  484TIP3    H122867   2.065   3.090  14.471  0.3702  0.7835 -0.1198
  484TIP3    H222868   2.123   2.952  14.451 -0.0983  0.5253  0.2807
  485TIP3   OH222869   0.866   5.924  13.491 -0.5144  0.2513  0.3239
  485TIP3    H122870   0.928   5.856  13.518 -0.8137  0.7068  2.3461
  485TIP3    H222871   0.809   5.882  13.427  2.6988  0.1906 -2.8409
  486TIP3   OH222872   1.118   2.858  16.474 -0.4160  0.8860  0.4191
  486TIP3    H122873   1.096   2.852  16.381  0.1212  0.2735  0.3227
  486TIP3    H222874   1.045   2.814  16.519 -0.6431  1.1227  0.2797
  487TIP3   OH222875   0.307   5.591   3.696 -0.1601  0.1659 -0.0836
  487TIP3    H122876   0.300   5.641   3.614 -0.5795 -2.9670 -2.1067
  487TIP3    H222877   0.391   5.617   3.733  1.6935 -0.7311 -3.3067
  488TIP3   OH222878   6.592   3.824   4.763  0.1492  0.3549  0.3570
  488TIP3    H122879   6.591   3.920   4.771  0.2075  0.3130  0.9188
  488TIP3    H222880   6.534   3.805   4.690 -2.2204  0.6522  2.0527
  489TIP3   OH222881   6.092   0.931   4.414  0.1520  0.2082 -0.1113
  489TIP3    H122882   6.153   0.943   4.487 -2.0658  0.1490  1.8452
  489TIP3    H222883   6.112   1.003   4.354  1.3175  0.8830  1.0323
  490TIP3   OH222884   2.012   5.469   5.356  0.1791  0.0123 -0.3276
  490TIP3    H122885   2.074   5.541   5.365  0.5973 -0.1389 -1.7561
  490TIP3    H222886   1.989   5.468   5.263  0.1722 -1.6668 -0.3503
  491TIP3   OH222887   5.709   0.995   1.553 -0.0587  0.4076 -0.4455
  491TIP3    H122888   5.627   0.960   1.517 -0.6663  2.1863 -0.8956
  491TIP3    H222889   5.755   0.918   1.587 -1.2661 -0.8177 -1.4618
  492TIP3   OH222890   3.870   2.569  12.974 -0.0774 -0.2749  0.4936
  492TIP3    H122891   3.919   2.490  12.998  1.8222  1.2649  2.0260
  492TIP3    H222892   3.899   2.590  12.886  1.1106 -0.0963  0.9096
  493TIP3   OH222893   2.872   4.041  13.191  0.6097 -0.0836  0.1496
  493TIP3    H122894   2.956   4.082  13.209  0.3273  0.9699 -0.8042
  493TIP3    H222895   2.809   4.114  13.192 -0.2582 -0.8095  0.5658
  494TIP3   OH222896   2.951   4.456   1.789 -0.3122 -0.3384 -0.0999
  494TIP3    H122897   2.860   4.439   1.763 -0.0777  0.3449 -1.4857
  494TIP3    H222898   2.980   4.375   1.830 -1.0262 -1.1671 -1.1796
  495TIP3   OH222899   3.736   0.555  15.813 -0.1720  0.8327 -0.1112
  495TIP3    H122900   3.669   0.581  15.876 -0.5441 -0.0600 -0.1232
  495TIP3    H222901   3.795   0.629  15.809  0.1602  0.7023  1.6989
  496TIP3   OH222902   2.583   2.731  13.799 -0.0252  0.0978 -0.1886
  496TIP3    H122903   2.614   2.683  13.722  0.5017 -2.6722  1.6447
  496TIP3    H222904   2.525   2.798  13.763  0.8663 -0.5095 -3.0392
  497TIP3   OH222905   0.298   4.926   2.980  0.1141  0.2866 -0.4988
  497TIP3    H122906   0.255   4.996   2.930 -1.0698 -0.2495 -0.2835
  497TIP3    H222907   0.313   4.857   2.916  0.3714  0.3578 -0.5130
  498TIP3   OH222908   6.145   4.183  15.649 -0.2048  0.1784 -0.0729
  498TIP3    H122909   6.191   4.139  15.577 -0.3446  0.7942 -0.5456
  498TIP3    H222910   6.216   4.221  15.702 -0.1441  1.5892 -1.0956
  499TIP3   OH222911   5.172   6.554  16.440  0.1477 -0.3128  0.3042
  499TIP3    H122912   5.244   6.543  16.378  1.2014  0.9111  1.2600
  499TIP3    H222913   5.210   6.533  16.525 -0.9443 -0.7622  0.7091
  500TIP3   OH222914   4.640   3.891   1.219 -0.2628 -0.3834 -0.1760
  500TIP3    H122915   4.684   3.845   1.290 -0.5660  1.1473  1.0711
  500TIP3    H222916   4.552   3.909   1.252 -0.6500 -0.2552 -1.2145
  501TIP3   OH222917   3.233   5.842   0.199 -0.0058 -0.2899  0.0537
  501TIP3    H122918   3.246   5.929   0.160 -0.1433  0.7176  2.1448
  501TIP3    H222919   3.139   5.835   0.213 -0.1594 -1.3650 -1.2989
  502TIP3   OH222920   5.550   2.391   6.497  0.1334 -0.1114 -0.2569
  502TIP3    H122921   5.528   2.299   6.481 -0.5796  0.0785 -0.3600
  502TIP3    H222922   5.508   2.411   6.580 -1.2454  0.6349 -1.1059
  503TIP3   OH222923   1.485   5.520   6.276  0.4317 -0.1334 -0.0347
  503TIP3    H122924   1.429   5.449   6.244  1.3762 -0.6644 -0.5381
  503TIP3    H222925   1.462   5.527   6.369 -1.2846  0.4437 -0.4783
  504TIP3   OH222926   2.858   2.890   3.609 -0.1498  0.6478  0.2112
  504TIP3    H122927   2.781   2.837   3.590 -0.5465  1.3192 -0.0897
  504TIP3    H222928   2.914   2.834   3.662 -0.2267 -0.3358 -0.7191
  505TIP3   OH222929   4.185   1.743   5.674 -0.5331 -0.4042 -0.3836
  505TIP3    H122930   4.195   1.806   5.746  0.9637 -0.7200 -0.2753
  505TIP3    H222931   4.262   1.757   5.619 -1.7419 -0.0287 -2.0844
  506TIP3   OH222932   3.914   2.760  15.981  0.5703  0.5250  0.1942
  506TIP3    H122933   3.983   2.807  16.027  1.4127  0.7456 -1.2331
  506TIP3    H222934   3.937   2.667  15.990  0.7437  0.5674  0.1866
  507TIP3   OH222935   0.154   6.615  14.630  0.3545  0.1748  0.5112
  507TIP3    H122936   0.120   6.697  14.665  0.2564 -0.2548  1.4533
  507TIP3    H222937   0.227   6.641  14.573  1.4275  0.8412  2.1026
  508TIP3   OH222938   0.512   1.691  16.651  0.3212  0.1941 -0.3889
  508TIP3    H122939   0.528   1.638  16.573  0.2491 -0.6900  0.1879
  508TIP3    H222940   0.575   1.658  16.716 -0.0352  0.5034  0.1204
  509TIP3   OH222941   1.804   6.056   0.880 -0.5029 -0.3651 -0.9398
  509TIP3    H122942   1.794   6.115   0.955 -1.3031 -1.0184 -0.5214
  509TIP3    H222943   1.888   6.012   0.895  0.4748  1.1801 -1.6396
  510TIP3   OH222944   6.255   5.548  14.556 -0.0485  0.4771  0.1354
  510TIP3    H122945   6.320   5.477  14.560 -1.6733 -1.1183 -0.6381
  510TIP3    H222946   6.298   5.621  14.601  1.4837 -1.1507  1.5046
  511TIP3   OH222947   5.139   1.240   6.396  0.0232 -0.0148  0.0510
  511TIP3    H122948   5.167   1.320   6.441  3.1603 -1.2254  0.5546
  511TIP3    H222949   5.124   1.177   6.466  0.0961 -0.5515 -0.4071
  512TIP3   OH222950   6.053   0.969   3.118 -0.1462  0.1321  0.7728
  512TIP3    H122951   6.086   1.052   3.151 -0.6879  0.8104 -0.3425
  512TIP3    H222952   6.015   0.990   3.032 -2.1515 -0.8619  1.3432
  513TIP3   OH222953   0.714   5.894  15.615 -0.4556 -0.0687 -0.6591
  513TIP3    H122954   0.685   5.819  15.564 -2.0822  0.4183 -0.5030
  513TIP3    H222955   0.698   5.969  15.557 -0.8167  0.3363 -0.0428
  514TIP3   OH222956   5.098   5.667   4.007  0.2143  0.1131 -0.1877
  514TIP3    H122957   5.140   5.591   4.049  0.3230  0.2708 -0.0062
  514TIP3    H222958   5.006   5.642   3.998  0.1142  0.2131  0.4821
  515TIP3   OH222959   5.757   3.917   2.982  0.9508 -0.1420  0.2842
  515TIP3    H122960   5.848   3.948   2.978  0.6366  0.6947 -0.8973
  515TIP3    H222961   5.707   3.986   2.938 -0.0611 -1.3072 -0.4180
  516TIP3   OH222962   3.002   6.352  12.197  0.3991 -0.6222 -0.2286
  516TIP3    H122963   2.917   6.323  12.229 -0.0381  0.6322 -0.2080
  516TIP3    H222964   3.003   6.446  12.213  1.3401 -0.4377 -1.2385
  517TIP3   OH222965   0.943   4.447  14.998 -0.1253 -0.3010  0.3753
  517TIP3    H122966   0.897   4.475  14.919 -0.3322 -0.8427  0.2939
  517TIP3    H222967   0.936   4.351  14.996  0.7238 -0.3684  0.5352
  518TIP3   OH222968   1.604   3.948  12.288 -0.3414  0.5602  0.1917
  518TIP3    H122969   1.561   3.927  12.371 -2.4180  2.0013 -0.4091
  518TIP3    H222970   1.590   4.042  12.278 -2.1782  0.1104 -2.7849
  519TIP3   OH222971   3.767   3.446   5.065 -0.2297 -0.1133 -0.4544
  519TIP3    H122972   3.808   3.529   5.041 -0.6980 -0.1892 -1.5786
  519TIP3    H222973   3.780   3.390   4.988 -2.3840 -0.1478 -0.8447
  520TIP3   OH222974   2.555   1.279  17.147 -0.8011  0.3018  0.2088
  520TIP3    H122975   2.606   1.233  17.080  0.1972 -0.6165  1.5472
  520TIP3    H222976   2.467   1.287  17.109 -0.3919 -0.6426 -0.9979
  521TIP3   OH222977   1.100   5.329  12.759 -0.1797 -0.4525  0.2875
  521TIP3    H122978   1.050   5.252  12.731 -1.5400  0.4886  0.0542
  521TIP3    H222979   1.112   5.380  12.679  0.7367 -0.4235  0.4377
  522TIP3   OH222980   5.405   3.648   0.650 -0.7886 -0.3349  0.3425
  522TIP3    H122981   5.387   3.611   0.563 -0.1629 -0.6821  0.3524
  522TIP3    H222982   5.464   3.584   0.691 -0.8432 -0.0234  0.9067
  523TIP3   OH222983   0.644   2.326  10.472 -0.0966  0.1837  0.1003
  523TIP3    H122984   0.713   2.262  10.489  1.6095  1.3426 -1.9566
  523TIP3    H222985   0.680   2.409  10.502 -1.1207  0.6308  0.1448
  524TIP3   OH222986   3.566   5.044   2.403 -0.5142 -0.1408  0.3247
  524TIP3    H122987   3.627   5.073   2.470 -1.1131  1.5274  0.2138
  524TIP3    H222988   3.536   4.958   2.432  0.8738 -0.4149  1.0341
  525TIP3   OH222989   6.575   4.061  10.656 -0.0777 -0.1079  0.1133
  525TIP3    H122990   6.667   4.035  10.659  0.3367  1.3584  1.8003
  525TIP3    H222991   6.541   4.038  10.742 -1.1361 -0.0215 -0.2678
  526TIP3   OH222992   5.496   6.693  15.055 -0.1530  0.4776  0.0789
  526TIP3    H122993   5.557   6.767  15.053 -0.6586  0.9472  1.3543
  526TIP3    H222994   5.414   6.730  15.088 -0.5699 -0.5558  0.2479
  527TIP3   OH222995   1.161   6.018   2.571 -0.1151  0.0969  0.0539
  527TIP3    H122996   1.203   6.017   2.656 -0.6522  0.4753  0.3298
  527TIP3    H222997   1.139   6.110   2.556  0.3693  0.1042 -0.6951
  528TIP3   OH222998   6.025   5.455   5.940 -0.3635  0.1475 -0.0622
  528TIP3    H122999   5.968   5.388   5.979 -0.7787  1.4154  1.5853
  528TIP3    H223000   6.100   5.461   6.000  0.0947  0.5618 -0.6682
  529TIP3   OH223001   4.257   3.692  14.391  0.6285 -0.3358 -0.4556
  529TIP3    H123002   4.295   3.666  14.475  0.5384  3.4186  0.9624
  529TIP3    H223003   4.179   3.639  14.382  1.3339 -1.7306  1.1769
  530TIP3   OH223004   5.117   3.713   4.625  0.6784 -0.1957 -0.4065
  530TIP3    H123005   5.072   3.705   4.541 -1.0080 -0.5705  0.4753
  530TIP3    H223006   5.051   3.750   4.684  2.0729  0.8554  0.5778
  531TIP3   OH223007   3.800   1.247  17.101  0.3444 -0.0340 -0.1514
  531TIP3    H123008   3.869   1.310  17.080  1.5885 -1.1602  0.4175
  531TIP3    H223009   3.762   1.280  17.183  0.5748  0.3077 -0.1803
  532TIP3   OH223010   2.346   5.653  13.238 -0.4222 -0.1156  1.1602
  532TIP3    H123011   2.304   5.627  13.319 -1.1697  2.2061  1.5963
  532TIP3    H223012   2.334   5.579  13.179  0.0141 -1.7850  3.0854
  533TIP3   OH223013   4.319   2.356  12.276 -0.3257 -0.1217  0.6894
  533TIP3    H123014   4.249   2.297  12.304  0.2966 -0.9671  0.4867
  533TIP3    H223015   4.348   2.398  12.357 -2.3567  1.7136  0.5432
  534TIP3   OH223016   0.682   3.172  13.200  0.2758  0.5594 -0.1431
  534TIP3    H123017   0.631   3.242  13.159  0.0985 -0.1175 -1.1027
  534TIP3    H223018   0.769   3.181  13.162 -0.3328 -1.1696 -2.0745
  535TIP3   OH223019   1.089   1.334  15.251 -0.0627 -0.0992 -0.3415
  535TIP3    H123020   1.125   1.366  15.168  0.2113  0.8957  0.1492
  535TIP3    H223021   1.164   1.328  15.310 -0.4420  0.5220  0.2326
  536TIP3   OH223022   0.978   3.963  14.423  0.5371 -0.3528 -0.2282
  536TIP3    H123023   0.916   3.890  14.423 -0.0942  0.1865 -0.1777
  536TIP3    H223024   1.055   3.928  14.469 -0.4322 -0.4125  1.4260
  537TIP3   OH223025   3.748   6.467   5.283 -0.1199  0.6096 -0.1087
  537TIP3    H123026   3.723   6.374   5.284  1.9420 -0.0195  0.7649
  537TIP3    H223027   3.725   6.498   5.371  2.1175 -0.0411  0.7914
  538TIP3   OH223028   5.582   3.896  12.409 -0.4550  0.0700  0.1939
  538TIP3    H123029   5.596   3.809  12.372  0.0381  1.0944 -2.2161
  538TIP3    H223030   5.562   3.880  12.501 -1.3398 -2.6437 -0.3795
  539TIP3   OH223031   1.300   1.176   5.401 -0.1199 -0.5308  0.7178
  539TIP3    H123032   1.248   1.096   5.392  0.9312 -1.0523 -1.2855
  539TIP3    H223033   1.316   1.205   5.311  0.3136  1.4339  1.3774
  540TIP3   OH223034   3.889   4.740  11.601  0.4482 -0.0489  0.3674
  540TIP3    H123035   3.976   4.780  11.598 -0.2632  1.5674 -0.1255
  540TIP3    H223036   3.863   4.748  11.693  1.2883 -1.6653  0.7714
  541TIP3   OH223037   1.577   6.470  16.202 -0.4842 -0.2758 -0.0108
  541TIP3    H123038   1.484   6.448  16.209 -1.0564  2.1829  1.0346
  541TIP3    H223039   1.598   6.453  16.110 -1.6056 -2.0155  0.0081
  542TIP3   OH223040   3.867   2.995   2.450 -0.3076  0.2275  0.1513
  542TIP3    H123041   3.788   3.047   2.466 -0.3266 -0.1240  1.2410
  542TIP3    H223042   3.864   2.925   2.515  2.0562  1.5198  1.7955
  543TIP3   OH223043   2.062   4.851  11.624 -0.5128 -0.3082 -0.8486
  543TIP3    H123044   2.138   4.909  11.630 -0.3437 -0.5204 -0.9334
  543TIP3    H223045   2.042   4.846  11.531 -0.2747 -0.7097 -0.8818
  544TIP3   OH223046   3.165   3.706  14.905 -0.3671 -0.8676  0.5601
  544TIP3    H123047   3.223   3.634  14.880 -0.4758 -0.9835  0.6355
  544TIP3    H223048   3.140   3.747  14.823  0.2920 -0.4418  0.5627
  545TIP3   OH223049   0.700   3.136  15.201  1.0921  0.1959  0.3455
  545TIP3    H123050   0.693   3.049  15.241  0.6382  0.2454  0.3783
  545TIP3    H223051   0.624   3.142  15.143  1.5056  0.2997 -0.1829
  546TIP3   OH223052   4.791   1.251   2.850 -0.1606 -0.1521 -0.3882
  546TIP3    H123053   4.726   1.302   2.898 -1.2826 -1.4469 -0.4797
  546TIP3    H223054   4.873   1.268   2.895 -0.8388  0.2720  0.7156
  547TIP3   OH223055   6.766   1.111   0.308  0.1657 -1.0038  0.0510
  547TIP3    H123056   6.820   1.191   0.312 -1.4156  0.3912 -3.3100
  547TIP3    H223057   6.684   1.136   0.350  0.9588 -2.2383  2.5593
  548TIP3   OH223058   3.763   3.355  14.203  0.2486  0.1957 -0.2174
  548TIP3    H123059   3.750   3.448  14.221 -0.6970 -0.0017  0.1667
  548TIP3    H223060   3.695   3.311  14.254  1.0573 -0.7495  0.0671
  549TIP3   OH223061   2.873   4.076  17.204  0.5803  0.0076  0.2166
  549TIP3    H123062   2.778   4.068  17.192  0.8669  0.0560 -3.2393
  549TIP3    H223063   2.910   4.020  17.136  2.9867  1.4954  0.1788
  550TIP3   OH223064   1.650   1.420   4.913 -0.6040  0.5930  0.4686
  550TIP3    H123065   1.703   1.434   4.835  0.0208 -0.6941  0.6424
  550TIP3    H223066   1.713   1.397   4.981 -1.4108 -2.5767  0.3054
  551TIP3   OH223067   6.484   6.575  14.754  0.0983  0.3158  0.4500
  551TIP3    H123068   6.391   6.553  14.745  0.3239 -0.5608  0.1781
  551TIP3    H223069   6.510   6.605  14.667 -0.1191  1.3462  0.7294
  552TIP3   OH223070   1.212   6.698  16.615  0.3430  0.6459  0.0847
  552TIP3    H123071   1.248   6.737  16.694  0.1399  1.5343 -0.2572
  552TIP3    H223072   1.220   6.766  16.548 -1.0514  0.5082 -0.2412
  553TIP3   OH223073   1.428   2.414  15.161 -0.7231 -0.1683  0.1894
  553TIP3    H123074   1.488   2.448  15.094 -1.0756  4.9774  2.0184
  553TIP3    H223075   1.354   2.379  15.112  0.3607  0.5328 -2.0833
  554TIP3   OH223076   3.182   1.724  17.274  0.5313  0.1633  0.2502
  554TIP3    H123077   3.183   1.629  17.282 -0.2352  0.1737  0.5463
  554TIP3    H223078   3.245   1.754  17.339 -1.0515 -0.0432  1.9662
  555TIP3   OH223079   5.669   0.056   4.538 -0.0572  0.6010 -0.8202
  555TIP3    H123080   5.691   0.103   4.458 -1.8409  1.3163 -0.9370
  555TIP3    H223081   5.573   0.062   4.544 -0.0845 -0.6551  0.6228
  556TIP3   OH223082   2.946   6.733  12.001 -0.3842 -0.1190  0.9299
  556TIP3    H123083   2.975   6.710  12.089 -0.8721  0.3670  1.2233
  556TIP3    H223084   3.009   6.798  11.971 -1.6098  1.6111  1.9153
  557TIP3   OH223085   1.117   0.455   2.868  0.1312  0.3336 -0.4127
  557TIP3    H123086   1.041   0.486   2.818 -0.2934  0.4551  0.2992
  557TIP3    H223087   1.087   0.374   2.910 -0.3865  1.5661  1.7340
  558TIP3   OH223088   1.412   2.431   6.574  0.4618 -0.2665  0.5372
  558TIP3    H123089   1.407   2.512   6.626  0.2838 -0.6167  1.0709
  558TIP3    H223090   1.321   2.405   6.562  0.4950 -0.0888 -0.1091
  559TIP3   OH223091   2.913   1.823   3.305  0.5127 -0.2948 -0.0916
  559TIP3    H123092   2.908   1.732   3.336  1.6810 -0.2891  0.1521
  559TIP3    H223093   2.836   1.833   3.250 -0.7627 -0.8164  1.5039
  560TIP3   OH223094   0.629   0.172  15.635  0.4534  0.0564 -0.0223
  560TIP3    H123095   0.599   0.224  15.709 -1.1244  0.7768 -1.1204
  560TIP3    H223096   0.583   0.088  15.644 -0.0120  0.2730 -0.3779
  561TIP3   OH223097   5.625   1.803  10.795 -0.2269 -0.2350 -0.9443
  561TIP3    H123098   5.633   1.897  10.812  0.2101 -0.1714 -1.4763
  561TIP3    H223099   5.540   1.792  10.754  0.1504  0.0784 -1.8386
  562TIP3   OH223100   2.581   2.037  15.057  0.5227 -0.2797  0.1822
  562TIP3    H123101   2.653   2.099  15.049  0.0691  0.3169  0.6604
  562TIP3    H223102   2.525   2.073  15.126  0.0449 -1.0110  0.1903
  563TIP3   OH223103   0.076   4.173  11.442  0.1550 -0.3350 -0.2227
  563TIP3    H123104   0.073   4.200  11.533 -4.4408 -1.9824  0.4175
  563TIP3    H223105   0.016   4.233  11.397  1.0021 -0.6008 -1.7879
  564TIP3   OH223106   5.167   5.879   0.694  0.1216  0.1890 -0.0685
  564TIP3    H123107   5.135   5.869   0.783 -0.6742 -0.8175 -0.4368
  564TIP3    H223108   5.260   5.857   0.698 -0.1229 -0.8119  0.3538
  565TIP3   OH223109   6.611   1.440  11.399 -0.2181  0.3303  0.2218
  565TIP3    H123110   6.657   1.522  11.382  0.9131 -0.3830 -0.2475
  565TIP3    H223111   6.519   1.466  11.408  0.4213  2.0371  2.9652
  566TIP3   OH223112   2.157   5.805  15.382 -0.1041 -0.2890 -0.2809
  566TIP3    H123113   2.132   5.794  15.474 -0.2989  0.8991 -0.1722
  566TIP3    H223114   2.166   5.716  15.348  1.1130 -0.7605  1.1921
  567TIP3   OH223115   5.893   3.858   1.791 -0.0252 -0.4848 -0.1021
  567TIP3    H123116   5.945   3.782   1.818  0.1333 -0.1542  0.5449
  567TIP3    H223117   5.866   3.899   1.873 -2.8868 -1.6674 -0.3355
  568TIP3   OH223118   2.360   0.470  11.580 -0.4121 -0.4500 -0.0948
  568TIP3    H123119   2.450   0.436  11.575 -0.1901  0.0906  0.1154
  568TIP3    H223120   2.309   0.398  11.616  0.5719  0.3517  3.2090
  569TIP3   OH223121   4.173   6.339   0.163  0.3996 -0.0742  0.1034
  569TIP3    H123122   4.183   6.414   0.103 -2.1934 -0.3985 -0.8663
  569TIP3    H223123   4.223   6.364   0.240  2.3117  1.2034 -1.4385
  570TIP3   OH223124   3.059   5.061   0.273  0.0745 -0.1593  0.4287
  570TIP3    H123125   3.070   5.125   0.202 -0.8372  0.5783  0.9266
  570TIP3    H223126   3.091   4.979   0.237  0.3005  0.3600 -0.5892
  571TIP3   OH223127   0.868   1.567   3.457 -0.1137  0.0342  0.0756
  571TIP3    H123128   0.852   1.658   3.431  0.5936 -0.4495 -2.2925
  571TIP3    H223129   0.931   1.535   3.393 -2.4480 -2.9483 -0.9399
  572TIP3   OH223130   2.096   3.297   5.962 -0.0657 -0.0696 -0.2900
  572TIP3    H123131   2.022   3.288   6.023  1.5591  0.0207  1.7987
  572TIP3    H223132   2.112   3.391   5.958 -0.4404 -0.0386 -1.2456
  573TIP3   OH223133   6.264   1.082  16.306 -0.2205 -0.3376 -0.1893
  573TIP3    H123134   6.320   1.140  16.254 -0.9242 -1.2204 -2.0285
  573TIP3    H223135   6.197   1.053  16.245 -0.8334 -1.8143  1.1143
  574TIP3   OH223136   4.504   6.172   2.315 -0.1928  0.5488 -0.5922
  574TIP3    H123137   4.590   6.134   2.334 -0.9399 -0.9411  0.0067
  574TIP3    H223138   4.508   6.261   2.350  1.1099  0.5092 -0.6161
  575TIP3   OH223139   4.424   4.568  15.065 -0.0175  0.0303 -0.5073
  575TIP3    H123140   4.450   4.567  14.973  0.2225 -1.9669 -0.4645
  575TIP3    H223141   4.502   4.598  15.112  1.0441 -2.2059 -0.7127
  576TIP3   OH223142   2.235   2.948  16.074 -0.4671 -0.8112 -0.0511
  576TIP3    H123143   2.263   2.867  16.033 -1.0198 -0.6545 -0.7664
  576TIP3    H223144   2.283   3.017  16.027 -0.4287 -0.6819  0.1721
  577TIP3   OH223145   2.221   5.613   1.457 -0.5940 -0.2186  0.3591
  577TIP3    H123146   2.270   5.599   1.538  0.7699  0.1251 -0.3904
  577TIP3    H223147   2.132   5.633   1.487  0.1299  1.0386  1.8156
  578TIP3   OH223148   5.569   2.401   0.187 -0.2379 -0.1803  0.5315
  578TIP3    H123149   5.657   2.380   0.219 -0.6009 -3.6970 -0.3755
  578TIP3    H223150   5.511   2.372   0.257 -0.7685  0.3199  0.3058
  579TIP3   OH223151   0.982   0.713  11.787  0.8865  0.3603 -0.0406
  579TIP3    H123152   1.009   0.796  11.748 -0.9048  1.9830  1.9040
  579TIP3    H223153   0.907   0.685  11.734 -0.2251  1.4774  0.8591
  580TIP3   OH223154   5.574   1.418  13.821  0.5752  0.1639  0.1024
  580TIP3    H123155   5.608   1.459  13.900 -0.2109  1.3400 -0.1448
  580TIP3    H223156   5.612   1.330  13.821 -0.5741 -0.4227  2.5915
  581TIP3   OH223157   4.408   1.985   4.835 -0.3723 -0.0823 -0.2793
  581TIP3    H123158   4.316   1.999   4.857 -1.1836 -2.1900 -1.9715
  581TIP3    H223159   4.408   1.907   4.781  1.9664  1.8448 -3.4466
  582TIP3   OH223160   1.083   0.134   0.968 -0.2919  0.4141 -0.0334
  582TIP3    H123161   1.159   0.083   0.997 -0.6682 -2.3530 -3.1865
  582TIP3    H223162   1.009   0.095   1.014 -0.4680 -1.6025 -1.8192
  583TIP3   OH223163   2.678   5.657  14.758 -0.3405  0.3830 -0.3088
  583TIP3    H123164   2.652   5.742  14.722  0.2126  1.2812  1.2636
  583TIP3    H223165   2.763   5.675  14.800 -0.9958 -0.5110  1.5045
  584TIP3   OH223166   6.644   1.884  16.939 -0.5963 -0.5544 -0.0265
  584TIP3    H123167   6.637   1.791  16.962  2.5778 -0.5539  1.4623
  584TIP3    H223168   6.716   1.888  16.875 -1.8199  0.7444 -1.3947
  585TIP3   OH223169   4.087   0.014   3.281  0.2717 -0.1060 -0.2718
  585TIP3    H123170   4.153  -0.002   3.214 -0.0896 -0.9135 -0.4501
  585TIP3    H223171   4.115   0.094   3.325  1.6102 -0.6826 -0.0428
  586TIP3   OH223172   5.379   1.550   2.251  0.4972  0.0202  0.1621
  586TIP3    H123173   5.303   1.594   2.290 -0.0929 -2.4137  1.9933
  586TIP3    H223174   5.454   1.589   2.296  0.2492  1.1113 -0.3154
  587TIP3   OH223175   2.839   3.762   5.270  0.0599  0.1729 -0.6445
  587TIP3    H123176   2.914   3.821   5.279  0.0182  0.1960 -0.4475
  587TIP3    H223177   2.878   3.675   5.263  0.0635  0.0397  0.8045
  588TIP3   OH223178   1.615   1.681   1.235  0.3856  0.2584  0.0846
  588TIP3    H123179   1.699   1.724   1.249  0.7943 -0.1257 -1.0358
  588TIP3    H223180   1.605   1.622   1.310  1.5303 -0.3054 -0.1802
  589TIP3   OH223181   6.485   6.352  13.416  0.0453 -0.1527  0.2731
  589TIP3    H123182   6.555   6.297  13.449  1.3936  1.3450  0.0382
  589TIP3    H223183   6.482   6.426  13.477 -0.4380  0.4490 -0.4633
  590TIP3   OH223184   2.401   1.163   5.783 -0.1236 -0.4332  0.2830
  590TIP3    H123185   2.319   1.156   5.831 -0.5194 -3.0146 -0.6215
  590TIP3    H223186   2.381   1.223   5.711  0.0028  2.1192  2.2260
  591TIP3   OH223187   0.187   4.320  11.970 -0.0373  0.0416 -0.5846
  591TIP3    H123188   0.107   4.372  11.966 -0.3000 -0.4223 -2.2047
  591TIP3    H223189   0.251   4.378  12.011 -0.8313  0.9260 -0.5482
  592TIP3   OH223190   2.678   1.388  10.955  0.2562  0.0286  0.0818
  592TIP3    H123191   2.671   1.336  10.875  1.6403 -1.0957  0.6547
  592TIP3    H223192   2.760   1.436  10.946 -0.8138  1.8701 -0.2605
  593TIP3   OH223193   2.055   2.830   4.856  0.7625 -0.3295 -0.1433
  593TIP3    H123194   2.054   2.752   4.801  1.0554  1.0937 -2.3252
  593TIP3    H223195   2.137   2.826   4.904 -0.2645 -2.4605  1.5933
  594TIP3   OH223196   5.987   1.545   4.931  0.3211 -0.2335  0.3129
  594TIP3    H123197   5.895   1.564   4.910  0.5423 -0.0478 -0.5215
  594TIP3    H223198   6.004   1.596   5.011 -0.5900 -1.0862  1.0759
  595TIP3   OH223199   0.883   0.110  16.618 -0.0400  0.8895  0.4224
  595TIP3    H123200   0.791   0.130  16.636 -0.1483  1.1510 -0.3672
  595TIP3    H223201   0.930   0.190  16.641 -0.0632  0.9002  0.4333
  596TIP3   OH223202   2.446   2.815  16.937  0.0202 -0.7180  0.0092
  596TIP3    H123203   2.509   2.849  16.874 -0.4809 -0.1868 -0.2117
  596TIP3    H223204   2.497   2.800  17.017  0.3908 -0.1459 -0.1189
  597TIP3   OH223205   2.423   6.517  13.563 -0.1178 -0.3599  0.1622
  597TIP3    H123206   2.409   6.493  13.655 -1.3556 -0.6048 -0.0806
  597TIP3    H223207   2.365   6.459  13.514  1.7676 -1.4234 -0.9310
  598TIP3   OH223208   5.407   3.017   4.947 -0.4509 -0.0244  0.6064
  598TIP3    H123209   5.487   3.039   4.995  0.3183 -1.8973  0.2711
  598TIP3    H223210   5.432   3.023   4.855 -0.5793 -0.9659  0.5021
  599TIP3   OH223211   1.602   3.605  16.983  0.0054  0.2981  0.0341
  599TIP3    H123212   1.575   3.694  16.964 -0.1605  0.2547  0.0682
  599TIP3    H223213   1.520   3.557  16.995  0.0973  0.1758  0.1733
  600TIP3   OH223214   4.183   3.601  16.999 -0.1346  0.4162  0.1131
  600TIP3    H123215   4.274   3.572  16.994 -0.1065  0.5450 -0.1456
  600TIP3    H223216   4.188   3.691  17.030 -0.2355  0.0648  1.1894
  601TIP3   OH223217   6.172   5.869   4.315  0.8177  0.0419 -0.1302
  601TIP3    H123218   6.139   5.795   4.366  3.0200 -0.0598  1.3316
  601TIP3    H223219   6.161   5.945   4.373  1.1490  0.3605 -0.4769
  602TIP3   OH223220   2.969   2.755   3.140 -0.0047 -0.1454  0.1258
  602TIP3    H123221   2.915   2.749   3.061 -1.5070 -0.4020  1.1526
  602TIP3    H223222   2.928   2.823   3.192 -0.4910 -1.6502  1.7815
  603TIP3   OH223223   6.465   0.556   5.721 -0.1929  0.2271  0.0654
  603TIP3    H123224   6.490   0.474   5.680  2.7154  1.5235 -1.0132
  603TIP3    H223225   6.542   0.582   5.773 -1.0224  2.2082  0.4185
  604TIP3   OH223226   2.735   0.151  15.245 -0.2109  0.0210 -0.3902
  604TIP3    H123227   2.668   0.102  15.292 -1.1797  1.8264  0.2288
  604TIP3    H223228   2.756   0.225  15.303  1.8541 -0.1210 -0.8622
  605TIP3   OH223229   3.092   0.528  12.740 -0.0204  1.0487  0.7648
  605TIP3    H123230   3.103   0.563  12.829  0.4339  1.3605  0.5920
  605TIP3    H223231   3.041   0.448  12.752 -2.7727  2.7256  0.9916
  606TIP3   OH223232   0.066   6.151  16.957  0.5926  0.3805  0.2336
  606TIP3    H123233   0.027   6.239  16.956 -0.2005  0.0508  0.9336
  606TIP3    H223234  -0.004   6.094  16.988  1.1873 -0.4676  0.0581
  607TIP3   OH223235   3.148   0.617  16.529  0.2199 -0.1741 -0.5588
  607TIP3    H123236   3.205   0.558  16.577  3.0203  2.5330 -0.2359
  607TIP3    H223237   3.075   0.635  16.589 -0.7745 -3.1887 -0.7211
  608TIP3   OH223238   5.918   4.457  16.962  0.2782  0.0242  0.1536
  608TIP3    H123239   5.936   4.367  16.939 -1.8094 -0.0339 -1.5401
  608TIP3    H223240   5.971   4.509  16.903  0.9061 -0.0723  0.6218
  609TIP3   OH223241   1.899   0.092   3.265 -0.1360 -0.6849 -0.6595
  609TIP3    H123242   1.857   0.077   3.349 -2.0051 -2.1456 -1.7706
  609TIP3    H223243   1.935   0.007   3.240 -0.1153 -0.4143 -1.6034
  610TIP3   OH223244   5.047   2.632   0.097 -0.4190 -0.1961 -0.1456
  610TIP3    H123245   5.017   2.637   0.188 -0.3612 -1.5300 -0.0354
  610TIP3    H223246   5.143   2.631   0.103 -0.3526 -3.6693  0.0772
  611TIP3   OH223247   2.084   0.749   2.058  0.1629 -0.1913 -0.0463
  611TIP3    H123248   2.024   0.686   2.098  0.5178 -0.0103  0.8010
  611TIP3    H223249   2.040   0.776   1.977 -0.1183 -1.3067 -0.2868
  612TIP3   OH223250   1.639   3.098  16.062 -0.5770 -0.3886 -0.1166
  612TIP3    H123251   1.653   3.192  16.048  0.0989 -0.5370 -0.4581
  612TIP3    H223252   1.635   3.060  15.975  1.0766 -0.9461  0.0156
  613TIP3   OH223253   2.041   2.508  17.221 -0.1697 -0.3369  0.5287
  613TIP3    H123254   2.132   2.481  17.216  0.2182  1.1252 -2.2641
  613TIP3    H223255   2.044   2.603  17.230 -1.4385 -0.3624  1.5540
  614TIP3   OH223256   2.863   1.526   0.491 -0.1369 -0.2759  0.2660
  614TIP3    H123257   2.837   1.610   0.455  0.0507 -0.0096  0.7404
  614TIP3    H223258   2.790   1.467   0.472 -0.3165  0.0234  0.0340
  615TIP3   OH223259   2.426   0.554  13.131  0.7648 -0.2383 -0.0024
  615TIP3    H123260   2.501   0.518  13.178 -0.4426 -2.3195  0.4298
  615TIP3    H223261   2.355   0.493  13.148 -0.9813  1.5087 -0.6519
  616TIP3   OH223262   0.980   5.048   2.102  0.6198  0.2458 -0.2531
  616TIP3    H123263   0.990   5.083   2.014  0.6605  0.1565 -0.2841
  616TIP3    H223264   0.886   5.030   2.110  0.5983  0.3674 -0.2345
  617TIP3   OH223265   1.196   1.294  17.087 -0.6611  0.2731 -0.5092
  617TIP3    H123266   1.291   1.297  17.096 -0.4195 -1.7471 -1.7984
  617TIP3    H223267   1.163   1.327  17.171  1.2200 -2.3482  1.4433
  618TIP3   OH223268   2.588   4.101   1.995 -0.3382  0.4116  0.3472
  618TIP3    H123269   2.556   4.059   2.075 -0.5583  0.7223  0.4248
  618TIP3    H223270   2.520   4.085   1.930  0.0624 -0.2593  0.0825
  619TIP3   OH223271   5.810   4.181   0.141 -0.2592  0.1990 -0.1083
  619TIP3    H123272   5.889   4.147   0.100 -1.8920 -0.3278 -3.0906
  619TIP3    H223273   5.754   4.104   0.152 -0.5698  0.6326  1.5312
  620TIP3   OH223274   2.957   0.346   4.165 -0.1697 -0.1627  0.1175
  620TIP3    H123275   2.883   0.396   4.131  1.0313  2.0462  0.5724
  620TIP3    H223276   2.918   0.263   4.193 -2.2826  0.5095 -0.6115
  621TIP3   OH223277   5.011   2.848   2.766 -0.3080  0.5717 -0.2076
  621TIP3    H123278   5.069   2.897   2.824  0.5754  0.1345 -0.6961
  621TIP3    H223279   4.925   2.854   2.807  0.1547  0.8974  0.7466
  622TIP3   OH223280   2.449   2.120   2.858  0.3969 -0.1607  0.3140
  622TIP3    H123281   2.423   2.194   2.802  0.7003 -1.8092 -2.1417
  622TIP3    H223282   2.543   2.131   2.871  0.2708  0.3989  0.8286
  623TIP3   OH223283   3.518   0.996  13.490  0.1291  0.1491  0.6269
  623TIP3    H123284   3.463   0.920  13.507  0.9719 -0.8335 -0.8029
  623TIP3    H223285   3.599   0.979  13.538  0.7506 -0.4325 -0.5809
  624TIP3   OH223286   6.352   1.108  10.933 -0.3148  0.2679  0.1049
  624TIP3    H123287   6.302   1.127  10.853 -1.4957 -0.1070  0.7283
  624TIP3    H223288   6.322   1.174  10.996  3.1637  2.8765 -0.6781
  625TIP3   OH223289   5.423   4.167   1.564  0.8395 -0.3078  0.6646
  625TIP3    H123290   5.366   4.121   1.626 -1.5953  0.0187 -1.1638
  625TIP3    H223291   5.458   4.097   1.508 -1.5853 -0.2371 -1.1061
  626TIP3   OH223292   3.291   3.245  13.021 -0.2061 -0.3753  0.3984
  626TIP3    H123293   3.381   3.239  13.054 -0.6926  0.7521  2.0548
  626TIP3    H223294   3.241   3.185  13.076 -0.2365 -2.3938 -1.6844
  627TIP3   OH223295   6.729   1.462  13.408 -0.2736  0.3606 -0.3128
  627TIP3    H123296   6.761   1.536  13.356 -0.1959 -1.4594 -3.0475
  627TIP3    H223297   6.664   1.420  13.352  1.6454 -3.2340 -0.1197
  628TIP3   OH223298   0.462   0.502   1.045  0.5193  0.1868 -0.0802
  628TIP3    H123299   0.376   0.532   1.016 -0.2507 -0.8879  0.9752
  628TIP3    H223300   0.448   0.410   1.069  2.1727 -0.2620 -0.7147
  629TIP3   OH223301   4.973   6.482   5.132  0.5367  0.3117  0.1726
  629TIP3    H123302   4.982   6.568   5.173 -0.4469 -0.0282  1.1768
  629TIP3    H223303   5.062   6.456   5.110  0.7810  1.9079 -0.8506
  630TIP3   OH223304   4.714   0.531   5.464  0.4399  0.0615  0.1526
  630TIP3    H123305   4.691   0.543   5.371  0.2311 -0.0384  0.1901
  630TIP3    H223306   4.807   0.509   5.463  0.4971  0.2995 -0.0172
  631TIP3   OH223307   4.787   4.633  15.812  0.2873  0.0244  0.1972
  631TIP3    H123308   4.870   4.588  15.799 -0.4712 -1.0868 -1.0389
  631TIP3    H223309   4.774   4.685  15.733  0.7764  1.9131  1.2762
  632TIP3   OH223310   5.919   2.148   5.287 -0.0763 -0.0172 -0.3871
  632TIP3    H123311   5.995   2.204   5.304 -0.3471  0.7440 -1.5572
  632TIP3    H223312   5.933   2.117   5.198 -0.9932 -0.1083 -0.5031
  633TIP3   OH223313   1.491   5.240  16.606  0.3525  0.0892 -0.4315
  633TIP3    H123314   1.493   5.219  16.700  0.7585  0.6021 -0.3220
  633TIP3    H223315   1.408   5.287  16.594  0.3657  0.1450 -0.3045
  634TIP3   OH223316   4.243   1.759   0.152  0.4442 -0.1847 -0.2381
  634TIP3    H123317   4.192   1.758   0.070 -1.2409  2.1492  0.6834
  634TIP3    H223318   4.222   1.843   0.193  0.1930 -1.7702  3.2418
  635TIP3   OH223319   1.563   4.438   3.784 -0.0854  0.4047 -0.3593
  635TIP3    H123320   1.647   4.447   3.738 -0.2620  0.9786 -0.5864
  635TIP3    H223321   1.587   4.406   3.871  0.3403  0.2481 -0.5293
  636TIP3   OH223322   6.644   1.470  16.776  0.5103  0.5705  0.5443
  636TIP3    H123323   6.589   1.540  16.812  0.2716 -0.5699  2.5724
  636TIP3    H223324   6.582   1.408  16.739  0.6827  1.0511 -0.5886
  637TIP3   OH223325   2.455   1.682  15.802  0.2285 -0.0424  0.4130
  637TIP3    H123326   2.466   1.632  15.721  0.4480 -0.7832  0.8855
  637TIP3    H223327   2.534   1.736  15.807 -0.5098  1.1886 -0.6510
  638TIP3   OH223328   2.713   6.058  15.581  0.0768  0.2665 -0.1838
  638TIP3    H123329   2.684   6.064  15.490 -0.0374  1.2069 -0.0947
  638TIP3    H223330   2.689   6.142  15.620  0.0198 -0.1620  0.7507
  639TIP3   OH223331   6.529   1.421   0.129  0.1287 -0.0154 -0.1185
  639TIP3    H123332   6.621   1.441   0.147 -0.0185  2.9101 -1.8775
  639TIP3    H223333   6.531   1.368   0.049  0.3028 -0.2571  0.0470
  640TIP3   OH223334   5.427   2.184  16.451  0.0641  0.0333  0.3492
  640TIP3    H123335   5.407   2.189  16.544 -0.7835  1.6140  0.1109
  640TIP3    H223336   5.361   2.239  16.409 -0.8147 -2.2120 -1.4157
  641TIP3   OH223337   0.254   6.435   4.939 -0.3372  0.1413  0.2577
  641TIP3    H123338   0.275   6.440   4.846 -0.2860  0.5024  0.2868
  641TIP3    H223339   0.337   6.451   4.983 -0.2144 -0.7673  0.3637
  642TIP3   OH223340   6.101   6.485   5.282 -0.1047  0.2771 -0.8159
  642TIP3    H123341   6.174   6.422   5.281 -0.4841 -0.2815  1.1154
  642TIP3    H223342   6.023   6.431   5.277 -0.4543  0.4634  1.5582
  643TIP3   OH223343   6.133   5.040  13.461  0.2657  0.3015 -0.0427
  643TIP3    H123344   6.080   5.045  13.541  0.6623  0.4942  0.2099
  643TIP3    H223345   6.220   5.068  13.488  1.2025 -2.4587  0.1840
  644TIP3   OH223346   1.271   2.123   3.350  0.1954  0.2046 -0.1685
  644TIP3    H123347   1.225   2.075   3.281 -1.6648  2.3392 -0.5256
  644TIP3    H223348   1.362   2.127   3.320 -0.8236  2.5833 -3.5694
  645TIP3   OH223349   0.142   6.527  16.815  0.5071  0.3513  0.3412
  645TIP3    H123350   0.116   6.618  16.828  1.4268  0.6187  0.3119
  645TIP3    H223351   0.228   6.531  16.775  0.7153 -0.5387  0.6668
  646TIP3   OH223352   6.474   3.199   5.878 -0.1868 -0.3615  0.4718
  646TIP3    H123353   6.380   3.211   5.890  0.1368  1.4053  1.7384
  646TIP3    H223354   6.502   3.275   5.826  0.7740  0.1407  1.6605
  647TIP3   OH223355   3.959   2.839   1.277  0.6383  0.2422  0.1959
  647TIP3    H123356   3.994   2.762   1.321 -0.8989 -1.3311 -1.1531
  647TIP3    H223357   3.939   2.808   1.188  0.0242  2.2185 -0.4032
  648TIP3   OH223358   5.717   0.453  12.467  0.0147  0.3344  0.8251
  648TIP3    H123359   5.655   0.394  12.424  0.8894  0.8607 -1.2239
  648TIP3    H223360   5.671   0.537  12.470 -0.2784  0.1589  1.5180
  649TIP3   OH223361   3.120   6.582  17.118  0.0994  0.0807  0.0521
  649TIP3    H123362   3.106   6.555  17.028  0.2383  0.1574  0.0057
  649TIP3    H223363   3.033   6.585  17.157  0.0318  0.1267 -0.1035
  650TIP3   OH223364   2.947   5.598   2.214  0.0554  0.2009 -0.0205
  650TIP3    H123365   2.857   5.565   2.218 -0.0812  0.6477  1.1848
  650TIP3    H223366   2.998   5.534   2.264  0.9407 -1.5204 -2.9303
  651TIP3   OH223367   6.595   3.471   1.313  0.0755 -0.4698  0.4826
  651TIP3    H123368   6.680   3.427   1.315  1.1705  1.4311 -0.7340
  651TIP3    H223369   6.579   3.489   1.221 -1.0542  0.3234  0.8045
  652TIP3   OH223370   0.049   4.734   4.475 -0.0825 -0.5258  1.2491
  652TIP3    H123371   0.035   4.684   4.395  0.1279 -0.0281  0.8955
  652TIP3    H223372   0.036   4.825   4.449 -0.6135 -0.4017  1.9172
  653TIP3   OH223373   1.364   5.719   2.895 -0.5525 -0.6624 -0.5223
  653TIP3    H123374   1.344   5.791   2.954  0.7875  0.0192 -0.8436
  653TIP3    H223375   1.310   5.735   2.817  0.5634  0.6675 -1.0532
  654TIP3   OH223376   2.544   4.369  14.357 -0.2375  0.0247  0.3822
  654TIP3    H123377   2.620   4.330  14.400  0.2244 -1.0251 -1.3012
  654TIP3    H223378   2.507   4.428  14.423  0.5658 -1.3078  2.1077
  655TIP3   OH223379   6.600   6.773   1.343  0.2103 -0.2709 -0.8502
  655TIP3    H123380   6.690   6.772   1.377 -0.0908  0.3341  0.0124
  655TIP3    H223381   6.579   6.867   1.336 -1.1351 -0.3575  1.1550
  656TIP3   OH223382   2.254   3.840   5.188  0.4496  0.6619 -0.3803
  656TIP3    H123383   2.173   3.790   5.191  0.3455  0.8998  1.6139
  656TIP3    H223384   2.297   3.811   5.107 -1.2973  0.0736 -1.1441
  657TIP3   OH223385   2.151   2.374  10.697 -0.2112  0.3541 -0.2321
  657TIP3    H123386   2.175   2.410  10.783 -0.2177  0.4589 -0.2741
  657TIP3    H223387   2.164   2.447  10.636  2.6476 -0.4781 -0.7859
  658TIP3   OH223388   6.460   5.386  14.620 -0.4878 -0.2976 -0.4879
  658TIP3    H123389   6.467   5.292  14.603  2.4382 -0.5773  1.4944
  658TIP3    H223390   6.450   5.392  14.715 -0.7636  1.3924 -0.6073
  659TIP3   OH223391   3.702   2.211   4.062 -0.3411  0.6956  0.2583
  659TIP3    H123392   3.786   2.231   4.021  0.1557 -0.1399  0.8479
  659TIP3    H223393   3.724   2.161   4.140 -1.4791 -1.4255 -0.7007
  660TIP3   OH223394   2.644   5.722   3.024  0.3172 -0.4562 -0.4741
  660TIP3    H123395   2.702   5.785   3.066 -1.9850  0.6097  1.3729
  660TIP3    H223396   2.647   5.743   2.931  2.0345  0.2327 -0.2845
  661TIP3   OH223397   3.935   5.389  15.848  0.0492 -1.0704  0.1826
  661TIP3    H123398   3.970   5.442  15.919 -0.6234  1.1748 -1.0469
  661TIP3    H223399   3.844   5.371  15.874  0.1280 -1.1766  0.3809
  662TIP3   OH223400   0.876   2.906  14.917 -0.2734  0.1391 -0.2644
  662TIP3    H123401   0.940   2.976  14.910 -1.6390  1.3482 -1.1985
  662TIP3    H223402   0.901   2.843  14.849  1.1605 -0.4859  0.8092
  663TIP3   OH223403   5.687   4.517   3.060  0.1119 -0.0380 -0.2784
  663TIP3    H123404   5.631   4.463   3.116 -0.2090 -0.1233 -0.6764
  663TIP3    H223405   5.695   4.600   3.107 -3.2046  1.3062 -1.7624
  664TIP3   OH223406   4.602   3.058  14.448 -0.4670  0.3318  0.2755
  664TIP3    H123407   4.531   3.019  14.499 -1.1311  0.5756 -0.4349
  664TIP3    H223408   4.565   3.139  14.413 -0.0146  0.1937 -0.5470
  665TIP3   OH223409   1.514   0.238  11.141  0.0613  0.6292 -0.3812
  665TIP3    H123410   1.574   0.296  11.093  0.0118 -0.2878 -1.6124
  665TIP3    H223411   1.428   0.274  11.123 -0.1945 -1.0158 -3.0698
  666TIP3   OH223412   6.444   2.779  11.927  0.0942  0.5690  0.1708
  666TIP3    H123413   6.402   2.857  11.963  0.0692  0.0641  1.2510
  666TIP3    H223414   6.519   2.763  11.983  0.4145  0.1299 -0.3712
  667TIP3   OH223415   2.453   3.915  14.452 -0.7496 -0.0708 -0.2917
  667TIP3    H123416   2.482   3.832  14.491 -1.3522  0.5677  1.6437
  667TIP3    H223417   2.416   3.890  14.367  1.3784 -1.4431 -0.8944
  668TIP3   OH223418   6.735   5.163   4.049  0.3093  0.4333  0.6109
  668TIP3    H123419   6.809   5.150   3.989  0.6447  1.8405  0.6933
  668TIP3    H223420   6.730   5.257   4.062 -0.6736  0.2638  1.6735
  669TIP3   OH223421   3.396   4.818  16.593  0.0189  0.1579 -0.0099
  669TIP3    H123422   3.392   4.817  16.497 -0.7218  0.4808  0.0153
  669TIP3    H223423   3.461   4.751  16.615  2.2652  1.9367 -0.8347
  670TIP3   OH223424   6.390   1.848   0.810 -0.4467 -0.0494 -0.5480
  670TIP3    H123425   6.445   1.866   0.886  0.9651 -0.8950 -1.3206
  670TIP3    H223426   6.452   1.829   0.739 -1.7170  0.6244 -1.8928
  671TIP3   OH223427   0.043   6.518   1.013  0.1582 -0.0833 -0.8342
  671TIP3    H123428   0.093   6.594   1.042 -0.6961  0.2744 -0.2591
  671TIP3    H223429   0.055   6.516   0.918  0.0577  0.8811 -0.8761
  672TIP3   OH223430   6.725   2.529  15.902 -0.6402 -0.7566 -0.5634
  672TIP3    H123431   6.810   2.489  15.917 -0.8817 -0.5536  1.6613
  672TIP3    H223432   6.719   2.598  15.968 -2.0929 -0.0500 -1.3853
  673TIP3   OH223433   0.656   1.676   3.248  0.6275 -0.4166  0.1307
  673TIP3    H123434   0.572   1.688   3.206  1.9649  1.4739 -2.2351
  673TIP3    H223435   0.672   1.581   3.244 -0.6659 -0.6117 -0.8259
  674TIP3   OH223436   0.774   3.004   0.586  0.5541 -0.3191  0.3269
  674TIP3    H123437   0.792   3.030   0.496 -1.3864 -1.1780 -0.3465
  674TIP3    H223438   0.854   3.028   0.634  1.4517  0.5533 -1.5096
  675TIP3   OH223439   5.008   3.127  15.091 -0.5650  0.3580  0.5856
  675TIP3    H123440   5.018   3.096  15.001  1.6830  0.7741  0.6228
  675TIP3    H223441   4.915   3.148  15.100 -0.5910  1.7333 -2.1009
  676TIP3   OH223442   1.308   3.622   6.030  0.0543 -0.2908 -0.3639
  676TIP3    H123443   1.255   3.700   6.019 -0.8998 -1.0124 -1.0728
  676TIP3    H223444   1.369   3.643   6.101 -0.8744  0.7074  0.1520
  677TIP3   OH223445   5.389   5.395  13.943 -0.3923 -0.3840  0.0209
  677TIP3    H123446   5.458   5.460  13.957 -0.6336 -0.1558  0.1471
  677TIP3    H223447   5.413   5.354  13.860  0.6802 -1.2986  0.7598
  678TIP3   OH223448   1.464   5.259  15.570 -0.3278 -0.2882 -0.4526
  678TIP3    H123449   1.464   5.165  15.588 -2.0987 -0.4947 -1.3329
  678TIP3    H223450   1.439   5.300  15.653  2.5206 -0.3668  0.5625
  679TIP3   OH223451   3.433   2.200   3.439 -0.4370 -0.1127  0.2647
  679TIP3    H123452   3.345   2.169   3.457  0.2272 -1.4959  1.3580
  679TIP3    H223453   3.434   2.216   3.344 -2.0715  0.7197  0.3590
  680TIP3   OH223454   2.549   0.633   4.668 -0.0976  0.0945 -0.0481
  680TIP3    H123455   2.569   0.589   4.751 -1.9320 -1.0429 -0.1654
  680TIP3    H223456   2.631   0.629   4.619  0.8556  0.2623  1.4574
  681TIP3   OH223457   5.971   1.140  15.273  0.0473 -0.4148 -0.1331
  681TIP3    H123458   6.054   1.095  15.258 -0.4912 -1.1723 -1.0107
  681TIP3    H223459   5.981   1.224  15.230  1.3319  0.6896  2.1502
  682TIP3   OH223460   6.168   4.951  16.790  0.5614 -0.1997  0.1009
  682TIP3    H123461   6.081   4.913  16.799  0.7058 -0.3080  1.1662
  682TIP3    H223462   6.215   4.891  16.732 -0.4535  0.5602 -1.5741
  683TIP3   OH223463   0.923   4.608   4.846  0.3301  0.3254  0.3285
  683TIP3    H123464   0.860   4.577   4.781 -2.1774  0.2228  2.6365
  683TIP3    H223465   0.975   4.531   4.868 -2.1836 -1.0331  2.0150
  684TIP3   OH223466   0.344   4.001   5.087 -0.3688  0.3596 -0.2634
  684TIP3    H123467   0.348   3.906   5.073 -1.2256  0.5460 -2.1066
  684TIP3    H223468   0.365   4.013   5.179  1.9112 -1.4529 -0.4612
  685TIP3   OH223469   5.425   4.922  11.800 -0.1512 -0.2876 -0.5651
  685TIP3    H123470   5.383   4.869  11.734 -1.8925 -1.0114  1.0303
  685TIP3    H223471   5.486   4.863  11.844  0.7594  0.1055 -1.2536
  686TIP3   OH223472   6.401   5.127  14.629 -0.0734 -0.2132  0.1506
  686TIP3    H123473   6.373   5.101  14.717 -0.8389 -1.3286 -0.4156
  686TIP3    H223474   6.431   5.046  14.588 -0.3297  0.1866 -0.8430
  687TIP3   OH223475   4.833   6.157  13.436  0.1540  0.0294  0.1213
  687TIP3    H123476   4.739   6.168  13.451  0.1409 -0.3287  0.3276
  687TIP3    H223477   4.845   6.062  13.431  0.4166  0.0886 -0.4821
  688TIP3   OH223478   1.571   5.290  15.057  0.1663 -0.3710  0.3871
  688TIP3    H123479   1.578   5.381  15.086 -0.1257 -0.3224  0.3093
  688TIP3    H223480   1.549   5.242  15.137 -1.2327 -0.1565  0.1652
  689TIP3   OH223481   5.267   5.794  14.325 -0.2458  0.0251 -0.0726
  689TIP3    H123482   5.329   5.728  14.294  0.0769  0.4423 -0.3293
  689TIP3    H223483   5.237   5.761  14.410 -2.1128 -1.7746 -1.3422
  690TIP3   OH223484   5.888   0.433  14.974 -0.0150 -0.0053 -0.2532
  690TIP3    H123485   5.909   0.519  14.938 -0.1862  0.3332  0.4378
  690TIP3    H223486   5.854   0.383  14.900  1.6710 -0.0386 -1.0371
  691TIP3   OH223487   3.999   0.485  15.971  0.2500 -0.0070 -0.0272
  691TIP3    H123488   3.989   0.479  16.066  1.0855  2.3696  0.2885
  691TIP3    H223489   3.910   0.498  15.938 -0.0608 -0.9970  0.3903
  692TIP3   OH223490   1.046   1.470  10.415  0.0365 -0.2294  0.1016
  692TIP3    H123491   1.112   1.410  10.383  1.3952 -0.5488  3.1081
  692TIP3    H223492   0.994   1.418  10.477  0.0615  1.1875  1.3674
  693TIP3   OH223493   5.223   0.614   1.721  0.5623  0.1231 -0.0852
  693TIP3    H123494   5.307   0.569   1.720  0.7768  0.5209  0.1803
  693TIP3    H223495   5.198   0.620   1.629 -0.0358 -1.5859 -0.0807
  694TIP3   OH223496   1.080   5.103   6.206  0.0072 -0.1896  0.1254
  694TIP3    H123497   1.133   5.092   6.285 -0.1644  0.0129  0.2706
  694TIP3    H223498   1.129   5.166   6.153  0.5496 -0.9722 -0.3135
  695TIP3   OH223499   3.685   0.379   0.501  0.4572 -0.0973  0.6767
  695TIP3    H123500   3.613   0.415   0.449  1.1024 -0.4470 -0.5048
  695TIP3    H223501   3.642   0.343   0.579 -0.9025 -1.7569 -0.7316
  696TIP3   OH223502   1.652   0.661  10.783 -0.0083  0.3903  0.5340
  696TIP3    H123503   1.654   0.751  10.749 -0.4406  0.6562  1.1876
  696TIP3    H223504   1.743   0.641  10.802  0.3138  0.0462 -1.2350
  697TIP3   OH223505   4.041   3.716   5.720  0.1857  0.5512 -0.2689
  697TIP3    H123506   4.058   3.714   5.814  1.5578  1.0604 -0.4761
  697TIP3    H223507   4.128   3.729   5.681 -0.1530 -1.2060 -1.6960
  698TIP3   OH223508   1.161   1.554   2.124  0.5112  0.1857  0.1630
  698TIP3    H123509   1.227   1.581   2.188 -0.6926  2.2960  0.6374
  698TIP3    H223510   1.099   1.627   2.122  0.1252 -0.0932 -2.9527
  699TIP3   OH223511   4.526   5.004   5.467  0.3249 -0.0111  0.0767
  699TIP3    H123512   4.450   5.062   5.474  0.8290  0.7234 -0.3328
  699TIP3    H223513   4.591   5.056   5.420  1.2783 -0.4168  0.9057
  700TIP3   OH223514   0.920   4.954   6.063 -0.3387  0.1151  0.1694
  700TIP3    H123515   0.895   4.892   6.131  2.3902 -0.7540  0.4940
  700TIP3    H223516   0.976   5.017   6.107 -0.5191  0.9898 -0.8064
  701TIP3   OH223517   1.939   5.251   2.653  0.0714  0.7121  0.2526
  701TIP3    H123518   2.030   5.224   2.644 -0.0737  0.4616 -0.5067
  701TIP3    H223519   1.892   5.170   2.673  0.0951  0.9409  1.3253
  702TIP3   OH223520   5.091   0.653   0.956 -0.4760 -0.1871  0.5122
  702TIP3    H123521   5.040   0.700   0.891 -0.1707 -1.0623 -0.3882
  702TIP3    H223522   5.170   0.626   0.909 -0.1358 -0.6084  1.3140
  703TIP3   OH223523   0.669   6.435   5.627 -0.2676 -0.0512 -0.4888
  703TIP3    H123524   0.640   6.481   5.549  0.9182  1.2336 -0.1964
  703TIP3    H223525   0.699   6.350   5.595  0.3829  0.5286 -1.4537
  704TIP3   OH223526   3.520   6.687   3.506 -0.0269 -0.4557  0.0192
  704TIP3    H123527   3.524   6.691   3.410 -0.3521 -0.5724 -0.0017
  704TIP3    H223528   3.533   6.594   3.526  0.4619 -0.3683  0.1121
  705TIP3   OH223529   1.450   0.894   3.771  0.2941  0.1816  0.3216
  705TIP3    H123530   1.469   0.987   3.773  1.2493  0.1117 -1.8894
  705TIP3    H223531   1.375   0.883   3.829  0.4536  2.2388  0.9822
  706TIP3   OH223532   1.635   6.073   1.597 -0.2406  0.2242 -0.1573
  706TIP3    H123533   1.688   6.074   1.517  2.2840  1.5243  1.4016
  706TIP3    H223534   1.644   5.984   1.631 -0.5067 -0.0462 -0.7875
  707TIP3   OH223535   5.524   3.953  10.854 -0.5477 -0.0800 -0.6829
  707TIP3    H123536   5.616   3.953  10.882 -0.8884 -0.2165  0.5135
  707TIP3    H223537   5.481   4.015  10.914 -1.5816 -1.4844  0.0993
  708TIP3   OH223538   0.322   4.463   1.588  0.2764 -0.3243 -0.0185
  708TIP3    H123539   0.343   4.463   1.495 -0.9704 -0.7778 -0.3128
  708TIP3    H223540   0.253   4.398   1.598  0.9401 -0.8631  1.3645
  709TIP3   OH223541   3.650   4.917   0.667 -0.2387  0.1359  0.4115
  709TIP3    H123542   3.666   4.832   0.627  0.5571  0.2223  0.5361
  709TIP3    H223543   3.724   4.930   0.727  0.0640  1.2515 -0.1804
  710TIP3   OH223544   3.876   0.409  12.552 -0.1098  0.1846 -0.1077
  710TIP3    H123545   3.886   0.504  12.557 -0.5241  0.3935 -2.2796
  710TIP3    H223546   3.818   0.395  12.477 -1.8227 -1.7111  1.4554
  711TIP3   OH223547   6.266   3.463  12.071 -0.1115  0.4293  0.7534
  711TIP3    H123548   6.316   3.461  12.153  1.9592  1.7548 -0.3579
  711TIP3    H223549   6.245   3.556  12.058 -1.3575  0.1030  0.3041
  712TIP3   OH223550   5.188   5.152  13.347  0.1829 -0.2419 -0.8183
  712TIP3    H123551   5.172   5.166  13.253 -1.4948  0.1175 -0.5120
  712TIP3    H223552   5.238   5.229  13.374  0.9366 -0.4951 -1.4771
  713TIP3   OH223553   4.016   0.866  11.765  0.5355  0.0433  0.2219
  713TIP3    H123554   3.974   0.799  11.711  1.2937 -0.6010  0.4164
  713TIP3    H223555   3.959   0.874  11.842  0.6381 -0.6727  0.3828
  714TIP3   OH223556   1.986   6.163   3.782  0.4481  0.5875  0.2958
  714TIP3    H123557   1.977   6.079   3.738  1.8740  0.5286  0.0962
  714TIP3    H223558   2.040   6.146   3.859 -0.2268  1.1139  0.9194
  715TIP3   OH223559   3.679   3.648   2.383  0.2663 -0.0537 -0.5702
  715TIP3    H123560   3.735   3.689   2.449 -0.4102 -0.0898  0.0417
  715TIP3    H223561   3.614   3.715   2.362 -0.2230 -0.4539 -0.3323
  716TIP3   OH223562   4.235   5.658   2.823  0.6065  0.1113  0.2838
  716TIP3    H123563   4.142   5.664   2.847  0.7633 -1.0951  1.2675
  716TIP3    H223564   4.250   5.735   2.767 -0.5095  1.3580  1.6209
  717TIP3   OH223565   2.912   3.558   2.107 -0.0632 -0.1501 -0.0798
  717TIP3    H123566   2.829   3.515   2.087 -0.5754  1.6003 -2.0310
  717TIP3    H223567   2.977   3.488   2.101 -1.2940 -1.4154  0.8237
  718TIP3   OH223568   5.736   5.831   4.421  0.0079 -0.0316  0.0160
  718TIP3    H123569   5.654   5.847   4.374 -0.0431  0.2012  0.1843
  718TIP3    H223570   5.765   5.745   4.389 -0.1101  0.0491 -0.3174
  719TIP3   OH223571   6.661   3.763  11.538  0.2842 -0.0001 -0.1449
  719TIP3    H123572   6.654   3.816  11.458 -2.0864  0.3760  0.2301
  719TIP3    H223573   6.717   3.814  11.596  1.5633 -0.0006 -1.3509
  720TIP3   OH223574   3.961   4.951  14.190 -0.5918  0.4674 -0.1306
  720TIP3    H123575   3.886   5.010  14.186  0.0423  1.2427 -1.8380
  720TIP3    H223576   3.966   4.912  14.103 -0.1643 -1.0816  0.5482
  721TIP3   OH223577   4.757   3.882   0.745  0.3099 -0.2336  0.6823
  721TIP3    H123578   4.826   3.860   0.683  0.6934  2.1003  0.1525
  721TIP3    H223579   4.780   3.836   0.826  0.9139 -1.7050 -0.2912
  722TIP3   OH223580   6.580   4.878   0.941  0.1699 -0.0238 -0.3538
  722TIP3    H123581   6.560   4.878   1.035 -0.9712 -0.7172 -0.5810
  722TIP3    H223582   6.624   4.794   0.925 -1.2568 -0.7169 -0.7465
  723TIP3   OH223583   2.543   0.671  12.918 -0.4402 -0.3992 -0.2988
  723TIP3    H123584   2.510   0.657  13.006  0.0550  1.2669  0.1848
  723TIP3    H223585   2.480   0.732  12.878 -0.2503 -0.5496 -0.8445
  724TIP3   OH223586   5.979   1.578   5.384 -0.2808 -0.3347  0.6288
  724TIP3    H123587   5.886   1.586   5.362 -0.2875 -1.6728  0.0510
  724TIP3    H223588   5.987   1.491   5.423  0.5707  0.1550  1.5950
  725TIP3   OH223589   5.648   1.780   0.887  0.5115 -0.2438  0.5879
  725TIP3    H123590   5.582   1.838   0.925  0.6439 -0.0508  0.5180
  725TIP3    H223591   5.731   1.807   0.926  0.7042  0.1983 -0.1109
  726TIP3   OH223592   3.081   4.926  15.380 -0.0243  0.3613  0.7906
  726TIP3    H123593   3.091   4.898  15.471  0.0810 -1.0112  0.3674
  726TIP3    H223594   2.990   4.904  15.357 -0.4135  1.7351  0.8836
  727TIP3   OH223595   4.779   0.084   1.504  0.1807  0.3589  0.1439
  727TIP3    H123596   4.804   0.127   1.422  0.6778 -0.7940 -0.3334
  727TIP3    H223597   4.856   0.091   1.560  1.1400 -1.8407 -0.7681
  728TIP3   OH223598   4.608   4.024   5.080 -0.1481 -0.1680  0.2080
  728TIP3    H123599   4.655   3.961   5.026 -1.5207 -0.7407 -0.3644
  728TIP3    H223600   4.673   4.056   5.143  0.9969 -0.8766 -0.5908
  729TIP3   OH223601   4.800   5.966  15.415 -0.0533  0.2966 -0.6545
  729TIP3    H123602   4.821   6.055  15.386 -1.9840  1.2992  0.8040
  729TIP3    H223603   4.827   5.964  15.507 -0.7809 -0.3187 -0.4452
  730TIP3   OH223604   5.116   0.424  14.194 -0.0127  0.2030  0.2461
  730TIP3    H123605   5.105   0.329  14.202  0.5521  0.0072 -1.0344
  730TIP3    H223606   5.028   0.459  14.205 -0.5483 -0.6361 -1.0291
  731TIP3   OH223607   4.036   6.147  17.017  0.5700  0.0589  0.5920
  731TIP3    H123608   4.122   6.171  16.981 -0.1239  2.6469  0.4012
  731TIP3    H223609   4.002   6.229  17.053 -3.0861 -0.0662 -2.0302
  732TIP3   OH223610   0.310   3.303  14.848 -0.0330 -0.1720 -0.1218
  732TIP3    H123611   0.364   3.237  14.892  0.4256  1.1348  1.3763
  732TIP3    H223612   0.371   3.372  14.824 -0.3813 -0.5835 -2.3971
  733TIP3   OH223613   0.662   6.243   0.571 -0.0481  0.5602 -0.4956
  733TIP3    H123614   0.584   6.242   0.626 -0.0182  0.5504 -0.4529
  733TIP3    H223615   0.634   6.284   0.490 -0.3566 -0.3503 -0.8632
  734TIP3   OH223616   2.718   3.304  11.402 -0.8968  0.7505  0.7420
  734TIP3    H123617   2.640   3.344  11.364 -1.0726 -0.0931  0.1749
  734TIP3    H223618   2.790   3.339  11.350 -1.1797 -0.8128 -0.8194
  735TIP3   OH223619   2.405   2.970  13.746 -0.0503  0.2575 -0.2089
  735TIP3    H123620   2.325   3.008  13.707 -0.5702  0.0180  0.5965
  735TIP3    H223621   2.457   3.047  13.770 -0.8049  0.4737  0.8104
  736TIP3   OH223622   4.690   5.865  12.827  0.2966 -0.7454  1.0505
  736TIP3    H123623   4.744   5.851  12.748 -1.1747 -0.8427  0.0208
  736TIP3    H223624   4.754   5.880  12.897  1.7762 -3.4133  0.4224
  737TIP3   OH223625   3.754   4.144  12.850 -0.6736  0.2892 -0.8204
  737TIP3    H123626   3.699   4.109  12.779 -1.0697  0.0829 -0.4215
  737TIP3    H223627   3.840   4.156  12.810 -0.0299 -2.7322 -0.6025
  738TIP3   OH223628   0.443   3.017  13.154  0.0209 -0.1597 -0.5795
  738TIP3    H123629   0.506   3.036  13.085  0.5344 -0.0309 -0.0771
  738TIP3    H223630   0.402   2.935  13.126 -0.0606  0.0965 -1.2332
  739TIP3   OH223631   0.408   1.983  16.566 -0.5530 -0.2854  0.3131
  739TIP3    H123632   0.423   1.934  16.647  0.8083 -1.1980 -0.4459
  739TIP3    H223633   0.474   2.053  16.568  0.7359 -1.4148 -0.8230
  740TIP3   OH223634   2.408   1.626  16.917 -0.7323 -0.3168 -0.0443
  740TIP3    H123635   2.414   1.708  16.965 -0.6286 -1.1163  1.3504
  740TIP3    H223636   2.498   1.595  16.909 -0.8148 -0.5396 -0.1305
  741TIP3   OH223637   1.818   1.605   4.162 -0.1045 -0.1761  0.0602
  741TIP3    H123638   1.759   1.602   4.086 -1.5505  1.3779  1.0532
  741TIP3    H223639   1.772   1.556   4.230  0.9934 -1.2076  0.0731
  742TIP3   OH223640   1.875   4.905  15.843 -0.3806 -0.2117 -0.3779
  742TIP3    H123641   1.790   4.868  15.867  0.7113 -2.9090 -0.3079
  742TIP3    H223642   1.929   4.893  15.922  0.1681  1.2477 -0.4997
  743TIP3   OH223643   1.211   3.589  13.353  0.0440 -0.2680  0.2834
  743TIP3    H123644   1.207   3.504  13.309 -2.6639  0.5464 -1.2912
  743TIP3    H223645   1.162   3.576  13.435  1.1827 -0.6314  0.9295
  744TIP3   OH223646   0.955   0.900   0.123 -0.0063 -0.2810  0.5392
  744TIP3    H123647   1.041   0.874   0.155  0.3569 -0.0502 -0.2035
  744TIP3    H223648   0.966   0.903   0.028 -0.6517  0.3807  0.4790
  745TIP3   OH223649   2.563   0.956  13.859 -0.2167 -0.0932  0.9653
  745TIP3    H123650   2.645   0.913  13.883 -0.6678 -1.4705  0.1809
  745TIP3    H223651   2.552   1.025  13.924  1.1618 -0.3904  1.5493
  746TIP3   OH223652   3.538   1.956  14.727 -1.1714  0.4247 -0.3058
  746TIP3    H123653   3.567   1.879  14.776 -0.2328  0.5657 -0.6276
  746TIP3    H223654   3.448   1.971  14.757 -1.4725 -0.9617 -0.4437
  747TIP3   OH223655   1.609   0.302   1.990  0.2437  0.4704  0.0803
  747TIP3    H123656   1.632   0.389   1.957  0.0095 -0.0419 -1.5546
  747TIP3    H223657   1.581   0.254   1.912 -0.4005 -0.8290  1.0690
  748TIP3   OH223658   0.813   6.388   1.847 -0.5929  0.2418  0.3403
  748TIP3    H123659   0.876   6.452   1.880 -0.7872  0.3115  0.5813
  748TIP3    H223660   0.741   6.392   1.909 -0.5664 -0.2790  0.4126
  749TIP3   OH223661   1.568   1.141  12.154 -0.3508 -0.7993 -0.0041
  749TIP3    H123662   1.585   1.124  12.061  0.3991 -0.7085  0.1105
  749TIP3    H223663   1.642   1.101  12.200 -0.7016 -0.8179  0.5514
  750TIP3   OH223664   0.778   5.794  14.451  0.2098 -0.2656  0.0705
  750TIP3    H123665   0.747   5.881  14.425  0.5770 -0.3357 -0.6258
  750TIP3    H223666   0.866   5.810  14.487  0.4311 -0.3963 -0.4128
  751TIP3   OH223667   6.245   5.150  15.301  0.5266 -0.3990  0.2644
  751TIP3    H123668   6.164   5.121  15.258  1.4865  0.4252 -2.2831
  751TIP3    H223669   6.310   5.086  15.274  1.7427  1.5953 -1.8915
  752TIP3   OH223670   6.735   2.624  16.336 -0.1308 -0.5742  0.4999
  752TIP3    H123671   6.666   2.660  16.281 -0.3764  3.1003  2.9101
  752TIP3    H223672   6.739   2.531  16.312 -3.5176 -0.2089 -2.1213
  753TIP3   OH223673   6.619   3.089   3.935 -0.1904 -0.3751  0.1500
  753TIP3    H123674   6.602   3.006   3.890 -1.2024 -0.5383  0.8003
  753TIP3    H223675   6.549   3.147   3.905  0.4895  0.2463 -0.2715
  754TIP3   OH223676   6.334   5.891  17.079 -0.5474  0.5050 -0.2452
  754TIP3    H123677   6.254   5.876  17.029 -0.5333  0.2456 -0.1893
  754TIP3    H223678   6.318   5.851  17.164 -0.1778  0.0175 -0.3967
  755TIP3   OH223679   1.548   0.276   4.314 -0.0473 -0.1517 -0.0643
  755TIP3    H123680   1.522   0.366   4.334 -0.0426 -0.1965  0.1478
  755TIP3    H223681   1.602   0.250   4.389 -0.6494 -0.5817  0.2255
  756TIP3   OH223682   3.667   2.473   5.862 -0.2567 -0.3420 -0.1534
  756TIP3    H123683   3.603   2.447   5.928  0.1219  1.2571  0.8758
  756TIP3    H223684   3.751   2.439   5.895  0.1835  1.7274  1.0216
  757TIP3   OH223685   2.120   5.526   2.095 -0.5232 -0.0405 -0.7534
  757TIP3    H123686   2.028   5.553   2.096 -0.9398 -1.3261 -1.8629
  757TIP3    H223687   2.140   5.511   2.003  0.0882 -2.0727 -0.3358
  758TIP3   OH223688   0.187   0.688   4.403 -0.0591  0.6235 -0.1555
  758TIP3    H123689   0.121   0.700   4.471 -0.3387 -2.4988  0.2918
  758TIP3    H223690   0.242   0.617   4.435  0.6734  0.0030 -2.5618
  759TIP3   OH223691   6.458   1.895  14.216 -0.3042 -0.3744  0.4661
  759TIP3    H123692   6.422   1.974  14.174 -1.4375 -0.7725  0.6673
  759TIP3    H223693   6.479   1.923  14.305 -0.2785 -0.1823  0.4001
  760TIP3   OH223694   0.889   3.943  13.627 -0.1524 -0.9552 -0.4971
  760TIP3    H123695   0.916   3.959  13.537 -0.0217 -0.2967 -0.3449
  760TIP3    H223696   0.921   3.855  13.646  1.0600 -0.5691 -0.6347
  761TIP3   OH223697   3.964   3.744  16.487  0.2747  0.4704  0.1410
  761TIP3    H123698   3.873   3.719  16.501 -0.0977  0.2393 -2.2415
  761TIP3    H223699   3.964   3.839  16.492 -0.7573  0.7195 -2.6674
  762TIP3   OH223700   2.422   3.899  11.506 -0.1315  0.1351 -0.0711
  762TIP3    H123701   2.355   3.948  11.458 -0.6051  0.9066  1.2963
  762TIP3    H223702   2.410   3.808  11.478 -1.0459  0.4211 -0.6482
  763TIP3   OH223703   4.717   3.345  14.671 -0.8118  0.2560  0.5429
  763TIP3    H123704   4.629   3.325  14.640  0.4051 -0.7604 -2.6499
  763TIP3    H223705   4.751   3.262  14.704 -0.1307 -0.0560 -0.8739
  764TIP3   OH223706   2.118   2.772  15.178 -0.1913  0.1044  0.3929
  764TIP3    H123707   2.071   2.839  15.229 -1.6363 -0.3136 -0.3287
  764TIP3    H223708   2.110   2.801  15.087 -0.4271 -0.7944  0.1202
  765TIP3   OH223709   0.503   1.646   2.799 -0.4460 -0.0594  0.1518
  765TIP3    H123710   0.576   1.593   2.832  0.4412 -0.0494 -1.6747
  765TIP3    H223711   0.540   1.695   2.726 -1.9037  1.1815  0.1956
  766TIP3   OH223712   2.115   5.020  13.394  0.6727  0.1098  0.0125
  766TIP3    H123713   2.163   5.100  13.416  1.1364  0.3020 -1.5540
  766TIP3    H223714   2.083   4.988  13.478 -2.6969  3.8753  0.4750
  767TIP3   OH223715   0.126   4.953   3.195  0.0393  0.3698 -0.1653
  767TIP3    H123716   0.052   4.930   3.139  1.2201 -0.5530 -1.4192
  767TIP3    H223717   0.203   4.943   3.139  1.1274  1.4160  1.0610
  768TIP3   OH223718   3.708   5.216  14.431  0.3320  0.5059  0.2855
  768TIP3    H123719   3.693   5.175  14.517  1.8918 -0.7737 -0.0213
  768TIP3    H223720   3.627   5.199  14.383 -1.1464  2.4139  1.8616
  769TIP3   OH223721   4.740   5.351   4.394  0.1877  0.3954  0.2882
  769TIP3    H123722   4.695   5.394   4.322  2.1688 -0.9923 -1.9285
  769TIP3    H223723   4.723   5.407   4.470 -0.3258  3.0451 -1.6420
  770TIP3   OH223724   2.881   5.156  15.339  0.3210 -0.0919  0.3403
  770TIP3    H123725   2.860   5.108  15.259  0.0735 -0.6663  0.7471
  770TIP3    H223726   2.974   5.178  15.330 -0.4189  2.8702 -1.6912
  771TIP3   OH223727   0.333   1.750   0.613 -0.0769 -0.5551  0.2344
  771TIP3    H123728   0.251   1.786   0.580  0.4665 -0.6349 -1.2558
  771TIP3    H223729   0.311   1.661   0.640 -0.4207 -0.6947 -0.4826
  772TIP3   OH223730   5.926   6.281   5.017 -0.5350  0.3284  0.2881
  772TIP3    H123731   5.918   6.298   5.111  0.3614  1.2684  0.2240
  772TIP3    H223732   5.979   6.202   5.011  2.4687  2.1287  0.6329
  773TIP3   OH223733   3.796   5.385  16.315  0.1909  0.2220 -0.1677
  773TIP3    H123734   3.799   5.290  16.301  0.2826  0.4428 -1.9834
  773TIP3    H223735   3.719   5.399  16.370  0.7138 -0.9621  0.9155
  774TIP3   OH223736   4.732   3.098  17.243 -0.5774  0.8135 -1.0447
  774TIP3    H123737   4.823   3.122  17.256 -0.9008  1.4000  0.3302
  774TIP3    H223738   4.714   3.032  17.311 -1.7274  2.2809  0.1549
  775TIP3   OH223739   3.902   3.476   6.164 -0.2808  0.3516  0.2338
  775TIP3    H123740   3.986   3.453   6.205 -0.2477 -1.7762 -0.8819
  775TIP3    H223741   3.836   3.444   6.225 -0.2295 -1.3627 -0.5482
  776TIP3   OH223742   4.685   0.351   0.140  0.0016 -0.1625  0.1690
  776TIP3    H123743   4.726   0.266   0.153  0.3857  0.1347  0.9621
  776TIP3    H223744   4.626   0.362   0.215  2.4955  1.7172  2.0109
  777TIP3   OH223745   4.653   4.937  15.026  0.4232 -0.1055 -0.0552
  777TIP3    H123746   4.687   4.902  15.109 -0.3342 -1.2223 -0.1902
  777TIP3    H223747   4.590   5.004  15.052  0.5730 -0.0892  0.2675
  778TIP3   OH223748   4.343   3.463  11.203 -0.0033  0.1390 -0.1795
  778TIP3    H123749   4.402   3.408  11.151  0.0369 -0.1368  0.1542
  778TIP3    H223750   4.339   3.546  11.155  0.1313 -0.0700 -0.5544
  779TIP3   OH223751   3.315   2.809  14.359  0.2262 -0.2047 -0.4918
  779TIP3    H123752   3.339   2.769  14.442  1.9586  1.7999  0.0782
  779TIP3    H223753   3.392   2.861  14.335 -0.3993 -0.3852 -3.1472
  780TIP3   OH223754   1.971   4.525  14.287  0.0813  0.5873 -0.3585
  780TIP3    H123755   1.973   4.429  14.294 -1.9805  0.3548 -1.7984
  780TIP3    H223756   1.934   4.555  14.370  1.5885  0.2360  0.4625
  781TIP3   OH223757   3.947   6.581   6.040 -0.1951 -0.3100  0.0787
  781TIP3    H123758   3.868   6.633   6.021  0.2346  0.3923  0.1986
  781TIP3    H223759   3.949   6.577   6.136 -0.0726 -0.3058  0.0754
  782TIP3   OH223760   6.100   3.374  16.396  0.1000 -0.0404  0.5388
  782TIP3    H123761   6.080   3.280  16.392  1.6791 -0.3751 -2.0186
  782TIP3    H223762   6.018   3.417  16.377 -0.3819 -0.9531  0.4905
  783TIP3   OH223763   4.465   5.389  11.599  0.0306 -0.3520  0.1265
  783TIP3    H123764   4.527   5.447  11.644 -1.6165  0.7317  1.0879
  783TIP3    H223765   4.479   5.407  11.506 -0.3700  1.5550  0.3997
  784TIP3   OH223766   3.409   3.938  12.287 -0.1969 -0.3019 -0.3382
  784TIP3    H123767   3.478   4.000  12.266  1.1247 -1.0607  1.5257
  784TIP3    H223768   3.410   3.875  12.215  1.5898 -0.7324  0.0306
  785TIP3   OH223769   6.342   3.480  10.904  0.5880  0.1219  0.3723
  785TIP3    H123770   6.342   3.412  10.836 -0.3882  0.7042 -0.2457
  785TIP3    H223771   6.378   3.557  10.860 -1.0435  0.8092  0.1487
  786TIP3   OH223772   0.071   4.513  16.644 -0.0240 -0.1199 -0.4636
  786TIP3    H123773   0.033   4.493  16.559  1.7962 -0.8573 -1.1520
  786TIP3    H223774   0.040   4.443  16.702  0.1330 -0.6002 -0.9598
  787TIP3   OH223775   4.677   3.896  12.264 -0.0833  0.1828 -0.5717
  787TIP3    H123776   4.602   3.915  12.320  0.5539  0.8056  0.0873
  787TIP3    H223777   4.653   3.816  12.218 -1.2234  0.4620 -0.5012
  788TIP3   OH223778   6.654   1.862   0.399  0.7940 -0.0505 -0.0241
  788TIP3    H123779   6.564   1.888   0.378  0.1414 -1.2189  1.1656
  788TIP3    H223780   6.708   1.912   0.339 -0.6455  0.8053 -0.6592
  789TIP3   OH223781   2.557   5.974  12.684 -0.0369  0.0517  0.5627
  789TIP3    H123782   2.508   5.917  12.625 -0.4373 -0.0754  1.0077
  789TIP3    H223783   2.504   6.053  12.691 -0.1667 -0.0698  1.0139
  790TIP3   OH223784   1.270   6.166   2.288  0.1274 -0.2985  0.2981
  790TIP3    H123785   1.359   6.177   2.253  1.0302 -0.6498  2.3563
  790TIP3    H223786   1.278   6.096   2.353 -2.2292 -2.2125 -1.2947
  791TIP3   OH223787   2.962   2.907  14.719  0.6088  0.6776 -0.4392
  791TIP3    H123788   2.979   2.998  14.742  1.3282  0.5215 -0.3450
  791TIP3    H223789   3.048   2.869  14.704  0.3752 -0.1951  0.3366
  792TIP3   OH223790   1.536   4.198   0.306  0.2994  0.2082  0.3111
  792TIP3    H123791   1.508   4.252   0.380 -1.6774  0.2101 -0.3865
  792TIP3    H223792   1.500   4.112   0.324  0.0899  0.1235 -0.4809
  793TIP3   OH223793   0.076   3.094  12.817  0.1028  0.5064 -0.0113
  793TIP3    H123794  -0.002   3.064  12.864 -0.8737  1.1333 -1.1772
  793TIP3    H223795   0.120   3.153  12.878 -0.1302 -0.1383  0.7923
  794TIP3   OH223796   4.297   1.052  11.543  0.1687 -0.0490  0.7221
  794TIP3    H123797   4.312   1.095  11.627 -0.5348  1.2324  0.2314
  794TIP3    H223798   4.204   1.065  11.525  0.5119  0.6661 -0.7362
  795TIP3   OH223799   2.190   5.858   2.506 -0.0942 -0.0962  0.1944
  795TIP3    H123800   2.168   5.825   2.418 -2.4685  0.6545  0.4156
  795TIP3    H223801   2.187   5.780   2.562  1.2792 -0.5535 -0.3373
  796TIP3   OH223802   2.554   0.620   1.691  0.2988  0.2864  0.2704
  796TIP3    H123803   2.625   0.556   1.685 -1.3378 -1.6720  0.7144
  796TIP3    H223804   2.505   0.609   1.610  0.6773  1.9306 -0.2308
  797TIP3   OH223805   3.320   1.104   5.036 -0.2400  0.0684  0.2341
  797TIP3    H123806   3.229   1.095   5.067  0.3006  1.6909  2.5325
  797TIP3    H223807   3.373   1.067   5.107  0.9361 -0.8941 -1.0966
  798TIP3   OH223808   6.132   3.942  12.300 -0.3707  0.4883 -0.1945
  798TIP3    H123809   6.050   3.919  12.343 -0.6538 -0.2306 -1.0883
  798TIP3    H223810   6.200   3.920  12.364 -0.8583  1.0187  0.5185
  799TIP3   OH223811   0.269   0.230  11.898  0.4445  0.3698  0.1102
  799TIP3    H123812   0.245   0.184  11.979  1.8443 -0.7182 -0.0671
  799TIP3    H223813   0.281   0.160  11.834  0.9511  1.1171 -0.6221
  800TIP3   OH223814   0.871   6.666   5.590 -0.8449 -0.2637  0.3361
  800TIP3    H123815   0.836   6.587   5.632  0.5062 -0.0310  2.0178
  800TIP3    H223816   0.866   6.733   5.658 -0.0087  0.5341 -0.3765
  801TIP3   OH223817   5.472   1.734   0.421  0.3865  0.2976 -0.0745
  801TIP3    H123818   5.388   1.770   0.391 -0.2492 -0.1973  1.0656
  801TIP3    H223819   5.516   1.807   0.463  1.0106  0.8348 -1.5978
  802TIP3   OH223820   0.499   6.700  15.900  0.4243 -0.3035  0.2697
  802TIP3    H123821   0.469   6.768  15.961 -0.7877  0.6226 -1.2806
  802TIP3    H223822   0.511   6.622  15.955 -2.9458 -0.1825  1.4018
  803TIP3   OH223823   6.562   2.439  13.532 -0.2231 -0.2809  0.5060
  803TIP3    H123824   6.496   2.378  13.565 -1.6363  0.1745 -1.2572
  803TIP3    H223825   6.590   2.402  13.448  1.5552 -0.2902  1.0735
  804TIP3   OH223826   3.983   3.897   4.685 -0.4284 -0.3885  0.2460
  804TIP3    H123827   4.023   3.813   4.706 -0.4116 -0.4011  0.1629
  804TIP3    H223828   4.024   3.923   4.602 -1.4650 -0.9739 -0.4751
  805TIP3   OH223829   4.347   4.361  13.037  0.3359  0.1254 -0.3485
  805TIP3    H123830   4.270   4.336  13.087 -0.0881 -0.2831 -1.1801
  805TIP3    H223831   4.335   4.455  13.021  0.5416  0.2883  0.4102
  806TIP3   OH223832   0.830   4.656  13.649 -0.3086  0.3492  0.1117
  806TIP3    H123833   0.864   4.573  13.684  1.2820 -0.7091 -3.5433
  806TIP3    H223834   0.883   4.723  13.692 -1.7504 -0.3107  3.2950
  807TIP3   OH223835   4.839   6.624  13.665 -0.5759  0.5166  0.1010
  807TIP3    H123836   4.810   6.652  13.579  0.6429  1.0606 -0.1612
  807TIP3    H223837   4.888   6.543  13.648  0.1721  0.9404  0.1844
  808TIP3   OH223838   4.191   5.231  12.302  0.3379 -0.5323 -0.3449
  808TIP3    H123839   4.136   5.171  12.252 -1.0619 -1.5002  2.1388
  808TIP3    H223840   4.188   5.197  12.391  2.3234  1.3228  0.5132
  809TIP3   OH223841   6.534   5.182  15.448 -0.3303 -0.7074 -0.3112
  809TIP3    H123842   6.581   5.222  15.520 -1.0582 -0.7367  0.1882
  809TIP3    H223843   6.446   5.166  15.482 -0.9916  0.1954 -1.5135
  810TIP3   OH223844   2.619   4.957  11.585  0.4716  0.2225  0.1961
  810TIP3    H123845   2.637   5.042  11.543  0.7567 -0.0801 -0.3039
  810TIP3    H223846   2.564   4.979  11.661 -2.3320  0.5490 -1.7637
  811TIP3   OH223847   4.943   1.558   3.879  0.8061 -0.2193 -0.3996
  811TIP3    H123848   4.989   1.637   3.906 -0.3100  0.5836 -0.7549
  811TIP3    H223849   4.918   1.574   3.788 -2.4982  0.6188  0.4958
  812TIP3   OH223850   0.921   4.157  14.995  0.2893 -0.3198  0.0005
  812TIP3    H123851   1.009   4.162  15.034  0.1958 -1.0089  0.3284
  812TIP3    H223852   0.865   4.130  15.068  0.0906 -1.5206 -0.5617
  813TIP3   OH223853   5.583   4.035   2.091  0.8704  0.8607  0.2007
  813TIP3    H123854   5.676   4.015   2.088  0.8852  1.0618 -1.4466
  813TIP3    H223855   5.547   3.971   2.153  1.6643 -1.1055 -1.2755
  814TIP3   OH223856   5.007   1.378   2.111 -0.1662 -0.6136 -0.3837
  814TIP3    H123857   5.073   1.316   2.142  0.6835  0.2170 -0.5062
  814TIP3    H223858   4.993   1.437   2.185  0.8166  0.5083 -1.0572
  815TIP3   OH223859   6.719   1.709  11.373  0.2313 -0.6564 -0.0203
  815TIP3    H123860   6.690   1.800  11.366 -1.3775 -0.9138  2.2117
  815TIP3    H223861   6.800   1.713  11.425  0.0102 -0.5231  0.3123
  816TIP3   OH223862   5.474   3.599   2.698  0.2923  0.2525 -0.4383
  816TIP3    H123863   5.381   3.600   2.722  0.7127  0.5563  1.3880
  816TIP3    H223864   5.513   3.667   2.754  1.8464 -0.9158 -0.0315
  817TIP3   OH223865   2.013   5.169  16.947 -0.7837  0.0929  0.1822
  817TIP3    H123866   1.993   5.115  16.870 -1.3012  0.3653  0.1279
  817TIP3    H223867   1.937   5.160  17.004 -0.8582  0.7318  0.1904
  818TIP3   OH223868   4.865   5.591   0.088 -0.3153  0.2732 -0.2952
  818TIP3    H123869   4.921   5.570   0.014 -0.3810 -0.1266 -0.2365
  818TIP3    H223870   4.918   5.571   0.165 -0.6338 -0.3927 -0.2399
  819TIP3   OH223871   3.002   1.526   5.651 -0.1306 -0.0340  0.0426
  819TIP3    H123872   2.927   1.555   5.704  0.0774 -0.8203  0.7822
  819TIP3    H223873   3.019   1.436   5.679  0.8188 -0.0192 -0.4287
  820TIP3   OH223874   6.098   3.644  15.116  0.1718 -0.2273  0.4474
  820TIP3    H123875   6.066   3.716  15.061  0.0373  0.4390  1.3713
  820TIP3    H223876   6.159   3.685  15.177  1.0610 -1.1213  0.1737
  821TIP3   OH223877   2.084   5.520  11.426 -0.3233 -0.2067 -0.0455
  821TIP3    H123878   2.001   5.563  11.406 -0.0426  0.4248  0.1250
  821TIP3    H223879   2.079   5.436  11.380  0.0009  0.8781 -2.2311
  822TIP3   OH223880   2.659   2.206   5.649  0.2475 -0.8225 -0.2249
  822TIP3    H123881   2.719   2.242   5.715  0.4851 -1.5641 -0.0246
  822TIP3    H223882   2.572   2.228   5.681  0.3492 -1.4171  0.4963
  823TIP3   OH223883   4.194   3.296  10.951  0.3219 -0.2263 -0.0387
  823TIP3    H123884   4.241   3.282  11.033 -1.5518 -2.2965  0.7950
  823TIP3    H223885   4.169   3.389  10.953  0.1670 -0.2656  1.8525
  824TIP3   OH223886   1.245   4.515  16.062  0.0647 -0.1640  0.2975
  824TIP3    H123887   1.257   4.435  16.011 -1.3100 -1.1799  1.4924
  824TIP3    H223888   1.287   4.496  16.146  0.8681  0.8868  0.1686
  825TIP3   OH223889   2.272   3.616  15.064 -0.3619 -0.7084  0.5042
  825TIP3    H123890   2.189   3.651  15.033  0.2440 -0.0487 -0.4703
  825TIP3    H223891   2.293   3.668  15.141 -0.6826 -0.6336  0.5420
  826TIP3   OH223892   1.832   0.677   0.490 -0.2645 -0.1857  0.4661
  826TIP3    H123893   1.857   0.769   0.485 -0.3635 -0.2059 -0.6479
  826TIP3    H223894   1.797   0.666   0.579 -1.6050  1.2051  0.1565
  827TIP3   OH223895   3.208   6.774  16.722 -0.5353 -0.4257 -0.0438
  827TIP3    H123896   3.272   6.788  16.791  1.4767  1.0632 -2.0814
  827TIP3    H223897   3.153   6.702  16.755 -0.0452  0.5456  3.2713
  828TIP3   OH223898   4.249   0.267   3.098 -0.2788 -0.5547 -0.3268
  828TIP3    H123899   4.277   0.186   3.057  3.2157  1.2216 -1.7856
  828TIP3    H223900   4.294   0.268   3.183 -0.8740 -0.4033  0.0003
  829TIP3   OH223901   3.858   3.552  15.988 -0.3524  0.1936  0.9323
  829TIP3    H123902   3.903   3.468  15.998 -1.7332 -0.6819  0.0509
  829TIP3    H223903   3.929   3.617  15.989  1.2117 -1.2405 -2.0587
  830TIP3   OH223904   1.647   0.829  13.254  0.1043 -0.0723 -0.2082
  830TIP3    H123905   1.607   0.792  13.176 -0.2498  0.4310 -0.2719
  830TIP3    H223906   1.639   0.760  13.320  0.2315 -0.4270 -0.5595
  831TIP3   OH223907   5.585   2.095   6.214 -0.3062 -0.2711  0.1235
  831TIP3    H123908   5.571   2.081   6.308 -1.2303  0.6438  0.1389
  831TIP3    H223909   5.499   2.121   6.181  0.4821  1.6063 -0.5652
  832TIP3   OH223910   1.263   1.090  16.597  0.0098 -0.1506  0.3153
  832TIP3    H123911   1.353   1.115  16.575 -0.3853  0.1901 -1.0173
  832TIP3    H223912   1.249   1.127  16.684  0.9846  0.2653  0.3145
  833TIP3   OH223913   4.888   5.162  16.974 -0.6059  0.2236 -0.1476
  833TIP3    H123914   4.827   5.236  16.980 -0.3463  0.5229 -1.0330
  833TIP3    H223915   4.935   5.163  17.057 -0.3487  1.2964 -0.2890
  834TIP3   OH223916   0.926   3.994  10.402 -0.9062  0.1168  0.1802
  834TIP3    H123917   0.897   4.041  10.324  0.2777  0.2812 -0.1784
  834TIP3    H223918   0.952   4.063  10.463 -2.1039  0.0011  0.8562
  835TIP3   OH223919   3.444   4.720  12.605  0.0676  0.1217  0.1508
  835TIP3    H123920   3.398   4.709  12.522  1.7920 -0.4148 -0.7987
  835TIP3    H223921   3.527   4.762  12.580 -0.4868  2.5496  1.9670
  836TIP3   OH223922   2.317   4.080   0.405 -0.1074 -0.5349 -0.1801
  836TIP3    H123923   2.245   4.062   0.346 -1.4920 -0.1711  1.3269
  836TIP3    H223924   2.387   4.114   0.349 -1.3148 -0.2877 -1.5905
  837TIP3   OH223925   3.804   4.871  15.631  0.1264 -0.0683  0.5111
  837TIP3    H123926   3.880   4.839  15.583  0.3707 -0.8068  1.3607
  837TIP3    H223927   3.729   4.849  15.575  0.5194  0.6514 -0.3240
  838TIP3   OH223928   0.264   5.796  14.730 -0.6581 -0.5051 -0.5744
  838TIP3    H123929   0.205   5.869  14.750  0.0008 -0.0331 -0.3134
  838TIP3    H223930   0.206   5.720  14.723 -1.4606  0.1822 -1.7231
  839TIP3   OH223931   5.250   1.966   0.399 -0.2983 -0.2236  0.8041
  839TIP3    H123932   5.234   2.052   0.361  0.1881  0.6439  2.5006
  839TIP3    H223933   5.201   1.906   0.343 -1.3140  1.2367  0.0737
  840TIP3   OH223934   6.132   6.401   4.843  0.2102  0.7425 -0.4794
  840TIP3    H123935   6.119   6.495   4.833 -0.0612  0.5903 -1.8198
  840TIP3    H223936   6.048   6.368   4.875  0.3008  0.9477 -0.0274
  841TIP3   OH223937   4.632   4.225   3.170  0.0427  0.1565  0.0934
  841TIP3    H123938   4.701   4.165   3.201 -0.5723 -0.9758 -0.6285
  841TIP3    H223939   4.675   4.310   3.166  0.6854 -0.0148  2.0986
  842TIP3   OH223940   3.878   1.318  13.984  0.2567 -0.5338  0.2382
  842TIP3    H123941   3.940   1.335  14.054 -0.9168  1.2954  0.8898
  842TIP3    H223942   3.805   1.273  14.027  0.6385 -1.7719 -0.3410
  843TIP3   OH223943   6.384   5.910  16.552  0.2955  0.4890 -0.1374
  843TIP3    H123944   6.391   5.924  16.646 -0.9151  0.7614 -0.0739
  843TIP3    H223945   6.344   5.823  16.544 -0.9694  1.0752 -0.3609
  844TIP3   OH223946   3.759   4.609  15.473 -0.4689  0.5891  0.3258
  844TIP3    H123947   3.750   4.608  15.569  0.7411  0.4370  0.4501
  844TIP3    H223948   3.844   4.650  15.458 -0.6432  0.5862 -0.6942
  845TIP3   OH223949   0.414   4.726  13.584  0.1909  0.1511 -0.6539
  845TIP3    H123950   0.377   4.762  13.664  2.4462  1.9497 -0.3206
  845TIP3    H223951   0.485   4.786  13.561  1.1399 -1.6130 -2.6989
  846TIP3   OH223952   2.795   3.905   2.897 -0.0264  0.5773  0.3817
  846TIP3    H123953   2.752   3.948   2.823 -0.5743 -0.7292 -0.0878
  846TIP3    H223954   2.850   3.974   2.936 -2.0935  2.1614  0.6830
  847TIP3   OH223955   1.009   0.637  16.605 -0.2097 -0.1887 -0.0509
  847TIP3    H123956   1.030   0.552  16.566  0.3505 -0.3799  0.6553
  847TIP3    H223957   1.094   0.673  16.630 -0.4771  0.4253 -0.0223
  848TIP3   OH223958   4.508   0.917  13.196 -0.3191  0.0262 -0.0590
  848TIP3    H123959   4.573   0.888  13.259  0.7478  0.6756 -0.8168
  848TIP3    H223960   4.510   0.851  13.127  1.0734  1.0840 -1.0864
  849TIP3   OH223961   2.452   0.705  14.120  0.6521  0.0069 -0.1551
  849TIP3    H123962   2.363   0.735  14.140  0.3348 -0.9917 -0.0282
  849TIP3    H223963   2.493   0.695  14.206  0.9229  0.5335 -0.2162
  850TIP3   OH223964   3.530   5.064  13.467  0.2648 -0.3194 -0.2317
  850TIP3    H123965   3.485   4.980  13.479  0.3842 -0.7517 -2.3061
  850TIP3    H223966   3.516   5.085  13.374 -1.5367  3.0362  0.6580
  851TIP3   OH223967   4.890   1.078   0.199 -0.6427 -0.4215  0.0291
  851TIP3    H123968   4.939   1.082   0.117  0.4940 -2.6190  0.5295
  851TIP3    H223969   4.888   1.168   0.230  1.2306  0.0723 -1.1121
  852TIP3   OH223970   4.670   4.761   5.073 -0.3349 -0.0167 -0.0569
  852TIP3    H123971   4.587   4.759   5.121  0.1776 -0.8072  0.8242
  852TIP3    H223972   4.712   4.678   5.094  0.3158  0.0127 -1.1683
  853TIP3   OH223973   0.355   5.773  15.295  0.6996  0.1911 -0.0130
  853TIP3    H123974   0.274   5.810  15.331  1.0088 -0.9079  1.9393
  853TIP3    H223975   0.333   5.748  15.205 -0.2993  2.4662 -0.4617
  854TIP3   OH223976   6.686   6.266   2.012  0.0523 -0.2041 -0.0326
  854TIP3    H123977   6.683   6.203   2.084  0.5276 -1.9230 -1.4618
  854TIP3    H223978   6.720   6.217   1.938 -0.3124  1.5457 -1.4307
  855TIP3   OH223979   5.631   6.663   1.542  0.8028 -0.1942  0.3861
  855TIP3    H123980   5.589   6.633   1.623  0.4416  1.1156  0.7046
  855TIP3    H223981   5.577   6.625   1.472  1.3729 -1.6970  0.7355
  856TIP3   OH223982   5.094   1.411   3.651 -0.4661  0.6034 -0.0885
  856TIP3    H123983   5.104   1.396   3.557  0.7611  0.5957  0.0260
  856TIP3    H223984   5.162   1.475   3.672 -1.1044  1.0323  0.6960
  857TIP3   OH223985   0.060   3.749   2.007  0.5151 -0.0709  0.0586
  857TIP3    H123986   0.086   3.834   1.972  2.1355  0.3747  2.1149
  857TIP3    H223987  -0.001   3.770   2.077  0.9341 -0.5735  0.5920
  858TIP3   OH223988   4.937   4.251   3.230  0.3651  0.3110 -0.1619
  858TIP3    H123989   4.930   4.225   3.322 -0.1958 -0.1774 -0.3327
  858TIP3    H223990   4.899   4.339   3.226 -0.2197  0.0733 -0.0285
  859TIP3   OH223991   0.775   2.562  13.510 -0.2803 -0.6277 -0.3835
  859TIP3    H123992   0.761   2.653  13.486  0.2388 -0.3513  0.3141
  859TIP3    H223993   0.691   2.519  13.493 -0.2671 -0.2222 -1.5749
  860TIP3   OH223994   1.384   1.709  11.443  0.0453  0.2493  0.0335
  860TIP3    H123995   1.458   1.708  11.503 -0.6220  0.0564  0.8685
  860TIP3    H223996   1.321   1.770  11.482 -0.8090 -0.6188  0.0606
  861TIP3   OH223997   6.348   3.554  12.663  0.1703 -0.1498  0.1208
  861TIP3    H123998   6.320   3.589  12.747 -1.7075  1.0086 -0.9082
  861TIP3    H223999   6.269   3.514  12.626  0.5385  0.6857 -1.7007
  862TIP3   OH224000   6.565   2.085   2.245 -0.2252  0.2477  0.2153
  862TIP3    H124001   6.489   2.107   2.299  0.1935 -0.0582  0.9516
  862TIP3    H224002   6.622   2.035   2.304  1.0760  1.4750  0.0383
  863TIP3   OH224003   3.245   3.169   5.630  0.0349  0.7115 -0.1002
  863TIP3    H124004   3.317   3.153   5.571  0.0069 -1.4811  0.3531
  863TIP3    H224005   3.259   3.257   5.663  2.9098  0.1245  0.4965
  864TIP3   OH224006   3.715   6.779  11.303  0.3468 -0.1538  0.5533
  864TIP3    H124007   3.693   6.687  11.291  1.3436 -0.3267 -0.1381
  864TIP3    H224008   3.761   6.803  11.223 -1.0328  1.3262  0.1561
  865TIP3   OH224009   6.284   6.158   4.193 -0.5041  0.1575  0.4575
  865TIP3    H124010   6.238   6.148   4.277  0.1057 -0.6663  0.7044
  865TIP3    H224011   6.293   6.253   4.182 -1.8668  0.3267  0.6103
  866TIP3   OH224012   2.083   3.155  13.376 -0.4788  0.9771 -0.3231
  866TIP3    H124013   2.033   3.080  13.343  0.6920 -0.0368  0.0936
  866TIP3    H224014   2.126   3.191  13.299  0.2021  0.2154 -0.3153
  867TIP3   OH224015   0.361   1.577   4.814  0.2000 -0.7230  0.1152
  867TIP3    H124016   0.273   1.573   4.852  0.5709 -0.6142  1.0146
  867TIP3    H224017   0.347   1.571   4.719 -0.9677  1.4915  0.0744
  868TIP3   OH224018   3.164   4.030   4.026 -0.2642  1.0817  0.3852
  868TIP3    H124019   3.200   3.944   4.047 -1.2483  0.9282  1.5546
  868TIP3    H224020   3.177   4.039   3.932  0.2860 -0.1386  0.3198
  869TIP3   OH224021   0.184   0.233  15.384  0.3405 -0.2553 -0.0796
  869TIP3    H124022   0.199   0.295  15.456  1.1655 -0.2062 -0.2835
  869TIP3    H224023   0.268   0.189  15.373  0.6345  0.6956 -1.9148
  870TIP3   OH224024   5.744   6.634  12.684  0.2937  0.6882 -0.1074
  870TIP3    H124025   5.738   6.725  12.655  0.1511  0.3308 -1.2302
  870TIP3    H224026   5.835   6.624  12.712 -0.3329  1.9547  2.8249
  871TIP3   OH224027   0.279   1.020   3.312  0.0036  0.2626 -0.5128
  871TIP3    H124028   0.259   1.113   3.322 -2.4382 -0.2558  0.0805
  871TIP3    H224029   0.322   0.996   3.394  1.5056  1.0007 -1.0318
  872TIP3   OH224030   6.187   0.382   0.788 -0.3129  0.1232 -1.1425
  872TIP3    H124031   6.117   0.445   0.805  1.2621  1.2153  1.9671
  872TIP3    H224032   6.188   0.325   0.864 -0.0906 -2.2169 -2.7791
  873TIP3   OH224033   1.723   1.424   2.357 -0.7188 -0.1450  0.3087
  873TIP3    H124034   1.749   1.427   2.449 -0.1095 -1.6704  0.2178
  873TIP3    H224035   1.627   1.424   2.359 -0.7073 -0.2809  0.9583
  874TIP3   OH224036   6.007   0.701   0.371  0.5335 -0.1220  0.2254
  874TIP3    H124037   5.930   0.703   0.314 -0.7745  1.8225  1.9339
  874TIP3    H224038   5.984   0.638   0.439  1.3844 -1.1236 -0.3712
  875TIP3   OH224039   1.084   2.943   0.242 -0.2888  0.3922  0.1182
  875TIP3    H124040   1.065   2.851   0.227 -1.0694  0.7596 -1.2548
  875TIP3    H224041   1.096   2.981   0.155  2.6460  1.0943  0.7031
  876TIP3   OH224042   4.299   1.794   5.133 -0.2078  0.2677 -0.3258
  876TIP3    H124043   4.363   1.736   5.091 -1.4165 -0.9301 -0.5854
  876TIP3    H224044   4.220   1.784   5.080 -0.9654  0.8241  0.6699
  877TIP3   OH224045   6.677   5.858   4.772  0.0200 -0.4596  0.7191
  877TIP3    H124046   6.651   5.939   4.730  2.0120 -0.5265 -0.7717
  877TIP3    H224047   6.595   5.822   4.808 -1.1384  1.4027  0.0647
  878TIP3   OH224048   1.624   0.157   0.057  0.2027  0.1630 -0.3057
  878TIP3    H124049   1.571   0.236   0.057 -0.1854 -0.0761  1.1288
  878TIP3    H224050   1.588   0.104  -0.015 -1.0153  0.3334  0.1579
  879TIP3   OH224051   4.271   0.180  13.278  0.3286  0.4075  0.0283
  879TIP3    H124052   4.351   0.156  13.326 -0.3602 -1.9428  0.1302
  879TIP3    H224053   4.200   0.153  13.336 -0.5374  0.3419 -1.0445
  880TIP3   OH224054   1.884   4.906   5.943  0.6898  0.1126 -0.3956
  880TIP3    H124055   1.839   4.871   6.020  0.0619 -2.9381 -1.9847
  880TIP3    H224056   1.975   4.881   5.955  0.2155 -2.5140 -1.6049
  881TIP3   OH224057   6.094   2.209  14.395 -0.3991  0.0550 -0.6276
  881TIP3    H124058   6.073   2.116  14.388 -2.4761  0.4306 -0.1334
  881TIP3    H224059   6.139   2.218  14.479 -2.5000 -0.1783  0.5771
  882TIP3   OH224060   0.606   1.468  13.207 -0.5692 -0.1134 -0.6592
  882TIP3    H124061   0.699   1.479  13.187 -0.5588 -0.0029 -0.5477
  882TIP3    H224062   0.595   1.505  13.294 -0.0136 -3.2522  0.8968
  883TIP3   OH224063   3.910   3.717   0.698  0.5364  0.0887  0.3695
  883TIP3    H124064   3.815   3.703   0.708  0.5707  0.0211  0.5983
  883TIP3    H224065   3.940   3.740   0.785  0.2686  2.9713 -0.1922
  884TIP3   OH224066   4.117   4.928  14.481  0.4357 -0.2680 -0.8445
  884TIP3    H124067   4.202   4.937  14.439  0.5644 -1.1120 -0.7889
  884TIP3    H224068   4.057   4.978  14.425  1.4597  3.1683  0.8788
  885TIP3   OH224069   0.586   5.407   3.615  0.3480 -0.2911 -0.3574
  885TIP3    H124070   0.609   5.339   3.678 -2.2348 -0.4117  0.5628
  885TIP3    H224071   0.575   5.486   3.668  1.0086  0.3074 -1.0920
  886TIP3   OH224072   2.589   6.257   4.818 -0.3346  0.1472 -0.3031
  886TIP3    H124073   2.563   6.178   4.866 -1.1310  0.7651  0.3061
  886TIP3    H224074   2.567   6.237   4.727  2.4478 -1.5592 -0.7063
  887TIP3   OH224075   1.728   3.403   2.725 -0.2019  0.1101  0.6061
  887TIP3    H124076   1.774   3.483   2.701  0.3960 -0.3178  0.3247
  887TIP3    H224077   1.669   3.386   2.652 -1.5907  1.2172  1.4064
  888TIP3   OH224078   0.995   1.434   0.939 -0.2040 -1.2045  0.0643
  888TIP3    H124079   0.930   1.474   0.882 -0.2948 -0.8887  0.3927
  888TIP3    H224080   0.945   1.397   1.012  0.1530  1.3778  1.7537
  889TIP3   OH224081   6.583   4.779  12.269 -0.1318  0.4185  0.1803
  889TIP3    H124082   6.662   4.760  12.318  0.1865  1.3088  0.0345
  889TIP3    H224083   6.598   4.866  12.232 -0.5808 -0.0036 -1.0465
  890TIP3   OH224084   2.566   3.978  15.711 -0.2746  0.6216  0.2645
  890TIP3    H124085   2.513   3.962  15.789 -0.5230 -0.2830 -0.0701
  890TIP3    H224086   2.545   3.905  15.653  1.0078  0.4935 -0.0700
  891TIP3   OH224087   5.659   5.923   5.244  0.2705 -0.2354 -0.1122
  891TIP3    H124088   5.619   5.866   5.179  0.6923 -2.7206  1.6828
  891TIP3    H224089   5.753   5.919   5.225  0.3579 -0.6652  0.3785
  892TIP3   OH224090   3.250   3.295   1.166  0.4775 -0.1770  0.2017
  892TIP3    H124091   3.163   3.333   1.178  0.5795  0.1869 -0.1752
  892TIP3    H224092   3.268   3.307   1.073  0.6615 -0.8378  0.1502
  893TIP3   OH224093   5.646   4.999  14.251  0.2573 -1.4068  0.9873
  893TIP3    H124094   5.631   4.910  14.219 -5.2269 -0.9199  1.1841
  893TIP3    H224095   5.640   5.054  14.173 -0.3883 -1.0248  1.2960
  894TIP3   OH224096   0.486   6.185  16.460 -0.0209  0.5099 -0.2441
  894TIP3    H124097   0.540   6.168  16.383 -2.2997 -1.6957 -1.5142
  894TIP3    H224098   0.422   6.250  16.431  0.5377  1.4329  0.5485
  895TIP3   OH224099   3.008   3.882  16.766 -0.1226  0.0203  0.0285
  895TIP3    H124100   2.961   3.807  16.730  1.3679 -0.8870 -0.0931
  895TIP3    H224101   3.075   3.902  16.701 -0.8377  1.8579 -0.2172
  896TIP3   OH224102   5.718   3.882  17.030 -0.1080  0.0265  0.2356
  896TIP3    H124103   5.710   3.937  16.952  0.4511 -0.2504 -0.0245
  896TIP3    H224104   5.762   3.938  17.094 -1.7982  0.7246  0.8407
  897TIP3   OH224105   4.535   2.553  16.590 -0.5523 -0.4686 -0.2681
  897TIP3    H124106   4.550   2.569  16.497 -0.3566  2.0961  0.1449
  897TIP3    H224107   4.489   2.469  16.592 -0.5028 -0.6284 -2.6520
  898TIP3   OH224108   3.819   3.869  12.181 -0.6409  0.3400  0.5639
  898TIP3    H124109   3.818   3.808  12.254 -0.0336 -2.1914 -1.3823
  898TIP3    H224110   3.911   3.872  12.153 -1.1428 -0.5930 -1.4149
  899TIP3   OH224111   3.570   5.972   3.076  0.3312  0.2802  0.3725
  899TIP3    H124112   3.608   6.051   3.036  1.7861  0.4231  1.8946
  899TIP3    H224113   3.480   5.971   3.046  1.4229  0.0352 -3.3174
  900TIP3   OH224114   1.817   1.334   6.269  0.3527  0.4121  0.2557
  900TIP3    H124115   1.896   1.336   6.324 -0.5681 -0.1795  1.6759
  900TIP3    H224116   1.808   1.423   6.236  0.9528  0.7956  1.0861
  901TIP3   OH224117   6.575   3.785  17.223 -0.2493  0.0311  0.4568
  901TIP3    H124118   6.620   3.705  17.195 -0.7484 -0.3174  0.6313
  901TIP3    H224119   6.643   3.839  17.263 -0.0807 -0.6939  1.1569
  902TIP3   OH224120   0.614   5.024  16.333 -0.1724  0.1218  0.1478
  902TIP3    H124121   0.639   5.055  16.420  1.2415  2.5569 -1.0022
  902TIP3    H224122   0.612   4.929  16.341 -1.3941  0.2844  3.1314
  903TIP3   OH224123   0.895   2.376  14.411  0.3018  0.1353 -0.4191
  903TIP3    H124124   0.870   2.467  14.426  0.2898 -0.1897  1.8885
  903TIP3    H224125   0.980   2.367  14.453  0.3469 -0.9034 -0.6972
  904TIP3   OH224126   3.264   3.676   2.327 -0.1547 -0.5603  0.1311
  904TIP3    H124127   3.332   3.715   2.382 -1.6640  0.5764  1.2982
  904TIP3    H224128   3.300   3.591   2.301  1.0598 -0.6904  2.0128
  905TIP3   OH224129   2.115   1.084   1.682 -0.7108  0.4472 -0.2537
  905TIP3    H124130   2.142   1.175   1.670 -1.9050  0.7103 -1.1246
  905TIP3    H224131   2.032   1.090   1.730 -0.5564 -0.2090  0.1104
  906TIP3   OH224132   1.554   4.457  17.070 -0.3073  0.2819  0.6064
  906TIP3    H124133   1.582   4.473  16.980 -1.1840 -0.5101  0.1789
  906TIP3    H224134   1.487   4.524  17.087 -0.1112  0.4588  0.6917
  907TIP3   OH224135   6.191   1.872   3.284  0.0263 -0.4050 -0.2765
  907TIP3    H124136   6.260   1.888   3.219 -0.5952  0.4552 -0.7427
  907TIP3    H224137   6.125   1.939   3.266 -0.7907 -1.0161  0.3684
  908TIP3   OH224138   5.147   5.133   0.452  0.0639  0.4820  0.4889
  908TIP3    H124139   5.203   5.183   0.393 -1.0718  2.0909  0.7006
  908TIP3    H224140   5.109   5.199   0.511 -1.7796 -0.5642  0.5559
  909TIP3   OH224141   0.016   2.545  11.443  0.1973 -0.3436  0.6865
  909TIP3    H124142  -0.039   2.508  11.373  1.0238 -2.2515  0.9835
  909TIP3    H224143  -0.045   2.559  11.515 -0.6120  1.3651 -0.2685
  910TIP3   OH224144   5.158   2.519   6.624  0.6341 -0.2541 -0.5483
  910TIP3    H124145   5.146   2.603   6.670 -0.2724 -0.2204 -0.8210
  910TIP3    H224146   5.071   2.479   6.626  1.0505 -1.1660 -0.4731
  911TIP3   OH224147   3.919   0.721   3.335 -0.2591  0.1164 -0.0766
  911TIP3    H124148   3.859   0.678   3.273  2.0886  1.1349 -3.3153
  911TIP3    H224149   3.889   0.812   3.339  0.2104  0.2943 -0.5630
  912TIP3   OH224150   5.613   4.517  14.884  0.2755  0.1961 -0.2176
  912TIP3    H124151   5.694   4.492  14.839  0.5875  2.3438 -0.9170
  912TIP3    H224152   5.546   4.515  14.816 -0.0702 -0.4746  0.1252
  913TIP3   OH224153   4.307   1.201   3.885 -0.0694 -0.0287 -0.5467
  913TIP3    H124154   4.402   1.188   3.889 -0.3160 -2.4906 -1.0973
  913TIP3    H224155   4.284   1.241   3.969  1.4835  1.1437 -0.6297
  914TIP3   OH224156   0.275   6.060  12.584 -0.7076  0.8674 -0.3379
  914TIP3    H124157   0.343   6.010  12.629  0.1213  0.9192 -1.4746
  914TIP3    H224158   0.306   6.066  12.493 -3.4260 -1.2667 -1.5656
  915TIP3   OH224159   4.574   5.862  11.057 -0.0855  0.0215  0.0243
  915TIP3    H124160   4.507   5.808  11.015  0.2000  1.2859 -2.2772
  915TIP3    H224161   4.639   5.877  10.988 -0.2744  3.4270  0.3927
  916TIP3   OH224162   2.025   6.586   5.569 -0.3463 -0.1991 -0.6841
  916TIP3    H124163   2.014   6.507   5.515  1.5312  0.2265 -1.7958
  916TIP3    H224164   2.089   6.639   5.521  0.3131  0.8800  1.2774
  917TIP3   OH224165   5.507   3.012  12.378  0.1351 -0.8112  0.3329
  917TIP3    H124166   5.435   2.965  12.336 -0.1249 -1.2266  1.2027
  917TIP3    H224167   5.582   2.954  12.369 -0.1071 -1.2721  1.1085
  918TIP3   OH224168   3.587   1.275   0.483  0.3588 -0.0906  0.4383
  918TIP3    H124169   3.646   1.329   0.430  0.1211 -1.0012 -0.7990
  918TIP3    H224170   3.501   1.289   0.445  0.1769 -0.7461  0.5947
  919TIP3   OH224171   1.869   5.634  13.816  0.4181 -0.2385  0.2448
  919TIP3    H124172   1.824   5.645  13.900  2.5697 -0.1424  1.4542
  919TIP3    H224173   1.884   5.724  13.786 -1.2302 -0.2672 -0.8087
  920TIP3   OH224174   5.553   5.439  12.891 -0.0121  0.1358  0.0678
  920TIP3    H124175   5.526   5.520  12.849  0.1435 -0.0361 -0.3759
  920TIP3    H224176   5.590   5.466  12.975 -1.2587  0.3940  0.5426
  921TIP3   OH224177   2.594   0.155  11.697 -0.1154  0.2084 -0.0083
  921TIP3    H124178   2.679   0.111  11.695 -0.3941 -0.3266 -0.8118
  921TIP3    H224179   2.553   0.132  11.613 -0.6318  1.2927 -0.0740
  922TIP3   OH224180   6.722   3.698  14.623 -0.5270  0.4839 -0.1784
  922TIP3    H124181   6.745   3.655  14.705  0.5853  0.0554 -0.7032
  922TIP3    H224182   6.627   3.686  14.615 -0.4287 -0.7284  0.3274
  923TIP3   OH224183   4.877   6.129  11.271  0.4790 -0.2238 -0.1144
  923TIP3    H124184   4.886   6.089  11.184 -1.3083 -0.2986 -0.2993
  923TIP3    H224185   4.860   6.056  11.330 -1.5615  0.0753 -0.2562
  924TIP3   OH224186   0.538   4.113  16.139 -0.1188 -0.0295  0.9251
  924TIP3    H124187   0.623   4.123  16.095 -0.6898 -1.8701 -0.7877
  924TIP3    H224188   0.474   4.142  16.074 -0.8682  0.2098  1.7524
  925TIP3   OH224189   3.079   4.325   0.998 -0.6401 -0.4014 -0.0404
  925TIP3    H124190   3.071   4.417   1.024  2.5251  0.5275 -1.8103
  925TIP3    H224191   3.113   4.281   1.077 -0.3275  0.3761  0.2685
  926TIP3   OH224192   6.220   0.948  14.162  0.1842 -0.2838 -0.0655
  926TIP3    H124193   6.269   0.872  14.130  2.2914  0.3404  1.4568
  926TIP3    H224194   6.281   0.994  14.220 -1.2057  2.2832 -0.4719
  927TIP3   OH224195   0.356   4.659  17.069  0.1519  0.3124 -0.0892
  927TIP3    H124196   0.332   4.681  16.978  0.7678 -1.1094 -0.6190
  927TIP3    H224197   0.450   4.646  17.066  0.5159  2.1873  1.2079
  928TIP3   OH224198   2.401   5.416  12.067  0.3468 -0.4053 -0.2711
  928TIP3    H124199   2.419   5.475  11.994 -0.2994 -0.6217 -0.6092
  928TIP3    H224200   2.365   5.337  12.027  1.3444 -1.1129  0.1594
  929TIP3   OH224201   5.864   2.273   3.212  0.3798 -0.0361  0.3499
  929TIP3    H124202   5.814   2.288   3.132  0.6995 -1.2500 -0.1046
  929TIP3    H224203   5.812   2.315   3.281  0.2711  1.3238 -0.5212
  930TIP3   OH224204   3.304   4.997  15.673 -0.0671 -0.2477 -0.5130
  930TIP3    H124205   3.316   5.092  15.666  0.4179 -0.3952 -1.8705
  930TIP3    H224206   3.226   4.986  15.727  0.4782  0.8970  0.5701
  931TIP3   OH224207   1.874   0.669   1.380  0.2312  0.3547 -0.0555
  931TIP3    H124208   1.784   0.644   1.397  0.4523  0.6476  1.7967
  931TIP3    H224209   1.913   0.681   1.468  1.7059  1.4768 -0.8045
  932TIP3   OH224210   6.238   1.651   1.190  0.1875 -0.1830 -0.4086
  932TIP3    H124211   6.300   1.591   1.149  0.0525 -1.1791  0.7919
  932TIP3    H224212   6.185   1.684   1.117  1.1462 -0.4614 -1.2559
  933TIP3   OH224213   2.993   0.765  15.724  0.2898  0.2569  0.0123
  933TIP3    H124214   2.944   0.845  15.746 -0.7356 -0.4346  0.3319
  933TIP3    H224215   2.945   0.727  15.650 -0.0121 -0.7169  0.6827
  934TIP3   OH224216   0.575   5.442  10.997 -0.0660  0.3969  0.2754
  934TIP3    H124217   0.568   5.472  10.906  1.4533  1.2931  0.4290
  934TIP3    H224218   0.661   5.472  11.026 -0.7837  0.7088  2.2246
  935TIP3   OH224219   5.192   3.315  11.843  0.4427  0.4224 -0.0818
  935TIP3    H124220   5.236   3.344  11.764  0.5574  0.7932  0.1174
  935TIP3    H224221   5.261   3.315  11.910  0.3502  0.1024  0.0171
  936TIP3   OH224222   4.599   2.875   5.846  0.6180  0.0808  0.3912
  936TIP3    H124223   4.601   2.851   5.753  1.0547 -0.5771  0.5644
  936TIP3    H224224   4.551   2.958   5.848  2.1692  1.0614 -0.6426
  937TIP3   OH224225   2.091   6.268  13.960 -0.5258 -0.8156  0.3341
  937TIP3    H124226   2.185   6.263  13.976 -0.8330 -1.1922  2.2423
  937TIP3    H224227   2.066   6.179  13.934 -0.9066 -1.8114  3.6230
  938TIP3   OH224228   0.930   0.790  16.855  0.1691  0.3664 -0.4408
  938TIP3    H124229   1.005   0.766  16.801  1.6040 -0.6456  1.8692
  938TIP3    H224230   0.932   0.886  16.857  1.5594  0.3582 -0.2473
  939TIP3   OH224231   3.253   0.655  13.896 -0.2499 -0.3626  0.1733
  939TIP3    H124232   3.284   0.736  13.856  0.2063 -0.8969 -0.5802
  939TIP3    H224233   3.321   0.591  13.876 -0.4459 -0.8542  1.0449
  940TIP3   OH224234   2.533   6.607   2.300 -0.0748  0.0257  0.5184
  940TIP3    H124235   2.574   6.558   2.372  1.8409 -1.5968 -1.5240
  940TIP3    H224236   2.439   6.591   2.310  0.3812 -2.9968  0.7769
  941TIP3   OH224237   5.574   4.766  13.488  0.1981  0.2085  0.6161
  941TIP3    H124238   5.578   4.810  13.403  0.9292 -0.7404  0.1332
  941TIP3    H224239   5.511   4.696  13.476 -0.1179  0.4133  1.0395
  942TIP3   OH224240   6.491   1.462   0.514  0.4900 -0.4034  0.2397
  942TIP3    H124241   6.564   1.411   0.479  0.1612 -1.6813  1.3463
  942TIP3    H224242   6.439   1.400   0.565  0.2815  1.1090  1.9978
  943TIP3   OH224243   6.717   2.864  12.507  0.6068  0.0606  0.3585
  943TIP3    H124244   6.809   2.842  12.489  1.3068  2.4884  0.6736
  943TIP3    H224245   6.700   2.827  12.594  0.9980 -1.1241 -0.0482
  944TIP3   OH224246   6.215   1.513  15.830 -0.8861  0.0331  0.3784
  944TIP3    H124247   6.215   1.455  15.906  1.9247  1.5015  1.6617
  944TIP3    H224248   6.159   1.586  15.854 -0.5036  0.1883  0.8155
  945TIP3   OH224249   1.506   4.611   1.890 -0.0244  0.5149  0.1048
  945TIP3    H124250   1.557   4.567   1.822  0.8546  0.2255  0.9343
  945TIP3    H224251   1.558   4.688   1.912  0.4299 -0.1484  1.4511
  946TIP3   OH224252   5.744   1.143  14.469  0.9232 -0.0489  0.1798
  946TIP3    H124253   5.718   1.117  14.381  0.4624 -0.0973  0.3231
  946TIP3    H224254   5.817   1.086  14.491  0.9090 -0.1749 -0.0921
  947TIP3   OH224255   0.479   4.118  12.475  0.1683  0.4114  0.2239
  947TIP3    H124256   0.484   4.127  12.380  1.7472 -0.3044  0.2159
  947TIP3    H224257   0.471   4.208  12.507  2.3897  0.9083 -0.4639
  948TIP3   OH224258   6.359   4.828   4.199  0.5687 -0.1653 -0.2231
  948TIP3    H124259   6.375   4.861   4.110  0.1631  0.4166 -0.0846
  948TIP3    H224260   6.417   4.880   4.254 -0.3484  0.5965  0.0424
  949TIP3   OH224261   1.570   0.844  16.084  0.2740  0.2285 -0.2180
  949TIP3    H124262   1.586   0.929  16.124  0.0414 -0.1759  0.7471
  949TIP3    H224263   1.482   0.851  16.046 -0.4533 -0.1244  1.3481
  950TIP3   OH224264   4.070   0.711   6.277 -0.4714 -0.0706  0.0698
  950TIP3    H124265   4.053   0.800   6.308  0.6285  0.6621 -1.2917
  950TIP3    H224266   4.153   0.687   6.317 -1.4295 -1.0686  1.5398
  951TIP3   OH224267   5.809   2.673  15.683  0.5489  1.0506 -0.2845
  951TIP3    H124268   5.792   2.622  15.603  0.3976  2.1633 -0.9940
  951TIP3    H224269   5.798   2.611  15.754 -0.1744  0.2211 -1.0943
  952TIP3   OH224270   3.729   3.756  11.729  0.0102 -0.6184  0.7988
  952TIP3    H124271   3.761   3.771  11.641  1.7199  2.1284  1.7612
  952TIP3    H224272   3.657   3.693  11.719  1.1807 -1.6048 -2.2929
  953TIP3   OH224273   0.169   5.480  11.209 -0.1949  0.0521  0.3864
  953TIP3    H124274   0.220   5.554  11.241  0.8734 -0.1809 -0.6845
  953TIP3    H224275   0.235   5.414  11.187 -1.0159 -0.5813 -0.2303
  954TIP3   OH224276   3.505   4.346   0.543  0.7088  0.1881 -0.2891
  954TIP3    H124277   3.580   4.344   0.484  0.2193  0.0438 -0.9173
  954TIP3    H224278   3.429   4.331   0.486  0.3006 -0.8390  0.4825
  955TIP3   OH224279   0.205   1.249  15.324  0.3219  0.0623  0.4524
  955TIP3    H124280   0.287   1.261  15.371  0.2765  0.9774  0.3063
  955TIP3    H224281   0.156   1.330  15.339 -0.6333 -0.5394  0.6905
  956TIP3   OH224282   2.465   3.078  11.589  0.4935  0.0883  0.5036
  956TIP3    H124283   2.524   3.006  11.565 -0.6803 -1.1597  1.2474
  956TIP3    H224284   2.501   3.112  11.671  1.1085  0.4292  0.1002
  957TIP3   OH224285   1.598   0.087   4.113  0.3945 -0.1515  0.3830
  957TIP3    H124286   1.659   0.144   4.065 -1.5068  1.8657  0.2244
  957TIP3    H224287   1.585   0.131   4.197 -1.5465 -0.0512  0.0516
  958TIP3   OH224288   5.393   5.535  13.298 -0.2454 -0.1862 -0.1918
  958TIP3    H124289   5.320   5.585  13.336  0.3475 -0.2673  1.0978
  958TIP3    H224290   5.404   5.460  13.357  0.6334 -0.3818 -0.5893
  959TIP3   OH224291   0.213   4.665  11.467 -0.0652 -0.1648  0.2360
  959TIP3    H124292   0.218   4.579  11.426  0.2197  1.0601 -2.5416
  959TIP3    H224293   0.301   4.682  11.500  0.3580 -0.2291 -0.8290
  960TIP3   OH224294   5.316   2.804   0.173 -0.0107  0.8100  0.3764
  960TIP3    H124295   5.332   2.775   0.263 -0.2702 -2.8439 -0.5733
  960TIP3    H224296   5.276   2.890   0.182 -1.5737 -0.0910  3.8394
  961TIP3   OH224297   3.344   3.425   2.265 -0.3461  0.1651 -0.2905
  961TIP3    H124298   3.435   3.414   2.293  0.2082 -0.9756 -2.3492
  961TIP3    H224299   3.299   3.347   2.297 -0.4483  0.3908  0.1223
  962TIP3   OH224300   0.675   4.160   2.279  0.2420 -0.1533  0.2807
  962TIP3    H124301   0.669   4.253   2.302  0.9950 -0.1560  0.5076
  962TIP3    H224302   0.651   4.114   2.359 -0.1063 -0.1628  0.1753
  963TIP3   OH224303   1.027   6.332   5.409  0.8612  0.1645  0.4315
  963TIP3    H124304   0.959   6.326   5.477 -1.2933  0.0332 -1.6007
  963TIP3    H224305   1.089   6.263   5.432 -1.3610 -1.9138  0.7136
  964TIP3   OH224306   6.569   3.366  16.553 -0.0850 -0.4846 -0.8243
  964TIP3    H124307   6.638   3.432  16.546 -1.4630  1.0933 -0.2665
  964TIP3    H224308   6.519   3.393  16.630 -0.4344 -2.4686 -0.3181
  965TIP3   OH224309   6.702   6.638   4.718 -0.1099 -0.0723  0.2854
  965TIP3    H124310   6.694   6.725   4.680 -2.8099  0.6211  2.1745
  965TIP3    H224311   6.763   6.649   4.790  0.1491  0.0536  0.0506
  966TIP3   OH224312   6.028   6.703  15.594  0.0876 -0.1741  0.0020
  966TIP3    H124313   6.059   6.751  15.517 -1.9588  0.3479 -0.5688
  966TIP3    H224314   5.959   6.646  15.560 -0.7681 -0.0363  1.4270
  967TIP3   OH224315   0.196   4.155   4.940  0.3036  0.1392  0.2645
  967TIP3    H124316   0.244   4.164   4.858  0.1492  0.1907  0.1773
  967TIP3    H224317   0.236   4.080   4.984  2.8986  2.3070  1.8911
  968TIP3   OH224318   2.611   5.596  13.162  0.1958 -0.0186 -0.7662
  968TIP3    H124319   2.539   5.638  13.210  0.7791  1.1268 -0.8678
  968TIP3    H224320   2.591   5.502  13.166 -1.1790  0.2654 -0.5997
  969TIP3   OH224321   6.299   4.078   4.988  0.1941  0.2109 -0.2439
  969TIP3    H124322   6.352   4.139   5.041 -0.1177  0.8438 -0.6474
  969TIP3    H224323   6.363   4.023   4.944  0.4828  0.1853  0.1996
  970TIP3   OH224324   4.457   1.259   4.748  0.1775  0.3124 -0.3613
  970TIP3    H124325   4.371   1.244   4.709  0.7445  0.2162 -1.6595
  970TIP3    H224326   4.496   1.328   4.694  0.4804  1.1606  0.9122
  971TIP3   OH224327   4.475   0.134  16.289 -0.4151 -0.1860  0.5389
  971TIP3    H124328   4.473   0.039  16.279 -1.0103 -0.0872 -0.5242
  971TIP3    H224329   4.539   0.163  16.224 -0.6932  0.1702  0.4205
  972TIP3   OH224330   1.679   4.519   4.899  0.0562  0.0559 -0.3358
  972TIP3    H124331   1.751   4.564   4.944 -0.4667  1.7010 -1.0803
  972TIP3    H224332   1.722   4.467   4.832  0.7976 -1.8948  1.5343
  973TIP3   OH224333   2.953   4.839  13.482 -0.2030  0.1670  0.3380
  973TIP3    H124334   2.958   4.909  13.416 -1.7591 -0.0581 -0.0359
  973TIP3    H224335   2.936   4.886  13.564  1.1729  0.3964  0.5317
  974TIP3   OH224336   1.881   3.973   0.447 -0.2611  0.9212 -0.0956
  974TIP3    H124337   1.857   3.880   0.444 -0.5825  1.0231 -2.0280
  974TIP3    H224338   1.939   3.980   0.523 -1.0557 -0.6410  0.7139
  975TIP3   OH224339   4.451   4.463   3.458  0.5893 -0.0326 -0.3501
  975TIP3    H124340   4.453   4.510   3.375 -0.3801 -1.0081 -0.9633
  975TIP3    H224341   4.460   4.530   3.525  1.7225  0.7394 -1.2473
  976TIP3   OH224342   4.784   4.098  17.077 -0.1719  0.0431 -0.2424
  976TIP3    H124343   4.848   4.105  17.148  0.7196 -0.8587 -0.9198
  976TIP3    H224344   4.816   4.025  17.023 -1.9012 -0.5918 -0.4868
  977TIP3   OH224345   0.394   1.871  12.271 -0.2806 -0.2996 -0.2230
  977TIP3    H124346   0.443   1.795  12.304 -1.9875 -1.1486  0.4712
  977TIP3    H224347   0.353   1.909  12.349 -2.0027 -0.5797 -0.9422
  978TIP3   OH224348   0.616   4.395  16.236 -0.0380  0.2070 -0.2604
  978TIP3    H124349   0.568   4.317  16.207 -1.0772 -0.1216  2.0942
  978TIP3    H224350   0.547   4.457  16.259  0.6219  0.1127  2.1972
  979TIP3   OH224351   1.735   6.725   3.880 -0.4385 -0.1912 -0.0834
  979TIP3    H124352   1.748   6.799   3.821 -1.2314 -1.7558 -2.3631
  979TIP3    H224353   1.704   6.764   3.962  1.2940  2.1120 -0.4292
  980TIP3   OH224354   0.912   4.432   2.733 -0.0860 -0.2587 -0.2212
  980TIP3    H124355   0.898   4.520   2.699 -2.4646 -1.2337 -2.1044
  980TIP3    H224356   0.836   4.383   2.703  2.2107 -3.5278 -1.1828
  981TIP3   OH224357   0.376   5.416   0.395  0.0605  0.2835 -0.3500
  981TIP3    H124358   0.446   5.459   0.345 -0.7837  0.9452 -0.9975
  981TIP3    H224359   0.364   5.472   0.471  1.9792 -1.2104  1.1631
  982TIP3   OH224360   6.763   5.273   3.411 -0.6000 -0.3659 -0.5150
  982TIP3    H124361   6.671   5.254   3.430 -0.5802 -0.3688 -0.4170
  982TIP3    H224362   6.778   5.237   3.324 -0.5099 -0.9815 -0.2534
  983TIP3   OH224363   4.105   0.435   1.686  0.3662 -0.1945 -0.1398
  983TIP3    H124364   4.137   0.357   1.730 -1.5740 -1.5766 -1.0233
  983TIP3    H224365   4.062   0.486   1.755  0.3870 -0.6183  0.1896
  984TIP3   OH224366   3.456   3.843  14.129 -0.4394 -0.1450  0.3226
  984TIP3    H124367   3.504   3.923  14.151  1.3322 -0.6817 -1.3608
  984TIP3    H224368   3.391   3.872  14.065  1.4079 -0.2510 -1.7170
  985TIP3   OH224369   1.482   6.746  10.421  0.4013  0.0659 -0.9819
  985TIP3    H124370   1.544   6.712  10.357  2.1329 -1.2012  1.1950
  985TIP3    H224371   1.420   6.674  10.435 -0.0976  0.4161 -1.3872
  986TIP3   OH224372   2.322   3.585   1.894 -0.7339  1.2709 -0.0625
  986TIP3    H124373   2.298   3.575   1.986 -1.4087  1.5870 -0.1924
  986TIP3    H224374   2.387   3.654   1.894 -1.7187  2.2274  0.0546
  987TIP3   OH224375   4.464   5.061   1.138  0.4611 -0.0697  0.2639
  987TIP3    H124376   4.425   5.011   1.210  0.3631 -1.1801 -0.5198
  987TIP3    H224377   4.398   5.127   1.117 -0.2906 -0.8614  0.0547
  988TIP3   OH224378   5.984   6.634   4.796  0.0323 -0.4111  0.3492
  988TIP3    H124379   5.991   6.662   4.705 -0.8707 -0.8405  0.1282
  988TIP3    H224380   5.997   6.713   4.847  3.5258 -0.6032  0.0099
  989TIP3   OH224381   3.114   2.398   5.206  0.1284 -0.0420 -0.0669
  989TIP3    H124382   3.176   2.376   5.276  1.3234 -0.3830 -1.2004
  989TIP3    H224383   3.030   2.409   5.252  1.2786  2.0238  1.7584
  990TIP3   OH224384   6.571   4.216  16.350 -0.0692 -0.0092 -0.8689
  990TIP3    H124385   6.607   4.176  16.429  1.3308  0.9859 -0.9641
  990TIP3    H224386   6.499   4.158  16.325 -1.1216  0.1018  1.5908
  991TIP3   OH224387   2.859   0.021   2.255  0.6452  0.0317  0.2167
  991TIP3    H124388   2.947  -0.007   2.282  0.5482  0.0878  0.6038
  991TIP3    H224389   2.836  -0.038   2.183  0.5473 -0.7301  0.8567
  992TIP3   OH224390   6.595   4.299  13.743 -0.4241 -0.4107 -0.6298
  992TIP3    H124391   6.516   4.351  13.731 -2.3521 -3.5263 -3.1815
  992TIP3    H224392   6.647   4.315  13.664  0.5084  0.0288  0.0578
  993TIP3   OH224393   0.653   0.251  14.352  0.0294 -0.7426  0.3630
  993TIP3    H124394   0.659   0.327  14.295  0.3250  1.1822  2.8191
  993TIP3    H224395   0.741   0.241  14.390 -0.7130 -0.4277  2.2871
  994TIP3   OH224396   3.091   2.040   5.230  0.8634 -0.2266 -0.1835
  994TIP3    H124397   3.151   2.114   5.224  0.4299  0.1261 -0.2573
  994TIP3    H224398   3.007   2.074   5.198  0.4316 -0.4857  0.6383
  995TIP3   OH224399   4.085   0.143  12.578  0.1311 -0.6459 -0.8555
  995TIP3    H124400   4.046   0.206  12.640  0.7605 -0.6216 -0.4700
  995TIP3    H224401   4.011   0.095  12.542 -0.3071 -0.1170 -0.6659
  996TIP3   OH224402   1.454   5.960  11.243 -0.0221 -0.3897 -0.2579
  996TIP3    H124403   1.487   5.926  11.160 -1.9358 -2.9208 -0.1083
  996TIP3    H224404   1.500   5.908  11.310  0.4249  0.6060  0.2347
  997TIP3   OH224405   4.602   1.176   0.355  0.1881 -0.1357 -0.0078
  997TIP3    H124406   4.632   1.241   0.419 -1.0532 -0.0937  0.5605
  997TIP3    H224407   4.652   1.097   0.377  0.9447  0.3254 -0.0315
  998TIP3   OH224408   4.105   4.105  11.793  0.2285 -0.0091 -0.1221
  998TIP3    H124409   4.047   4.114  11.868 -2.3267 -0.6277 -1.8825
  998TIP3    H224410   4.142   4.017  11.802 -2.2709 -1.2276 -0.9435
  999TIP3   OH224411   1.854   5.881   3.971  0.0205 -0.1046  0.6936
  999TIP3    H124412   1.857   5.977   3.970  0.2324 -0.0972 -1.0872
  999TIP3    H224413   1.932   5.855   4.020 -0.2368  0.6177  1.5150
 1000TIP3   OH224414   0.569   5.596   3.802 -0.0190  0.0323  0.0562
 1000TIP3    H124415   0.557   5.642   3.885  1.9700  0.7728 -0.0088
 1000TIP3    H224416   0.628   5.524   3.823 -1.7842 -1.5323 -0.1814
 1001TIP3   OH224417   2.066   4.219   0.921 -0.3005 -0.3949 -0.1401
 1001TIP3    H124418   2.136   4.284   0.927  1.0404 -1.6399 -1.3677
 1001TIP3    H224419   2.009   4.252   0.852 -0.1136 -0.0855 -0.1516
 1002TIP3   OH224420   1.198   2.314   5.774  0.0154  0.0055  0.4635
 1002TIP3    H124421   1.109   2.349   5.781 -0.5063 -1.1585 -0.1430
 1002TIP3    H224422   1.219   2.285   5.863 -0.1629  0.3851  0.6325
 1003TIP3   OH224423   5.350   2.325   2.346 -0.5483 -0.3366  0.1948
 1003TIP3    H124424   5.403   2.365   2.415 -0.7267 -0.4184  0.3814
 1003TIP3    H224425   5.282   2.277   2.393 -0.0628 -1.2491 -0.0119
 1004TIP3   OH224426   3.662   4.440  12.812  0.0593  0.2075 -0.1273
 1004TIP3    H124427   3.637   4.363  12.761 -1.0672  0.1612  0.4770
 1004TIP3    H224428   3.678   4.508  12.747 -5.6505  1.5184 -0.6450
 1005TIP3   OH224429   3.128   5.458   3.263 -0.7064 -0.0579 -0.2659
 1005TIP3    H124430   3.055   5.489   3.210 -0.0621  0.3595 -0.9302
 1005TIP3    H224431   3.088   5.429   3.345 -2.2990 -4.3831 -2.2751
 1006TIP3   OH224432   2.395   3.953   5.418 -0.9032 -0.0890 -0.6042
 1006TIP3    H124433   2.490   3.940   5.412 -0.7217  0.8619 -0.0604
 1006TIP3    H224434   2.359   3.903   5.345 -0.1174 -1.7049  0.0428
 1007TIP3   OH224435   4.356   3.263   5.951  0.0174  0.4081 -0.3217
 1007TIP3    H124436   4.342   3.271   6.046  1.9366  0.2576  0.0249
 1007TIP3    H224437   4.288   3.316   5.912 -1.4817 -0.3726  1.1023
 1008TIP3   OH224438   0.151   5.670  15.557 -0.5106 -0.4340  0.4193
 1008TIP3    H124439   0.219   5.677  15.624 -1.2038  0.3053  1.0642
 1008TIP3    H224440   0.153   5.754  15.513 -2.1983  0.3039  1.6408
 1009TIP3   OH224441   0.306   0.322   2.390  0.4691  0.1905  0.3470
 1009TIP3    H124442   0.298   0.285   2.302 -0.0021 -0.0262  0.4746
 1009TIP3    H224443   0.251   0.400   2.387 -0.6196 -0.5307  0.8224
 1010TIP3   OH224444   6.476   6.204  16.069  0.1905  0.2844 -0.1363
 1010TIP3    H124445   6.466   6.231  16.160  1.5394  0.0860  0.0902
 1010TIP3    H224446   6.445   6.280  16.018  1.8315  1.4235  0.4934
 1011TIP3   OH224447   6.320   6.115  12.349  0.4612 -0.1364 -0.0996
 1011TIP3    H124448   6.360   6.181  12.405  2.9917 -0.6761 -1.1457
 1011TIP3    H224449   6.372   6.115  12.269 -0.2475 -2.4736 -0.6686
 1012TIP3   OH224450   0.321   3.352  15.450  0.0881  0.3068  0.1172
 1012TIP3    H124451   0.318   3.369  15.544  0.6485  1.6883 -0.1030
 1012TIP3    H224452   0.231   3.363  15.421 -0.0098  0.3092  0.4153
 1013TIP3   OH224453   2.397   3.853   3.769 -0.7449  0.6556  0.5229
 1013TIP3    H124454   2.486   3.844   3.736 -0.6103 -2.5804  1.4505
 1013TIP3    H224455   2.406   3.905   3.849  0.0602  1.5322 -0.1109
 1014TIP3   OH224456   4.800   2.945  15.455  0.2178  0.6599 -0.1736
 1014TIP3    H124457   4.778   3.014  15.392 -0.7557 -1.0131 -1.7688
 1014TIP3    H224458   4.895   2.951  15.465  0.2701  1.6148 -1.0320
 1015TIP3   OH224459   2.480   2.391  15.192  0.2910  0.3267  0.4337
 1015TIP3    H124460   2.414   2.352  15.135 -1.5973  0.1259  2.6249
 1015TIP3    H224461   2.441   2.473  15.221  1.0026  0.2179  1.7476
 1016TIP3   OH224462   4.220   4.030   1.884  0.0353 -0.0163  0.2736
 1016TIP3    H124463   4.167   3.973   1.828 -0.4843  1.6671 -1.0198
 1016TIP3    H224464   4.285   4.068   1.825  0.1565  0.9839  1.0270
 1017TIP3   OH224465   0.817   1.440  14.688  0.1301  0.3219  0.4000
 1017TIP3    H124466   0.894   1.494  14.704  1.0671 -0.6207 -0.7668
 1017TIP3    H224467   0.829   1.363  14.745  1.3351 -0.9941 -1.5147
 1018TIP3   OH224468   1.981   3.381  12.087  0.3182 -0.3057 -0.5650
 1018TIP3    H124469   1.985   3.473  12.061 -1.5463 -0.2397 -0.7634
 1018TIP3    H224470   1.918   3.342  12.026 -0.4051 -1.2467  0.7311
 1019TIP3   OH224471   3.847   5.757   4.189  0.4965 -0.2680  0.6771
 1019TIP3    H124472   3.816   5.740   4.278  0.1332 -1.3694  0.3518
 1019TIP3    H224473   3.825   5.678   4.140 -0.3177  0.7591 -0.6655
 1020TIP3   OH224474   2.091   4.348  13.555  0.3972 -0.4301 -0.1337
 1020TIP3    H124475   2.139   4.345  13.638  0.8944 -0.9989 -0.4355
 1020TIP3    H224476   2.157   4.331  13.488  0.1259  0.6952 -0.7114
 1021TIP3   OH224477   5.849   4.865  13.507  0.1081  0.2553 -0.4004
 1021TIP3    H124478   5.767   4.847  13.553 -1.0028  3.3916 -0.8861
 1021TIP3    H224479   5.911   4.888  13.576 -0.1737  0.3050 -0.1618
 1022TIP3   OH224480   1.822   3.570  15.376  0.5037  0.0223  0.3833
 1022TIP3    H124481   1.915   3.585  15.360  0.2715  0.8569 -0.2263
 1022TIP3    H224482   1.789   3.654  15.407  0.2253 -0.6460  1.9978
 1023TIP3   OH224483   5.977   2.345   4.387  0.5439 -0.1818 -0.4627
 1023TIP3    H124484   5.981   2.257   4.349 -1.8084 -0.4104 -0.3371
 1023TIP3    H224485   6.009   2.403   4.318  0.4406 -0.9763 -1.1996
 1024TIP3   OH224486   1.064   6.495   1.958  0.3076  0.1055 -0.3928
 1024TIP3    H124487   1.115   6.481   2.037  1.2043  1.2007 -0.7445
 1024TIP3    H224488   1.129   6.499   1.888 -0.2332  1.4716 -0.8582
 1025TIP3   OH224489   0.697   2.626   1.104  0.0306  0.3752 -0.5294
 1025TIP3    H124490   0.667   2.675   1.027 -1.0200 -0.7824 -0.8816
 1025TIP3    H224491   0.777   2.581   1.074  0.3303  0.9069 -0.5534
 1026TIP3   OH224492   1.001   2.651   5.985 -0.0434 -0.0967  0.3490
 1026TIP3    H124493   1.069   2.674   5.922 -1.6711  0.3952 -1.3338
 1026TIP3    H224494   0.990   2.729   6.039  0.4443 -0.0512  0.3887
 1027TIP3   OH224495   0.014   5.348   4.390 -0.1394 -0.3750 -0.3330
 1027TIP3    H124496   0.018   5.380   4.300  1.7774 -2.3056 -1.0016
 1027TIP3    H224497   0.066   5.412   4.440  0.5690 -0.4431 -0.9755
 1028TIP3   OH224498   5.751   2.266   6.080  0.5216 -0.2002 -0.1058
 1028TIP3    H124499   5.683   2.226   6.135  0.5213 -1.1622 -0.7803
 1028TIP3    H224500   5.812   2.305   6.142  0.2257 -0.7812  0.5643
 1029TIP3   OH224501   0.385   2.368   2.156  0.8173 -0.2629  0.6104
 1029TIP3    H124502   0.396   2.412   2.072 -1.1867 -1.7238 -0.5078
 1029TIP3    H224503   0.412   2.433   2.221  0.4823  1.6526 -1.0548
 1030TIP3   OH224504   3.739   4.085  16.089  0.9739 -0.0499  0.3457
 1030TIP3    H124505   3.676   4.092  16.161 -1.3063 -2.4555 -1.2124
 1030TIP3    H224506   3.719   4.159  16.033 -0.0650 -0.3976  0.2279
 1031TIP3   OH224507   1.386   0.811  12.432  0.2527  0.0751  0.7476
 1031TIP3    H124508   1.365   0.849  12.347  0.9650  0.3232  0.6729
 1031TIP3    H224509   1.476   0.779  12.423 -0.1123 -1.0749  1.0121
 1032TIP3   OH224510   5.286   1.295   2.634  0.0133 -0.2303  0.1214
 1032TIP3    H124511   5.378   1.316   2.616  0.1055  2.4686  3.0054
 1032TIP3    H224512   5.237   1.370   2.602 -1.0313 -0.8347  0.2442
 1033TIP3   OH224513   0.827   1.538   5.907  0.3369  0.6039  0.3912
 1033TIP3    H124514   0.866   1.476   5.969  2.1456  1.5888  0.2943
 1033TIP3    H224515   0.896   1.557   5.844 -0.4935  1.9521 -0.1696
 1034TIP3   OH224516   2.350   5.139  11.995 -0.4648 -0.5930 -0.0266
 1034TIP3    H124517   2.254   5.144  11.993 -0.5331 -1.3863  0.7013
 1034TIP3    H224518   2.369   5.065  12.053  0.5638 -1.4435 -1.3823
 1035TIP3   OH224519   6.366   6.603   0.263 -0.1598  0.0912 -0.3777
 1035TIP3    H124520   6.370   6.528   0.204  1.8473 -0.0142 -0.1965
 1035TIP3    H224521   6.448   6.598   0.312 -1.8426  0.0424  2.6223
 1036TIP3   OH224522   0.231   3.040   3.154 -0.3880  0.9906  0.2489
 1036TIP3    H124523   0.177   3.100   3.206 -1.5605  1.5615 -1.5299
 1036TIP3    H224524   0.172   3.007   3.087  0.4477 -1.5615  0.6462
 1037TIP3   OH224525   3.137   0.669   0.716 -0.1388 -0.0553 -0.3085
 1037TIP3    H124526   3.066   0.684   0.654  0.7203 -1.1128 -1.6174
 1037TIP3    H224527   3.190   0.748   0.712 -0.4590  0.1568 -0.4084
 1038TIP3   OH224528   4.457   5.951   2.164 -0.4243  0.1146  0.5181
 1038TIP3    H124529   4.467   6.031   2.216 -0.3280  2.0094 -2.1793
 1038TIP3    H224530   4.533   5.949   2.106 -0.4814 -1.9162  0.4251
 1039TIP3   OH224531   3.428   2.469   6.024 -0.5063 -0.4606  0.1643
 1039TIP3    H124532   3.384   2.541   5.979 -0.4827 -1.2623 -1.2065
 1039TIP3    H224533   3.413   2.486   6.117 -0.6663  1.1905 -0.1372
 1040TIP3   OH224534   3.299   0.131   3.092  0.4396 -0.0680  0.0661
 1040TIP3    H124535   3.268   0.155   3.180  2.4162 -0.2717  0.8531
 1040TIP3    H224536   3.298   0.214   3.044 -0.5384  0.0662  0.2794
 1041TIP3   OH224537   0.913   1.838  15.688 -0.2603 -0.3210  0.3815
 1041TIP3    H124538   0.859   1.789  15.750 -0.6797 -0.3297  0.0192
 1041TIP3    H224539   0.878   1.927  15.691 -0.2580 -0.3130  0.1868
 1042TIP3   OH224540   5.156   1.152   1.768 -0.1350  0.2782  0.1928
 1042TIP3    H124541   5.077   1.102   1.789 -0.0559 -0.1155 -0.4217
 1042TIP3    H224542   5.201   1.163   1.852  0.0163 -0.9934  0.2988
 1043TIP3   OH224543   6.446   3.061   4.747  0.1547 -0.2281 -0.1385
 1043TIP3    H124544   6.483   3.103   4.670  0.3769 -0.3592 -0.1029
 1043TIP3    H224545   6.498   3.093   4.821  1.4197 -1.8350 -0.2890
 1044TIP3   OH224546   5.045   1.089   6.603  0.1503 -0.1154  0.0704
 1044TIP3    H124547   5.017   1.172   6.642  0.5487  0.4579 -0.8290
 1044TIP3    H224548   5.023   1.023   6.668 -2.0167  0.4533 -0.0231
 1045TIP3   OH224549   5.739   0.819  15.229  0.0864 -0.1677 -0.4871
 1045TIP3    H124550   5.687   0.845  15.305  0.9592 -1.8506  0.7535
 1045TIP3    H224551   5.694   0.858  15.154 -0.6886  1.7090  0.8923
 1046TIP3   OH224552   0.469   3.664  12.833 -0.0777 -0.9164 -0.2333
 1046TIP3    H124553   0.486   3.722  12.908 -0.3248  0.0102 -0.8778
 1046TIP3    H224554   0.379   3.683  12.808  0.3289 -0.4297 -1.4174
 1047TIP3   OH224555   2.101   3.868  12.225  0.1863  0.1609  0.0831
 1047TIP3    H124556   2.154   3.792  12.249  0.7065  0.6514  0.5148
 1047TIP3    H224557   2.047   3.884  12.302  0.1342  0.2772  0.0220
 1048TIP3   OH224558   0.026   3.454   3.319  0.7359  0.1694  0.2089
 1048TIP3    H124559   0.051   3.539   3.354  3.8193 -1.0553  1.3161
 1048TIP3    H224560  -0.034   3.417   3.384 -1.1296  1.6409 -0.5809
 1049TIP3   OH224561   3.581   0.416  13.500  0.1948 -0.5066  0.1070
 1049TIP3    H124562   3.675   0.397  13.488  0.0768 -0.3739 -1.1854
 1049TIP3    H224563   3.554   0.455  13.417 -1.7672 -3.6334 -0.9223
 1050TIP3   OH224564   6.321   0.644  14.444  0.1306  0.0141 -0.1700
 1050TIP3    H124565   6.261   0.611  14.511 -0.3675  0.4122 -0.4127
 1050TIP3    H224566   6.408   0.633  14.482 -0.0519 -1.1208 -0.0497
 1051TIP3   OH224567   4.896   2.602  16.018 -0.6238 -0.1985  0.5472
 1051TIP3    H124568   4.810   2.604  15.975 -0.8366  1.6552  1.0054
 1051TIP3    H224569   4.899   2.517  16.061 -1.1249 -1.4045 -1.6323
 1052TIP3   OH224570   3.392   6.177  16.470 -0.3822  0.0697  0.2957
 1052TIP3    H124571   3.329   6.229  16.421 -0.1179 -0.5928 -0.7799
 1052TIP3    H224572   3.388   6.211  16.559 -2.1452  0.1415  0.2150
 1053TIP3   OH224573   4.040   0.676   1.161  0.0129  0.5293  0.0889
 1053TIP3    H124574   4.055   0.583   1.145  0.2889  0.6549 -0.4064
 1053TIP3    H224575   4.055   0.718   1.076 -0.4080  0.9901  0.2382
 1054TIP3   OH224576   4.918   5.955  15.944  0.3023  0.6729 -0.5243
 1054TIP3    H124577   4.973   5.877  15.951  0.3949  0.8913  2.7667
 1054TIP3    H224578   4.829   5.922  15.936  0.4884  0.2881 -1.0850
 1055TIP3   OH224579   2.164   0.816   4.796  0.6797  0.0545  0.5613
 1055TIP3    H124580   2.115   0.879   4.743  0.9468 -0.3333 -0.1527
 1055TIP3    H224581   2.097   0.756   4.830  0.6065 -0.2199 -0.0624
 1056TIP3   OH224582   1.987   3.616   4.176  0.1626 -0.0284 -0.5489
 1056TIP3    H124583   1.908   3.656   4.212  0.4012  0.5700 -0.6783
 1056TIP3    H224584   1.972   3.522   4.184  0.4783  0.0535  1.7302
 1057TIP3   OH224585   2.070   1.649  15.776  0.1542  0.1699  0.4546
 1057TIP3    H124586   2.139   1.655  15.843  1.6398 -1.4313 -0.8293
 1057TIP3    H224587   2.107   1.591  15.710 -1.1515  1.8597 -1.9014
 1058TIP3   OH224588   0.575   5.017  14.518  0.1308 -0.2992 -0.5246
 1058TIP3    H124589   0.613   5.078  14.581  2.0035 -0.0435 -1.8100
 1058TIP3    H224590   0.645   4.956  14.498 -0.7149 -0.9510 -1.6389
 1059TIP3   OH224591   4.264   3.859  11.275 -0.5513 -0.0425  0.0507
 1059TIP3    H124592   4.274   3.768  11.248  0.1988  0.2012 -0.5280
 1059TIP3    H224593   4.316   3.908  11.212  2.2493  0.4623  2.5810
 1060TIP3   OH224594   4.540   3.049   4.173 -0.3778 -0.2742  0.6646
 1060TIP3    H124595   4.449   3.072   4.186 -0.5095 -0.9580  1.0553
 1060TIP3    H224596   4.548   3.031   4.080 -0.5786  0.0347  0.5865
 1061TIP3   OH224597   0.305   4.801  16.224  0.3154  0.1035  0.9839
 1061TIP3    H124598   0.260   4.734  16.173  1.7077 -0.5937  0.6394
 1061TIP3    H224599   0.294   4.881  16.173  2.1199 -0.6803 -0.7423
 1062TIP3   OH224600   5.465   6.010   2.726  0.1187  0.0849  0.1440
 1062TIP3    H124601   5.456   5.950   2.800  0.1329  1.4687  1.3119
 1062TIP3    H224602   5.520   6.081   2.759 -2.6703  2.5155  0.0189
 1063TIP3   OH224603   3.552   4.351   3.030  0.0042 -0.1246  0.0744
 1063TIP3    H124604   3.541   4.430   3.083  0.2927  0.7392 -1.0961
 1063TIP3    H224605   3.629   4.370   2.976  1.8515 -2.3423  1.7119
 1064TIP3   OH224606   2.968   6.161  16.493  0.1217 -0.1245  0.2273
 1064TIP3    H124607   2.999   6.075  16.522  0.7481 -0.4722 -1.3432
 1064TIP3    H224608   3.040   6.194  16.439 -0.1652  1.3478  0.7071
 1065TIP3   OH224609   6.459   0.982   3.332  0.4364 -0.6298  0.1044
 1065TIP3    H124610   6.448   1.027   3.249 -0.7240 -1.2996 -0.1250
 1065TIP3    H224611   6.491   0.895   3.308  1.1644 -0.4654  0.4440
 1066TIP3   OH224612   4.583   3.072   5.362 -0.6926  0.0040 -0.1792
 1066TIP3    H124613   4.643   3.125   5.416  0.9349  0.1853 -2.0613
 1066TIP3    H224614   4.575   2.989   5.410 -0.7204  0.7587  1.1939
 1067TIP3   OH224615   0.602   3.746   6.151  0.2069  0.3952 -0.3763
 1067TIP3    H124616   0.594   3.651   6.159  0.1210  0.3944 -0.4757
 1067TIP3    H224617   0.594   3.764   6.058  1.4484  0.3894 -0.5006
 1068TIP3   OH224618   4.054   1.449  16.224 -0.7373  0.2644 -0.1157
 1068TIP3    H124619   4.050   1.531  16.273  0.1225 -0.3410  1.0209
 1068TIP3    H224620   4.047   1.475  16.133  1.7397  1.8292  0.0701
 1069TIP3   OH224621   2.700   1.783   4.368 -0.7700  0.5810  0.0920
 1069TIP3    H124622   2.673   1.800   4.278  1.1993  1.9473 -0.3200
 1069TIP3    H224623   2.653   1.849   4.419 -1.8062 -0.1263  0.0816
 1070TIP3   OH224624   5.334   2.950   2.596  0.1711 -0.2698 -0.2307
 1070TIP3    H124625   5.361   2.938   2.505 -1.6070 -0.3514 -0.7882
 1070TIP3    H224626   5.336   2.862   2.633 -3.2593 -1.0575 -1.4938
 1071TIP3   OH224627   3.918   1.563   1.941  0.2037  0.1325  0.3119
 1071TIP3    H124628   3.936   1.573   1.848 -2.1939  2.6737  0.0047
 1071TIP3    H224629   3.824   1.577   1.950 -0.2928 -3.2462  2.8062
 1072TIP3   OH224630   6.092   1.696  13.497 -0.3954 -0.8409  0.8299
 1072TIP3    H124631   6.146   1.697  13.576 -3.1270  2.4957  2.9328
 1072TIP3    H224632   6.007   1.662  13.526 -0.7128 -2.2854 -1.4497
 1073TIP3   OH224633   3.505   1.773   5.508 -0.0712  0.0274  0.3284
 1073TIP3    H124634   3.549   1.802   5.588 -2.9818  1.0591  1.6574
 1073TIP3    H224635   3.481   1.682   5.526  1.5395 -0.6180 -0.4959
 1074TIP3   OH224636   2.567   1.398   3.840 -0.4651 -0.1189  0.0208
 1074TIP3    H124637   2.573   1.458   3.766  0.2648 -1.0181 -0.6633
 1074TIP3    H224638   2.621   1.439   3.908  1.3270 -0.7297 -0.9767
 1075TIP3   OH224639   5.340   2.537   6.286  0.3579 -0.2590  0.5370
 1075TIP3    H124640   5.261   2.515   6.238  0.1247 -0.5477  1.0465
 1075TIP3    H224641   5.410   2.535   6.220  0.4087 -2.8177  0.5589
 1076TIP3   OH224642   1.325   1.255  10.644  0.0839  1.1790  0.0254
 1076TIP3    H124643   1.292   1.207  10.720 -0.3531  0.9948 -0.2775
 1076TIP3    H224644   1.259   1.241  10.576  0.8416  0.7087 -0.6279
 1077TIP3   OH224645   4.004   2.982   0.956 -0.2698  0.1635 -0.0959
 1077TIP3    H124646   3.950   3.028   0.892 -0.6065  1.0753  0.8103
 1077TIP3    H224647   4.078   3.041   0.972  0.7816 -0.8644 -0.9772
 1078TIP3   OH224648   1.390   0.228  12.821 -0.0227 -0.4691  0.8411
 1078TIP3    H124649   1.473   0.187  12.846 -1.0964 -2.3221  1.6623
 1078TIP3    H224650   1.407   0.322  12.823  2.2492 -0.8126  0.1717
 1079TIP3   OH224651   0.527   1.538  15.762 -0.1707  0.1205  0.4722
 1079TIP3    H124652   0.432   1.541  15.756 -0.1420 -0.0931 -0.1904
 1079TIP3    H224653   0.546   1.457  15.810 -0.2520 -1.4620 -1.9888
 1080TIP3   OH224654   1.071   3.514  14.312 -0.3854 -0.0147 -0.2791
 1080TIP3    H124655   1.125   3.576  14.361 -1.1832  2.9224 -2.8075
 1080TIP3    H224656   0.983   3.528  14.345 -0.0750 -3.6725  2.7207
 1081TIP3   OH224657   5.125   5.838  11.077 -0.4655  0.4293 -0.1083
 1081TIP3    H124658   5.127   5.809  10.986  0.7255  0.9628 -0.2638
 1081TIP3    H224659   5.058   5.907  11.078  0.2011  1.1144 -0.8162
 1082TIP3   OH224660   6.253   6.783   4.010 -0.9520 -0.3921  0.0036
 1082TIP3    H124661   6.297   6.868   4.004  0.0864 -0.9178 -0.0660
 1082TIP3    H224662   6.194   6.792   4.085  0.2298 -0.0778  0.9325
 1083TIP3   OH224663   6.450   3.699  14.593 -0.2176 -0.1592 -0.5053
 1083TIP3    H124664   6.414   3.686  14.505 -0.6238 -0.7434 -0.2577
 1083TIP3    H224665   6.460   3.611  14.628  2.5265 -0.1485 -0.9750
 1084TIP3   OH224666   4.445   6.117   0.425 -0.7362 -0.1073 -0.0180
 1084TIP3    H124667   4.373   6.100   0.486 -1.3885 -0.1228 -0.7704
 1084TIP3    H224668   4.461   6.211   0.433 -1.6963  0.1348 -0.7452
 1085TIP3   OH224669   3.597   5.955  14.066  0.3126 -0.3934  0.2207
 1085TIP3    H124670   3.597   5.912  14.152 -0.3266  2.9198  2.0594
 1085TIP3    H224671   3.589   6.048  14.086 -1.4218  0.4524 -3.5262
 1086TIP3   OH224672   3.029   5.832   0.733  0.1856 -0.0250 -0.2882
 1086TIP3    H124673   3.022   5.895   0.661  0.2392  0.4963  0.1490
 1086TIP3    H224674   3.117   5.794   0.724 -0.8791 -2.2165 -2.2804
 1087TIP3   OH224675   6.307   4.002  13.007  0.6017  0.1373 -0.3481
 1087TIP3    H124676   6.327   4.096  13.011  1.1512  0.0232 -0.2437
 1087TIP3    H224677   6.358   3.965  13.079  0.2198 -0.2123 -0.2598
 1088TIP3   OH224678   2.086   2.457   5.749 -0.4469 -0.0923  0.1280
 1088TIP3    H124679   2.111   2.403   5.674 -0.6314 -1.4754  1.0176
 1088TIP3    H224680   2.169   2.483   5.788 -0.3098 -1.5953  0.9397
 1089TIP3   OH224681   1.654   2.175  12.013 -0.0400  0.3984  0.1579
 1089TIP3    H124682   1.645   2.087  11.976 -0.7922  1.1830 -1.6646
 1089TIP3    H224683   1.581   2.183  12.074 -1.2451  0.4366 -1.2179
 1090TIP3   OH224684   4.666   6.207   3.014  0.1865 -0.0023 -0.4391
 1090TIP3    H124685   4.746   6.205   3.067  0.5428 -0.4530 -0.9936
 1090TIP3    H224686   4.696   6.196   2.924 -0.5405 -0.6334 -0.6144
 1091TIP3   OH224687   0.978   6.022   5.616  0.0788  0.1742  0.4075
 1091TIP3    H124688   0.951   6.036   5.525  0.0416  0.7996  0.5098
 1091TIP3    H224689   1.062   5.977   5.609  1.8062  3.1568 -0.0459
 1092TIP3   OH224690   1.497   0.691  13.056  0.4849  0.3096 -0.3133
 1092TIP3    H124691   1.433   0.684  13.127 -0.9382 -0.2117 -1.5777
 1092TIP3    H224692   1.455   0.748  12.992  2.7432  2.7575  0.2187
 1093TIP3   OH224693   4.316   2.422   1.665 -0.0390 -0.2816 -0.3070
 1093TIP3    H124694   4.247   2.451   1.606  0.0881 -2.7419 -1.8343
 1093TIP3    H224695   4.295   2.462   1.749 -1.3195  1.8143 -1.5396
 1094TIP3   OH224696   1.924   5.688  12.854  0.6839  0.1173 -0.5184
 1094TIP3    H124697   1.862   5.626  12.892 -0.9764  0.6527 -2.2551
 1094TIP3    H224698   1.948   5.650  12.770  1.5107  0.6862 -0.5534
 1095TIP3   OH224699   6.679   2.656  12.187 -0.1099 -0.0139 -0.5150
 1095TIP3    H124700   6.717   2.574  12.218 -0.8377 -0.1773 -0.0155
 1095TIP3    H224701   6.590   2.656  12.224 -0.5354  0.4272 -1.4930
 1096TIP3   OH224702   1.129   1.738  16.617 -0.1118 -0.2586 -0.0742
 1096TIP3    H124703   1.084   1.701  16.541  0.7227 -0.6014 -0.4127
 1096TIP3    H224704   1.161   1.823  16.586  0.2017 -0.3851 -0.1016
 1097TIP3   OH224705   2.879   4.470   4.582  0.9618  0.5127  0.4589
 1097TIP3    H124706   2.843   4.417   4.652 -0.5892 -0.7195 -1.1683
 1097TIP3    H224707   2.956   4.512   4.620  0.0967  0.0250  2.8936
 1098TIP3   OH224708   2.238   6.511   2.240  0.2959  0.1665 -0.4671
 1098TIP3    H124709   2.268   6.479   2.156  0.1438 -1.5974  0.1156
 1098TIP3    H224710   2.145   6.487   2.245  0.3797 -0.0405  0.3333
 1099TIP3   OH224711   6.514   0.320   5.598  0.0860  0.1932  0.2312
 1099TIP3    H124712   6.559   0.236   5.601 -0.6765 -0.2258  0.2120
 1099TIP3    H224713   6.526   0.350   5.507 -1.5491 -0.9829 -0.4141
 1100TIP3   OH224714   6.624   4.425   5.721  0.1031  0.4156 -0.1107
 1100TIP3    H124715   6.626   4.463   5.810 -2.1291  1.2580 -0.3704
 1100TIP3    H224716   6.589   4.495   5.666 -0.0371 -0.6359 -1.3989
 1101TIP3   OH224717   3.098   0.103  14.283  0.6868  0.5426 -0.0591
 1101TIP3    H124718   3.092   0.029  14.345 -1.5296  0.5129 -0.2072
 1101TIP3    H224719   3.108   0.180  14.339  0.4920  0.3515  0.2448
 1102TIP3   OH224720   1.193   6.406   2.174 -0.2920  0.6374  0.3131
 1102TIP3    H124721   1.202   6.322   2.218  0.4718  0.0527 -0.9149
 1102TIP3    H224722   1.281   6.443   2.174 -0.6106  1.4294  0.7955
 1103TIP3   OH224723   1.715   6.025   5.859  0.3425  0.0165  0.1876
 1103TIP3    H124724   1.696   6.034   5.953 -4.8704  0.0251 -0.5894
 1103TIP3    H224725   1.704   5.931   5.842 -1.0579  0.3200 -0.7117
 1104TIP3   OH224726   4.033   0.121  16.863 -0.0510 -0.0854  0.3244
 1104TIP3    H124727   3.983   0.202  16.863 -1.7848 -1.1083  0.4915
 1104TIP3    H224728   4.124   0.149  16.868 -0.4401  1.9273 -1.9621
 1105TIP3   OH224729   4.495   5.475   4.322  0.0119  0.4390  0.4214
 1105TIP3    H124730   4.432   5.404   4.312  0.0206  0.5655 -0.6934
 1105TIP3    H224731   4.507   5.509   4.233  1.0668  0.9174  0.7319
 1106TIP3   OH224732   0.152   1.318   0.323  0.2488 -0.6007 -0.2569
 1106TIP3    H124733   0.208   1.384   0.363 -0.1460 -0.3015 -0.1888
 1106TIP3    H224734   0.193   1.299   0.239 -0.5033  0.9175 -1.0019
 1107TIP3   OH224735   0.100   0.097   0.736 -0.5661  0.3627 -0.2943
 1107TIP3    H124736   0.181   0.085   0.786 -0.1176  2.9422 -0.2567
 1107TIP3    H224737   0.043   0.148   0.793 -1.5718  0.0295 -0.9708
 1108TIP3   OH224738   3.235   1.663   5.658  0.1466 -0.0149  0.1795
 1108TIP3    H124739   3.304   1.622   5.608 -0.1456 -0.8614  0.4491
 1108TIP3    H224740   3.156   1.612   5.637 -0.4189  0.9721 -0.1803
 1109TIP3   OH224741   4.185   4.770   2.989  1.1943  0.0385 -0.3392
 1109TIP3    H124742   4.259   4.831   2.995  0.1427  1.3741 -0.3088
 1109TIP3    H224743   4.180   4.747   2.896  2.2722 -0.8858 -0.1757
 1110TIP3   OH224744   4.358   1.850  12.948 -0.6219 -0.1833  0.7379
 1110TIP3    H124745   4.424   1.787  12.920 -0.9169 -0.1570 -0.0663
 1110TIP3    H224746   4.399   1.936  12.935 -1.7570  0.0222 -2.7234
 1111TIP3   OH224747   6.346   3.690  12.915  0.0583 -0.2032  0.2610
 1111TIP3    H124748   6.283   3.633  12.958 -0.6004 -2.5948 -3.3802
 1111TIP3    H224749   6.293   3.758  12.874  0.3206  0.1800  0.5493
 1112TIP3   OH224750   0.739   5.679   4.370 -0.1865 -0.2527  0.3987
 1112TIP3    H124751   0.824   5.676   4.327  1.4115  0.4379  3.2560
 1112TIP3    H224752   0.681   5.719   4.305  1.9469  0.4154 -1.2159
 1113TIP3   OH224753   0.263   5.734   3.428  0.4817 -0.5248 -0.1798
 1113TIP3    H124754   0.198   5.664   3.430  0.2272 -0.3294 -1.0044
 1113TIP3    H224755   0.324   5.708   3.359  1.0306 -0.4869  0.2840
 1114TIP3   OH224756   2.535   2.249   3.760  0.7314  0.2819 -0.4640
 1114TIP3    H124757   2.512   2.189   3.689 -0.3554 -0.0387  0.1461
 1114TIP3    H224758   2.460   2.308   3.767  0.8660  0.3654  0.3630
 1115TIP3   OH224759   4.423   1.585   2.084 -0.0326 -0.2050  0.5184
 1115TIP3    H124760   4.350   1.538   2.124  0.0651 -2.2992 -1.5682
 1115TIP3    H224761   4.388   1.672   2.066 -1.0078 -0.1890  2.2761
 1116TIP3   OH224762   3.211   5.806  13.762  0.4019 -0.5117  0.5288
 1116TIP3    H124763   3.303   5.830  13.754  0.5149 -0.6501  1.3800
 1116TIP3    H224764   3.167   5.887  13.790  0.1499 -0.2669 -0.5329
 1117TIP3   OH224765   5.154   2.891  14.191  0.3530 -0.1303 -0.0664
 1117TIP3    H124766   5.142   2.866  14.283  0.0933 -0.2720 -0.1380
 1117TIP3    H224767   5.247   2.873  14.173  0.3348 -0.3837  0.0844
 1118TIP3   OH224768   6.150   0.373   6.624  0.2999  0.2529  0.4789
 1118TIP3    H124769   6.129   0.465   6.638  0.8578  1.1060 -3.1603
 1118TIP3    H224770   6.070   0.326   6.645 -1.6659  2.1719 -2.0495
 1119TIP3   OH224771   5.290   0.328   4.149 -0.1901 -0.0577 -0.2569
 1119TIP3    H124772   5.372   0.278   4.146 -1.5457 -2.9794  3.5471
 1119TIP3    H224773   5.286   0.362   4.238 -2.5499  1.1493 -0.7329
 1120TIP3   OH224774   3.827   5.529  16.098 -0.1042  0.4024  0.3011
 1120TIP3    H124775   3.824   5.474  16.176  1.3465  0.9708  0.7995
 1120TIP3    H224776   3.751   5.587  16.107 -1.1450 -0.8902  0.2033
 1121TIP3   OH224777   2.948   5.254   4.477 -0.1316 -0.3984 -0.0283
 1121TIP3    H124778   2.902   5.270   4.395  1.5420 -1.5339 -1.2704
 1121TIP3    H224779   2.942   5.159   4.491  1.6886 -0.5867 -0.2187
 1122TIP3   OH224780   0.269   1.319   5.060  0.0859  0.2898 -0.5555
 1122TIP3    H124781   0.218   1.362   4.992 -2.4926 -0.2676  0.9064
 1122TIP3    H224782   0.222   1.337   5.141 -0.0374 -3.4918  0.4204
 1123TIP3   OH224783   6.238   2.238  16.529  0.4677  0.2805 -0.2813
 1123TIP3    H124784   6.287   2.284  16.598  0.0340 -0.5689  0.6217
 1123TIP3    H224785   6.249   2.293  16.451  0.7668  1.3992  0.5185
 1124TIP3   OH224786   6.145   3.136   1.418  0.5362 -0.5905  0.4550
 1124TIP3    H124787   6.139   3.122   1.324 -0.4173  0.1131  0.3938
 1124TIP3    H224788   6.113   3.055   1.458 -2.1484  0.2420  0.1382
 1125TIP3   OH224789   1.239   1.236  16.225  0.2277  0.1751  0.5942
 1125TIP3    H124790   1.175   1.248  16.295  0.5584 -0.8374  1.0884
 1125TIP3    H224791   1.323   1.264  16.264  0.4450 -0.5793  0.6777
 1126TIP3   OH224792   2.561   2.615  16.199 -0.3448  0.7313  0.1161
 1126TIP3    H124793   2.524   2.680  16.139  0.0377  2.1605  1.3623
 1126TIP3    H224794   2.489   2.594  16.259 -0.3437  0.2983 -0.0290
 1127TIP3   OH224795   3.829   6.158  12.532  0.2621 -0.2116  0.2396
 1127TIP3    H124796   3.832   6.252  12.549  0.5207  0.1501 -1.6339
 1127TIP3    H224797   3.786   6.150  12.447  3.1577 -1.5309 -1.2437
 1128TIP3   OH224798   1.833   3.917  15.168  0.5814 -0.3973 -0.1843
 1128TIP3    H124799   1.785   3.998  15.152  0.7879 -0.3771 -0.7334
 1128TIP3    H224800   1.812   3.894  15.259 -0.1276 -0.1641 -0.2772
 1129TIP3   OH224801   4.148   1.588   6.723  0.2672 -0.5824 -0.3821
 1129TIP3    H124802   4.237   1.598   6.689  0.6066  0.0116  0.6547
 1129TIP3    H224803   4.141   1.494   6.742  1.0252 -0.4857  0.4435
 1130TIP3   OH224804   5.323   1.479  14.296  0.6128  0.4234  0.1327
 1130TIP3    H124805   5.412   1.477  14.332  0.3898 -0.9970  0.6506
 1130TIP3    H224806   5.295   1.388  14.296 -0.0223  0.5669 -2.1362
 1131TIP3   OH224807   4.852   3.196  13.362  0.2642  0.4531 -0.1472
 1131TIP3    H124808   4.797   3.118  13.357  1.1688 -0.1614 -0.9239
 1131TIP3    H224809   4.856   3.216  13.456  0.3514 -0.7011  0.1213
 1132TIP3   OH224810   0.847   3.124   2.324 -0.1543  0.1887 -0.5968
 1132TIP3    H124811   0.875   3.212   2.299 -0.1793 -0.1019 -1.7042
 1132TIP3    H224812   0.874   3.115   2.416 -1.1224  1.7325 -0.1343
 1133TIP3   OH224813   3.846   5.602  14.085  0.0109  0.1007  0.6043
 1133TIP3    H124814   3.853   5.517  14.128 -0.3149 -1.5844 -2.4505
 1133TIP3    H224815   3.936   5.632  14.075  0.3317 -1.2377 -0.7489
 1134TIP3   OH224816   1.828   2.370   4.626 -0.0689 -0.2776  0.1232
 1134TIP3    H124817   1.739   2.334   4.622  0.1457 -0.9071  0.8084
 1134TIP3    H224818   1.822   2.453   4.580 -1.0751 -0.2027  0.3655
 1135TIP3   OH224819   2.500   0.422  12.685  0.3988 -0.8380 -0.0893
 1135TIP3    H124820   2.577   0.433  12.741  0.2677  0.1572 -0.0840
 1135TIP3    H224821   2.435   0.382  12.742 -0.0315  0.9743  0.7771
 1136TIP3   OH224822   4.550   4.166  11.281 -0.2004  0.0254 -0.1054
 1136TIP3    H124823   4.633   4.174  11.236 -0.0217 -0.8999  0.0412
 1136TIP3    H224824   4.494   4.116  11.221 -1.3391  2.3081 -1.0871
 1137TIP3   OH224825   6.629   6.766   2.023 -0.0208 -0.1957  0.0848
 1137TIP3    H124826   6.591   6.772   1.935 -0.0861 -1.1222  0.0429
 1137TIP3    H224827   6.597   6.844   2.069 -0.5510 -0.0705 -0.4939
 1138TIP3   OH224828   5.905   5.779   5.131  1.2144  0.7322  0.3463
 1138TIP3    H124829   5.943   5.692   5.143  1.8163  0.6576 -1.7476
 1138TIP3    H224830   5.857   5.773   5.049 -1.4014  1.5379  1.6955
 1139TIP3   OH224831   0.680   6.607   2.397  0.0181  0.2475 -0.3610
 1139TIP3    H124832   0.709   6.645   2.479  1.0542  1.0576 -1.0860
 1139TIP3    H224833   0.760   6.578   2.353 -0.4872  0.0917 -1.2205
 1140TIP3   OH224834   0.600   4.147  11.017 -0.0386 -0.7641  0.5163
 1140TIP3    H124835   0.615   4.060  10.980 -0.3793 -1.2200  1.3963
 1140TIP3    H224836   0.505   4.160  11.009 -0.2029 -1.0998  1.6582
 1141TIP3   OH224837   0.908   1.319  11.310 -0.3958 -0.0311 -0.0948
 1141TIP3    H124838   0.915   1.350  11.400  0.1002  1.1385 -0.5203
 1141TIP3    H224839   0.939   1.228  11.314 -0.6454 -0.0848  0.9483
 1142TIP3   OH224840   1.556   6.072   2.448 -0.2253 -0.2760  0.2867
 1142TIP3    H124841   1.575   6.158   2.412  2.0396 -0.5637  0.6358
 1142TIP3    H224842   1.598   6.072   2.534  2.1460 -2.5347 -0.7296
 1143TIP3   OH224843   3.221   3.326  13.851 -0.1700  0.0199  0.6662
 1143TIP3    H124844   3.223   3.417  13.880  0.1854 -0.2067  1.3990
 1143TIP3    H224845   3.307   3.291  13.876 -0.4761 -0.6364  0.8342
 1144TIP3   OH224846   5.287   4.433  11.021  0.3214 -0.2411 -0.1460
 1144TIP3    H124847   5.284   4.338  11.009 -2.5346 -0.1187 -1.1964
 1144TIP3    H224848   5.239   4.448  11.102  0.7355  0.3265 -0.0028
 1145TIP3   OH224849   5.844   2.707   1.769 -0.3379  0.3863  0.4814
 1145TIP3    H124850   5.893   2.789   1.781  0.0538 -0.0307  1.9624
 1145TIP3    H224851   5.808   2.688   1.855  0.7177 -1.7074  0.5181
 1146TIP3   OH224852   3.342   5.568   4.015 -0.0519  0.7032  0.0611
 1146TIP3    H124853   3.390   5.505   4.068 -1.2524  0.6326  1.1075
 1146TIP3    H224854   3.401   5.643   4.007  1.1388 -0.2775 -0.6675
 1147TIP3   OH224855   1.622   6.406  13.473 -0.6658  0.4265  0.5205
 1147TIP3    H124856   1.654   6.407  13.383 -0.2505  2.8892  0.6229
 1147TIP3    H224857   1.543   6.460  13.471 -0.1151  1.3457  1.7559
 1148TIP3   OH224858   5.514   5.702  12.506  0.1377  0.0561 -0.5521
 1148TIP3    H124859   5.429   5.674  12.474 -0.1886  0.5034 -0.0885
 1148TIP3    H224860   5.577   5.655  12.451 -0.4040 -0.2281 -0.9369
 1149TIP3   OH224861   4.178   4.456   3.833 -0.0933  0.2254 -0.0119
 1149TIP3    H124862   4.164   4.408   3.915  1.6473 -1.5449 -0.7001
 1149TIP3    H224863   4.223   4.536   3.861  2.4837 -1.3349  0.6616
 1150TIP3   OH224864   6.456   3.626  14.318  0.2771 -0.0415 -0.9358
 1150TIP3    H124865   6.535   3.592  14.276  1.4164  0.7817  0.4675
 1150TIP3    H224866   6.421   3.690  14.255  1.7907  0.9592 -0.7909
 1151TIP3   OH224867   1.345   6.268  12.203  0.3181  0.3857 -0.8221
 1151TIP3    H124868   1.388   6.343  12.162  2.0862 -0.1132  0.0115
 1151TIP3    H224869   1.287   6.307  12.269  0.8576  1.0433 -0.7213
 1152TIP3   OH224870   3.678   3.818   0.411 -0.1121  0.3779  0.2594
 1152TIP3    H124871   3.674   3.723   0.418 -0.5635  0.3283 -0.5285
 1152TIP3    H224872   3.626   3.851   0.484 -0.8479 -0.0080 -0.0813
 1153TIP3   OH224873   4.490   2.305  16.241  0.0997 -0.1018  0.0698
 1153TIP3    H124874   4.504   2.278  16.151  0.4751 -0.4574  0.2355
 1153TIP3    H224875   4.422   2.373  16.235  1.5374  1.3315 -0.6790
 1154TIP3   OH224876   3.827   5.467  15.209  0.0992 -0.4171 -0.0183
 1154TIP3    H124877   3.843   5.405  15.139 -1.0708 -0.6775 -0.0819
 1154TIP3    H224878   3.883   5.438  15.281  1.0995 -0.3065 -0.7302
 1155TIP3   OH224879   2.307   0.528   2.897  0.1513 -0.1849  0.2397
 1155TIP3    H124880   2.302   0.581   2.818  0.6479 -0.8237 -0.2295
 1155TIP3    H224881   2.224   0.481   2.900 -1.0147  1.8346  1.5607
 1156TIP3   OH224882   3.610   0.409   2.356  0.1692 -0.0508 -0.0354
 1156TIP3    H124883   3.704   0.401   2.336  0.1879  0.1670 -0.0363
 1156TIP3    H224884   3.607   0.459   2.438  0.1485 -2.0242  1.2449
 1157TIP3   OH224885   4.095   1.335  12.165  0.0572 -0.3440  0.2893
 1157TIP3    H124886   4.089   1.404  12.230 -0.1744 -0.7467  0.7050
 1157TIP3    H224887   4.061   1.374  12.085  1.6934  0.6132  0.0221
 1158TIP3   OH224888   6.094   5.561  11.403  0.1403 -0.0890  0.0414
 1158TIP3    H124889   5.999   5.555  11.391  0.0234  1.0236  0.2945
 1158TIP3    H224890   6.114   5.493  11.468 -0.4250 -0.5514 -0.2554
 1159TIP3   OH224891   0.393   2.234  10.554 -0.1695  0.0488 -0.1329
 1159TIP3    H124892   0.481   2.266  10.532 -0.7188  0.8936 -1.1558
 1159TIP3    H224893   0.359   2.299  10.616 -0.4686  0.2835 -0.5433
 1160TIP3   OH224894   3.396   3.150  12.798 -0.1728  0.1450  0.0220
 1160TIP3    H124895   3.453   3.113  12.865  0.1821  2.2607  0.9887
 1160TIP3    H224896   3.311   3.161  12.842 -0.5983 -0.5718 -0.6033
 1161TIP3   OH224897   0.796   0.631   5.054  0.4231  0.3484  0.0037
 1161TIP3    H124898   0.759   0.552   5.093  1.5125  0.1029  0.5761
 1161TIP3    H224899   0.787   0.698   5.122  1.1102  0.2534  0.2020
 1162TIP3   OH224900   4.952   4.601  16.673 -0.2175 -0.1513 -0.4066
 1162TIP3    H124901   4.880   4.591  16.611 -0.2390  0.7329 -0.5264
 1162TIP3    H224902   4.934   4.683  16.718  2.1990  1.6206 -2.4184
 1163TIP3   OH224903   3.727   0.942   3.591 -0.2193 -0.0385 -0.2220
 1163TIP3    H124904   3.768   0.925   3.506 -1.0859 -1.1968 -0.4278
 1163TIP3    H224905   3.647   0.990   3.570  0.3198  1.0281  0.0780
 1164TIP3   OH224906   1.764   2.979   3.037 -0.0569 -0.0183 -0.3750
 1164TIP3    H124907   1.853   3.002   3.064  0.2393 -1.3693 -0.1553
 1164TIP3    H224908   1.715   3.061   3.044  0.8407  0.4422  0.8242
 1165TIP3   OH224909   6.184   0.060   2.816 -0.2096 -0.4516 -0.5328
 1165TIP3    H124910   6.140   0.052   2.901  0.5391 -0.8126 -0.1697
 1165TIP3    H224911   6.138   0.132   2.772 -1.8505 -1.5114 -0.6116
 1166TIP3   OH224912   3.821   1.024   1.979  0.2776 -0.5290 -0.0632
 1166TIP3    H124913   3.740   1.026   1.926  1.5326 -0.8845 -2.1131
 1166TIP3    H224914   3.836   1.115   2.002 -0.0929 -0.2948 -0.7000
 1167TIP3   OH224915   4.018   1.443  15.137  0.4700 -0.1592  0.5275
 1167TIP3    H124916   3.977   1.520  15.175  1.0023  0.2631  0.2624
 1167TIP3    H224917   4.092   1.425  15.195  0.8487  0.0432  0.1093
 1168TIP3   OH224918   6.051   4.741   5.971 -0.1220  0.0929  0.1414
 1168TIP3    H124919   6.115   4.673   5.992  0.3708  0.2385 -0.8115
 1168TIP3    H224920   5.967   4.703   5.998  0.3893  0.0857  1.8202
 1169TIP3   OH224921   0.759   1.999  12.813 -0.3535 -0.5825 -0.1864
 1169TIP3    H124922   0.723   2.068  12.868 -0.5883 -0.2571 -0.7415
 1169TIP3    H224923   0.847   2.029  12.791 -0.3687 -0.5701 -0.2308
 1170TIP3   OH224924   2.118   3.654   0.040 -0.5296  0.1191  0.5462
 1170TIP3    H124925   2.130   3.560   0.056  0.6929  0.4644  1.8245
 1170TIP3    H224926   2.207   3.689   0.038 -1.0056  1.3608  0.7558
 1171TIP3   OH224927   5.009   6.217  15.552 -0.9066  0.1319  0.5036
 1171TIP3    H124928   4.960   6.143  15.587 -0.2103  0.1955  1.6600
 1171TIP3    H224929   5.006   6.283  15.621 -1.7324  1.3110 -0.6070
 1172TIP3   OH224930   0.271   1.283   3.211 -0.4898 -0.1942  0.2753
 1172TIP3    H124931   0.341   1.294   3.147 -0.6566  2.1402  0.4073
 1172TIP3    H224932   0.196   1.327   3.172 -0.7068  0.9039  1.8329
 1173TIP3   OH224933   4.422   1.343   6.370 -0.6834 -0.0508 -0.0785
 1173TIP3    H124934   4.341   1.313   6.329  1.0048 -2.5990 -1.8942
 1173TIP3    H224935   4.467   1.392   6.301  0.6617 -1.3756 -0.1817
 1174TIP3   OH224936   6.549   1.780   3.557  0.1548 -0.3811  0.4826
 1174TIP3    H124937   6.460   1.746   3.552  0.6100 -1.6756  0.8729
 1174TIP3    H224938   6.600   1.723   3.500  1.2625 -1.5188  2.5173
 1175TIP3   OH224939   4.623   2.625  13.966 -0.0447  0.5342  0.0857
 1175TIP3    H124940   4.528   2.630  13.976 -0.4358  1.9013 -3.2104
 1175TIP3    H224941   4.636   2.591  13.878  2.5930 -0.4935  0.7777
 1176TIP3   OH224942   2.372   4.969   4.664 -0.2768 -0.4879 -0.0448
 1176TIP3    H124943   2.449   5.017   4.634 -0.0788  0.1466  1.4274
 1176TIP3    H224944   2.332   5.025   4.730 -1.5282 -1.1953 -0.1715
 1177TIP3   OH224945   1.000   1.605   4.787 -0.1717  0.2439 -0.1281
 1177TIP3    H124946   1.068   1.668   4.811 -0.3443  1.5052 -2.5820
 1177TIP3    H224947   1.046   1.540   4.733 -0.7872  0.8549 -1.4242
 1178TIP3   OH224948   2.267   5.531   4.466 -0.1746  0.1091 -0.3202
 1178TIP3    H124949   2.250   5.439   4.444 -2.1893  0.8535 -2.3489
 1178TIP3    H224950   2.257   5.535   4.561 -0.2494 -1.7262 -0.2103
 1179TIP3   OH224951   4.098   1.275   5.040  0.2708 -0.1028 -0.4385
 1179TIP3    H124952   4.178   1.258   5.090 -0.2813 -1.4235  0.0570
 1179TIP3    H224953   4.050   1.192   5.044 -2.5558  1.4295  1.8924
 1180TIP3   OH224954   2.816   1.493  13.464  0.4367  0.0085 -0.0786
 1180TIP3    H124955   2.845   1.416  13.513  0.8506  0.3045  0.1531
 1180TIP3    H224956   2.730   1.513  13.499  0.6418  0.0924  0.3818
 1181TIP3   OH224957   6.031   1.651   2.290  0.2863 -0.2528  0.6722
 1181TIP3    H124958   6.048   1.617   2.202  0.1695 -0.3840  0.7011
 1181TIP3    H224959   5.944   1.618   2.313  1.0829 -1.8311  1.6097
 1182TIP3   OH224960   0.893   3.355   6.534 -0.0207 -0.0167 -0.2781
 1182TIP3    H124961   0.822   3.368   6.471  0.5133  0.4079 -0.7965
 1182TIP3    H224962   0.850   3.360   6.619 -0.7344 -0.4944 -0.5940
 1183TIP3   OH224963   4.132   4.717  15.663 -0.2206 -0.7035  0.3457
 1183TIP3    H124964   4.088   4.751  15.740 -0.9813 -1.6255  0.3315
 1183TIP3    H224965   4.176   4.638  15.693  0.7346 -0.2573  0.1663
 1184TIP3   OH224966   1.820   4.374   4.693  0.1086 -0.2233 -0.3464
 1184TIP3    H124967   1.915   4.386   4.698  0.1708 -0.0159 -1.6117
 1184TIP3    H224968   1.805   4.348   4.602 -1.0499 -0.2874 -0.1427
 1185TIP3   OH224969   3.316   5.624  15.756 -0.0705  0.2867 -0.0923
 1185TIP3    H124970   3.392   5.566  15.755 -0.4820 -0.3597 -2.5788
 1185TIP3    H224971   3.351   5.710  15.776  0.8790 -0.4517  1.5538
 1186TIP3   OH224972   5.834   4.916   3.954  0.0741  0.3521 -0.0765
 1186TIP3    H124973   5.775   4.881   4.020  1.5556 -1.9248  0.1555
 1186TIP3    H224974   5.860   5.002   3.988 -2.5362  1.1600  0.0808
 1187TIP3   OH224975   5.839   2.461  12.504 -0.6998  0.5181 -0.4457
 1187TIP3    H124976   5.859   2.485  12.413 -0.9035  0.9564 -0.3789
 1187TIP3    H224977   5.770   2.522  12.530 -1.2306 -0.1576 -0.2647
 1188TIP3   OH224978   1.856   4.247   1.344  0.4367  0.3941 -0.2380
 1188TIP3    H124979   1.810   4.167   1.368  1.2996 -0.5085 -1.4695
 1188TIP3    H224980   1.942   4.218   1.315  1.4081  1.9450  0.9256
 1189TIP3   OH224981   4.401   6.498   4.760  0.5879 -0.1541  0.5442
 1189TIP3    H124982   4.433   6.504   4.670 -2.1645  1.0430 -0.4870
 1189TIP3    H224983   4.441   6.572   4.805  0.7476  0.1855 -0.1475
 1190TIP3   OH224984   3.627   5.718   3.172  0.1251  0.1479  0.3153
 1190TIP3    H124985   3.590   5.793   3.126  0.4544 -0.4352 -0.9357
 1190TIP3    H224986   3.552   5.662   3.191  0.2543 -0.9364 -2.0391
 1191TIP3   OH224987   4.139   4.983   5.638  0.9466  0.6542 -0.1458
 1191TIP3    H124988   4.174   4.900   5.670  0.5766  0.8701  0.8623
 1191TIP3    H224989   4.202   5.012   5.571  0.6675 -0.8016 -1.0779
 1192TIP3   OH224990   0.180   2.188   5.959  0.0892 -0.1099  0.0907
 1192TIP3    H124991   0.175   2.097   5.987  0.1772 -0.1913 -0.1553
 1192TIP3    H224992   0.272   2.212   5.972  0.0504 -0.0356  0.2232
 1193TIP3   OH224993   2.695   3.068   1.873  0.3162 -0.6967 -0.7335
 1193TIP3    H124994   2.615   3.035   1.915  0.2498 -0.4235 -0.6489
 1193TIP3    H224995   2.764   3.051   1.937  0.1255  0.2570 -0.2670
 1194TIP3   OH224996   5.351   6.236   1.523  0.0477  0.1682  0.6873
 1194TIP3    H124997   5.389   6.149   1.528 -1.7956 -0.6973  0.4766
 1194TIP3    H224998   5.286   6.231   1.453  0.5465  2.0018  0.0114
 1195TIP3   OH224999   2.028   2.944   5.262 -0.2156  0.0695 -0.1017
 1195TIP3    H125000   2.112   2.901   5.247 -0.1225  0.3781 -0.4901
 1195TIP3    H225001   2.038   3.031   5.222 -0.0045  0.8868  1.6046
 1196TIP3   OH225002   3.189   0.369   4.939 -0.0028 -0.1782  0.0604
 1196TIP3    H125003   3.236   0.293   4.973 -2.0277 -1.2706  0.6204
 1196TIP3    H225004   3.223   0.381   4.850  3.2559  0.8658  1.3287
 1197TIP3   OH225005   5.692   6.482  10.901 -0.9132  0.0554 -0.2155
 1197TIP3    H125006   5.711   6.442  10.816 -0.5556 -0.7141  0.2078
 1197TIP3    H225007   5.645   6.562  10.880 -1.0526 -0.2500 -1.1296
 1198TIP3   OH225008   1.296   3.072  13.917 -0.5366 -0.1037  0.6161
 1198TIP3    H125009   1.380   3.115  13.928 -0.0293 -1.2787  1.5232
 1198TIP3    H225010   1.256   3.074  14.004 -0.4065 -1.5961  0.7382
 1199TIP3   OH225011   2.321   1.252  15.718 -0.5580 -0.2685 -0.1359
 1199TIP3    H125012   2.384   1.223  15.783  0.1302  0.5410 -0.4272
 1199TIP3    H225013   2.241   1.204  15.739 -0.1092 -0.6318  0.7923
 1200TIP3   OH225014   3.835   2.403  15.457  0.1990  0.2609 -0.2899
 1200TIP3    H125015   3.745   2.412  15.426 -0.3856 -0.7573  0.9837
 1200TIP3    H225016   3.849   2.480  15.512 -0.6731 -0.5970  1.2087
 1201TIP3   OH225017   5.893   4.931  14.449  0.3600 -0.1822 -0.8294
 1201TIP3    H125018   5.851   4.890  14.525  1.8382  1.0383  0.7273
 1201TIP3    H225019   5.846   5.014  14.438  2.3111  1.2745  1.0339
 1202TIP3   OH225020   5.303   0.259   1.098  0.2818  0.1523  0.5236
 1202TIP3    H125021   5.365   0.306   1.043 -0.1307 -0.1099 -0.1771
 1202TIP3    H225022   5.260   0.198   1.038 -0.2167 -0.0940  1.1270
 1203TIP3   OH225023   2.026   1.921  15.028  0.4752 -0.1822  0.2618
 1203TIP3    H125024   2.111   1.911  14.986  0.4360 -0.3569  0.2227
 1203TIP3    H225025   2.030   1.864  15.105  0.4740 -0.0193  0.3833
 1204TIP3   OH225026   3.419   1.817   2.871 -0.2166  0.7307 -0.3776
 1204TIP3    H125027   3.477   1.869   2.815  1.2007  1.0611  1.2944
 1204TIP3    H225028   3.433   1.853   2.958 -2.9693  0.7800  0.1158
 1205TIP3   OH225029   3.411   5.668   0.302  0.3107 -0.1912  0.6357
 1205TIP3    H125030   3.351   5.727   0.257  0.3897 -0.4075  0.2408
 1205TIP3    H225031   3.478   5.726   0.339  0.0151  0.0245  0.8425
 1206TIP3   OH225032   4.256   5.560  11.675 -0.1497 -0.5839 -0.6725
 1206TIP3    H125033   4.310   5.639  11.684 -0.4847 -0.1648 -2.0397
 1206TIP3    H225034   4.310   5.500  11.624  0.3725 -1.5334  0.9445
 1207TIP3   OH225035   0.274   5.449  10.672  0.5857 -1.0755  0.5367
 1207TIP3    H125036   0.313   5.384  10.613  1.3168 -0.0351 -0.1625
 1207TIP3    H225037   0.254   5.400  10.752  0.4201 -2.3210 -0.2354
 1208TIP3   OH225038   5.641   0.093  11.459  0.4831  0.0567  0.5989
 1208TIP3    H125039   5.654   0.021  11.521  1.1519 -1.0458 -0.7604
 1208TIP3    H225040   5.598   0.161  11.511  1.6026 -0.5438  2.4456
 1209TIP3   OH225041   0.319   5.021   4.227 -0.3311 -0.6229 -0.4140
 1209TIP3    H125042   0.241   4.981   4.189 -0.1366 -1.0261 -0.4000
 1209TIP3    H225043   0.392   4.982   4.179 -0.0605 -1.4214  0.6002
 1210TIP3   OH225044   2.384   3.436  14.503  0.1365  0.0266 -0.3050
 1210TIP3    H125045   2.293   3.435  14.474  0.1560  1.2682 -0.4600
 1210TIP3    H225046   2.414   3.346  14.489 -0.6952 -0.0982 -1.4280
 1211TIP3   OH225047   4.138   4.990   4.874 -0.1119  0.8490 -0.0607
 1211TIP3    H125048   4.051   4.969   4.842  0.2344  0.0805 -0.5254
 1211TIP3    H225049   4.145   5.085   4.866 -1.1686  0.9988  0.6745
 1212TIP3   OH225050   1.981   3.380   5.447 -0.3298  0.9080  0.4248
 1212TIP3    H125051   1.932   3.354   5.525  1.3271  0.7521  1.4680
 1212TIP3    H225052   1.917   3.376   5.376 -1.6621  0.1476  1.6135
 1213TIP3   OH225053   1.930   2.228   4.016  0.2161 -0.0359 -0.3772
 1213TIP3    H125054   1.891   2.247   4.101 -0.9810  0.0401 -0.9225
 1213TIP3    H225055   1.881   2.282   3.954  0.5099 -0.6979 -1.2126
 1214TIP3   OH225056   3.998   2.353   3.620  0.6891  0.1677 -0.1700
 1214TIP3    H125057   4.076   2.391   3.660 -1.3419  2.4368  1.9268
 1214TIP3    H225058   3.926   2.405   3.654 -2.1507 -3.9592  0.8255
 1215TIP3   OH225059   3.271   5.848   2.735 -0.4250 -0.2645 -0.0798
 1215TIP3    H125060   3.185   5.808   2.744 -0.3375 -0.5033 -0.2865
 1215TIP3    H225061   3.305   5.814   2.652 -0.0469 -0.3379  0.0997
 1216TIP3   OH225062   4.286   1.818  11.995  0.2363  0.1716 -0.3270
 1216TIP3    H125063   4.266   1.911  12.001 -0.8499 -0.1469  2.4370
 1216TIP3    H225064   4.201   1.776  11.981  0.6660 -0.4483 -1.1587
 1217TIP3   OH225065   6.412   1.787   1.694  0.2838 -0.1791 -0.5372
 1217TIP3    H125066   6.390   1.812   1.604  1.1954 -0.6813 -0.9174
 1217TIP3    H225067   6.352   1.837   1.749 -0.4451 -0.0519 -1.4392
 1218TIP3   OH225068   5.043   4.550  15.873  0.1830 -0.2291 -0.0021
 1218TIP3    H125069   5.133   4.520  15.863  1.0559  2.0720  0.4941
 1218TIP3    H225070   5.039   4.585  15.962 -0.3036  2.3920 -0.9805
 1219TIP3   OH225071   2.214   4.085  16.391 -0.0266 -0.0949  0.1817
 1219TIP3    H125072   2.281   4.051  16.332 -0.0925  1.7960 -1.0436
 1219TIP3    H225073   2.178   4.161  16.346 -2.0366 -0.2189  1.4362
 1220TIP3   OH225074   6.459   3.102  15.383 -0.4208 -0.0266 -0.3472
 1220TIP3    H125075   6.471   3.126  15.291  0.7554  0.5695 -0.0520
 1220TIP3    H225076   6.389   3.037  15.381  1.1013 -1.7598 -1.9554
 1221TIP3   OH225077   6.414   0.354   6.560 -0.6358  0.0929  0.0420
 1221TIP3    H125078   6.330   0.322   6.592 -0.5168 -0.4424 -0.1653
 1221TIP3    H225079   6.401   0.448   6.548 -1.7770 -0.2544 -1.7341
 1222TIP3   OH225080   2.752   1.411   5.332  0.1767 -0.7567 -0.3507
 1222TIP3    H125081   2.719   1.494   5.367  0.0757 -1.2405  0.7505
 1222TIP3    H225082   2.694   1.392   5.258 -0.7897 -0.6163  0.3501
 1223TIP3   OH225083   6.562   6.336   2.503  0.1864  0.2319  0.8864
 1223TIP3    H125084   6.476   6.307   2.533 -0.0351  0.2010  0.2510
 1223TIP3    H225085   6.600   6.258   2.461  0.2387  0.4261  0.5655
 1224TIP3   OH225086   1.322   1.651   3.920  0.1228 -0.0603  0.1606
 1224TIP3    H125087   1.401   1.681   3.875  0.4432  0.3278  0.9753
 1224TIP3    H225088   1.251   1.671   3.858  0.4786  1.1489  0.1228
 1225TIP3   OH225089   4.556   6.224  11.181 -0.2373 -0.3222  0.3672
 1225TIP3    H125090   4.573   6.136  11.216 -0.8942 -0.6782 -0.1808
 1225TIP3    H225091   4.498   6.209  11.107 -0.8479  0.6307  0.6419
 1226TIP3   OH225092   1.993   5.811  15.873  0.3520  0.4700  0.0757
 1226TIP3    H125093   1.911   5.774  15.905  0.5245  0.3314  0.3568
 1226TIP3    H225094   2.059   5.781  15.935  0.8462 -0.5992 -0.9164
 1227TIP3   OH225095   2.809   2.003   5.563 -0.1251  0.4752  0.0703
 1227TIP3    H125096   2.762   2.078   5.601 -2.7837 -0.9077 -0.2222
 1227TIP3    H225097   2.900   2.031   5.560 -1.1365  4.2351 -1.2646
 1228TIP3   OH225098   6.028   1.558  14.215  0.2744  0.3032 -0.0035
 1228TIP3    H125099   5.955   1.604  14.175 -0.8027 -1.2675  0.0639
 1228TIP3    H225100   6.106   1.594  14.172 -0.7007  0.2665 -1.8937
 1229TIP3   OH225101   3.584   6.597  16.338  0.1169 -0.3479 -0.1031
 1229TIP3    H125102   3.569   6.505  16.318  1.4331 -0.1881 -2.1626
 1229TIP3    H225103   3.506   6.642  16.304 -0.7586 -0.6929  1.3505
 1230TIP3   OH225104   3.400   2.369   4.624 -0.0017 -0.6220  0.3751
 1230TIP3    H125105   3.346   2.393   4.549  0.7955 -0.0942 -0.0538
 1230TIP3    H225106   3.429   2.280   4.606 -1.1153 -1.1050  0.8570
 1231TIP3   OH225107   0.121   1.450  14.814 -0.3978 -0.2704  0.0611
 1231TIP3    H125108   0.141   1.502  14.892  0.0497  0.6997 -0.6736
 1231TIP3    H225109   0.065   1.379  14.846  1.4682 -1.1404  1.6384
 1232TIP3   OH225110   6.730   0.365   0.166 -0.0592  0.3771 -0.1393
 1232TIP3    H125111   6.749   0.312   0.244  0.7423  0.7818 -0.0491
 1232TIP3    H225112   6.813   0.409   0.146 -0.5731  1.1845 -0.5305
 1233TIP3   OH225113   6.168   2.157   0.366 -0.0027 -0.1380 -0.0251
 1233TIP3    H125114   6.180   2.228   0.429 -0.4326 -0.1971  0.1229
 1233TIP3    H225115   6.171   2.201   0.281  0.2810 -0.0202  0.0423
 1234TIP3   OH225116   4.619   3.693  16.089 -0.5796  0.0701 -0.2736
 1234TIP3    H125117   4.532   3.673  16.054 -0.7404 -0.4290  0.3774
 1234TIP3    H225118   4.628   3.788  16.080 -0.4186 -0.0775 -2.0679
 1235TIP3   OH225119   1.532   0.423  10.859 -0.6381 -1.0403 -0.1536
 1235TIP3    H125120   1.546   0.507  10.816 -3.6375  0.5894  1.6698
 1235TIP3    H225121   1.618   0.398  10.892  0.1294  2.2875  0.7887
 1236TIP3   OH225122   0.705   6.178  14.588 -0.0424 -0.0668  0.4603
 1236TIP3    H125123   0.691   6.190  14.494 -0.9741  1.6431  0.7716
 1236TIP3    H225124   0.645   6.108  14.612  0.0683 -0.3939 -0.1918
 1237TIP3   OH225125   3.692   3.492   3.503  0.1732 -0.2047 -0.1393
 1237TIP3    H125126   3.653   3.422   3.449  0.4006 -0.1041 -0.4392
 1237TIP3    H225127   3.738   3.446   3.573 -0.1880 -0.3353  0.0140
 1238TIP3   OH225128   5.813   4.585  17.201  0.0834 -0.5112  0.3245
 1238TIP3    H125129   5.746   4.649  17.178  1.3109  0.3143 -1.1665
 1238TIP3    H225130   5.831   4.539  17.118  2.5404  0.4665  0.2456
 1239TIP3   OH225131   3.893   3.362  12.585  0.0532  0.7797  0.3668
 1239TIP3    H125132   3.931   3.416  12.654  0.6870  0.6521  0.1329
 1239TIP3    H225133   3.799   3.377  12.591  0.1394  1.1166  0.9626
 1240TIP3   OH225134   2.827   0.383   5.895 -0.3568  0.1859  0.2810
 1240TIP3    H125135   2.817   0.348   5.984  3.9338 -0.6760  0.6332
 1240TIP3    H225136   2.781   0.320   5.839 -1.6424 -0.2050  1.6972
 1241TIP3   OH225137   3.986   4.453   0.101 -0.3664  0.0651 -0.1786
 1241TIP3    H125138   3.959   4.516   0.168 -2.8617  0.3625 -1.3383
 1241TIP3    H225139   3.939   4.373   0.123 -0.1692 -0.2353 -0.8266
 1242TIP3   OH225140   5.598   2.227   4.906  0.4503 -1.3604 -1.0172
 1242TIP3    H125141   5.566   2.152   4.956  0.4602 -1.3548 -1.0026
 1242TIP3    H225142   5.634   2.286   4.972 -1.6905 -0.2494 -0.7477
 1243TIP3   OH225143   3.105   2.848   1.887  0.3933  0.0712  0.0040
 1243TIP3    H125144   3.090   2.757   1.860  0.4425  0.4569 -1.3721
 1243TIP3    H225145   3.120   2.896   1.806  1.7207  1.0768  0.7850
 1244TIP3   OH225146   5.987   0.966   5.318  0.0780  0.0889  0.1944
 1244TIP3    H125147   6.073   0.924   5.318  0.6534  1.1974  0.9985
 1244TIP3    H225148   6.006   1.058   5.299 -0.9764  0.2788  0.0244
 1245TIP3   OH225149   5.240   5.042  16.205 -0.1416 -0.3651 -0.1734
 1245TIP3    H125150   5.247   4.966  16.148 -0.4288 -0.2522 -0.3594
 1245TIP3    H225151   5.148   5.069  16.199  0.0335  0.2111 -0.3899
 1246TIP3   OH225152   2.976   2.156   2.742  0.1051  0.3445  0.2345
 1246TIP3    H125153   3.037   2.130   2.673 -1.0385  0.3838 -0.8295
 1246TIP3    H225154   2.948   2.244   2.718 -0.8535  0.0803  0.3619
 1247TIP3   OH225155   2.398   2.525   3.880  0.1400  0.0625  0.1783
 1247TIP3    H125156   2.330   2.552   3.819  0.0519 -1.0742 -0.2380
 1247TIP3    H225157   2.352   2.472   3.945  0.6587 -0.9663 -0.2718
 1248TIP3   OH225158   1.667   4.227  11.499 -0.4742  0.0954 -0.9928
 1248TIP3    H125159   1.708   4.276  11.427 -1.3776  2.4818  0.0119
 1248TIP3    H225160   1.617   4.293  11.547 -1.2505 -1.7472  0.8630
 1249TIP3   OH225161   1.373   1.198   2.168  0.5564 -0.2575 -0.1486
 1249TIP3    H125162   1.384   1.231   2.079 -1.0926 -0.9841 -0.6624
 1249TIP3    H225163   1.362   1.277   2.221  0.4891  0.1540 -0.7671
 1250TIP3   OH225164   0.981   6.467   1.123  0.2106  0.8662 -0.2510
 1250TIP3    H125165   1.029   6.399   1.171  1.1518  1.1303 -0.7807
 1250TIP3    H225166   1.011   6.458   1.032 -1.5968  0.3262 -0.8417
 1251TIP3   OH225167   1.897   6.704  14.641  0.1123  0.2206  0.4273
 1251TIP3    H125168   1.893   6.700  14.545 -0.7424  1.2850  0.4029
 1251TIP3    H225169   1.840   6.633  14.670 -2.8250  2.2669  0.0846
 1252TIP3   OH225170   1.149   4.657   5.070  0.1267  0.2926  0.0785
 1252TIP3    H125171   1.058   4.656   5.041  0.3385  0.6631 -0.6182
 1252TIP3    H225172   1.153   4.590   5.138 -0.6310  0.1645  0.0054
 1253TIP3   OH225173   2.694   1.826   2.992  0.2778  0.1217  0.2368
 1253TIP3    H125174   2.605   1.794   3.008  0.3299 -0.3191 -0.3100
 1253TIP3    H225175   2.739   1.752   2.952  0.7820  0.4677  0.1552
 1254TIP3   OH225176   3.413   0.066   2.044  0.0570 -0.1589  0.4332
 1254TIP3    H125177   3.460   0.126   2.102 -1.2851  0.1317  1.2565
 1254TIP3    H225178   3.423   0.105   1.957 -0.3811  1.0092  0.8856
 1255TIP3   OH225179   1.883   6.613   4.809  0.1733  0.1171  1.0484
 1255TIP3    H125180   1.905   6.520   4.812  0.5785  0.2208  3.1270
 1255TIP3    H225181   1.962   6.655   4.776  0.3940 -0.1898  1.1769
 1256TIP3   OH225182   0.592   6.315   1.683  0.2257 -0.4332 -0.5307
 1256TIP3    H125183   0.673   6.342   1.726 -0.4255  0.7282 -0.0017
 1256TIP3    H225184   0.541   6.395   1.674 -0.6691 -1.0630 -1.3151
 1257TIP3   OH225185   3.626   4.726  12.219 -0.7765 -0.3705  0.2119
 1257TIP3    H125186   3.606   4.793  12.154 -0.0455 -0.1958  0.1575
 1257TIP3    H225187   3.590   4.645  12.183 -1.0906 -0.1263 -0.0238
 1258TIP3   OH225188   3.116   6.731   2.970 -0.7767  0.3891  0.7051
 1258TIP3    H125189   3.211   6.742   2.978 -0.8959  0.4255  2.1645
 1258TIP3    H225190   3.082   6.821   2.963 -0.7609  0.3970  0.7337
 1259TIP3   OH225191   5.957   6.600  12.818 -0.2969  0.3267 -0.4685
 1259TIP3    H125192   5.993   6.519  12.853 -1.0034  1.0305  2.0878
 1259TIP3    H225193   6.028   6.664  12.830  0.0113  0.2678 -1.8387
 1260TIP3   OH225194   0.580   0.488   1.824  0.0538 -0.2429 -0.8527
 1260TIP3    H125195   0.516   0.418   1.811 -0.4542  0.1549 -0.5234
 1260TIP3    H225196   0.538   0.549   1.884  0.8543 -0.1077 -0.4114
 1261TIP3   OH225197   5.294   2.464  15.741  0.4473 -0.3001 -0.4610
 1261TIP3    H125198   5.203   2.460  15.710  0.0433 -2.9094  0.7322
 1261TIP3    H225199   5.286   2.484  15.835  1.1883  0.6581 -0.5969
 1262TIP3   OH225200   3.880   0.072   3.569 -0.0125  0.7325 -0.3120
 1262TIP3    H125201   3.800   0.123   3.554 -1.3984 -1.3262 -0.3040
 1262TIP3    H225202   3.886   0.013   3.494  1.2173  0.4769 -0.0403
 1263TIP3   OH225203   3.058   4.537   2.603 -0.5990 -0.3704 -0.3225
 1263TIP3    H125204   3.000   4.475   2.646  0.5734 -1.1920  0.1202
 1263TIP3    H225205   3.081   4.495   2.520  0.9128 -0.9713  0.3753
 1264TIP3   OH225206   4.677   2.148   4.000 -0.2572 -0.1254  0.0942
 1264TIP3    H125207   4.669   2.122   4.092 -1.3423 -0.0741  0.0362
 1264TIP3    H225208   4.646   2.072   3.951  0.1267 -0.0797 -0.2266
 1265TIP3   OH225209   4.587   6.502   0.823 -0.1562 -0.2074  0.5172
 1265TIP3    H125210   4.639   6.471   0.897 -1.6652 -0.3648  1.5557
 1265TIP3    H225211   4.509   6.541   0.863 -1.1547 -0.5818 -0.9874
 1266TIP3   OH225212   2.326   3.392   5.680 -0.0538  0.1118 -0.0070
 1266TIP3    H125213   2.357   3.352   5.762 -1.7401  1.5713  1.4272
 1266TIP3    H225214   2.370   3.477   5.678  0.0145  0.0627 -0.6582
 1267TIP3   OH225215   2.247   2.120  13.376 -0.3817 -0.1724  0.3345
 1267TIP3    H125216   2.325   2.065  13.367 -1.1350 -1.3802  0.9421
 1267TIP3    H225217   2.280   2.204  13.407  0.8225 -0.1786 -0.8230
 1268TIP3   OH225218   0.884   5.603   1.865  0.2166  0.2633  0.3921
 1268TIP3    H125219   0.833   5.680   1.839 -1.0133 -0.2618  1.1237
 1268TIP3    H225220   0.917   5.624   1.952 -0.7671 -0.3140  0.9184
 1269TIP3   OH225221   0.235   4.618  11.781  0.6554  0.5434  0.4697
 1269TIP3    H125222   0.183   4.651  11.854 -1.3585 -1.8328  0.2504
 1269TIP3    H225223   0.221   4.681  11.710 -0.1732  1.0736  1.0953
 1270TIP3   OH225224   5.599   6.073  16.323  0.2972 -0.6453  0.0259
 1270TIP3    H125225   5.629   6.069  16.413  0.0958  0.2847  0.1470
 1270TIP3    H225226   5.562   5.986  16.305 -1.3137 -0.3100  1.4418
 1271TIP3   OH225227   1.248   3.686   1.887  0.3686  0.7245 -0.6861
 1271TIP3    H125228   1.328   3.637   1.903 -1.4274 -1.2386  4.0263
 1271TIP3    H225229   1.214   3.651   1.804  2.2474 -1.4944 -0.5983
 1272TIP3   OH225230   1.252   5.590  11.969  0.1073 -0.3389 -0.4579
 1272TIP3    H125231   1.342   5.558  11.960 -0.3421 -1.8314 -0.0226
 1272TIP3    H225232   1.222   5.553  12.052 -0.6561  0.8147 -0.2017
 1273TIP3   OH225233   3.946   0.412   0.490  0.0331 -0.0905 -0.3929
 1273TIP3    H125234   3.953   0.502   0.522  1.2254  0.8740 -3.0482
 1273TIP3    H225235   3.855   0.388   0.506 -0.4626  1.8006 -0.0876
 1274TIP3   OH225236   2.453   5.739  16.653  0.5093  0.0573  0.3151
 1274TIP3    H125237   2.432   5.697  16.737  0.1152  0.5050  0.4467
 1274TIP3    H225238   2.543   5.710  16.634  0.3175 -0.6887  0.4903
 1275TIP3   OH225239   2.674   4.577  16.002  0.0158 -0.2540  0.1972
 1275TIP3    H125240   2.649   4.668  16.015 -1.5365 -0.7556  1.1364
 1275TIP3    H225241   2.599   4.527  16.037  0.5801 -1.8708 -0.7861
 1276TIP3   OH225242   6.311   2.140   1.099  0.0813 -0.3616 -0.2263
 1276TIP3    H125243   6.398   2.104   1.116  1.0632  1.6665 -0.6419
 1276TIP3    H225244   6.251   2.074   1.132  1.7876 -0.7496  2.4116
 1277TIP3   OH225245   3.801   0.180  10.541  0.3554 -0.3599 -0.2548
 1277TIP3    H125246   3.865   0.155  10.474 -0.1523  0.8003 -1.2304
 1277TIP3    H225247   3.852   0.216  10.612  0.8362 -0.2120 -0.6715
 1278TIP3   OH225248   0.437   5.670   6.313  0.6396 -0.3818 -0.4864
 1278TIP3    H125249   0.403   5.582   6.298 -0.5707 -0.1865  0.9746
 1278TIP3    H225250   0.362   5.721   6.344  1.1575  1.3582 -1.9084
 1279TIP3   OH225251   1.472   3.015   1.147  0.3318  0.2289 -0.1714
 1279TIP3    H125252   1.490   3.088   1.208 -2.2354  0.8754 -0.0473
 1279TIP3    H225253   1.479   3.054   1.060 -1.0042  0.6768 -0.1057
 1280TIP3   OH225254   5.625   1.273   2.347 -0.0889 -0.2550 -0.0752
 1280TIP3    H125255   5.600   1.300   2.436  0.9047  1.5894 -0.3006
 1280TIP3    H225256   5.547   1.289   2.294  0.1687  1.4339 -0.0166
 1281TIP3   OH225257   2.290   1.434   3.774  0.1562 -0.0235 -0.8341
 1281TIP3    H125258   2.290   1.380   3.696  0.4378 -0.0586 -0.8130
 1281TIP3    H225259   2.375   1.416   3.815 -0.2500 -0.4809 -0.1901
 1282TIP3   OH225260   6.687   3.582   4.893 -0.6088  0.6302 -0.2526
 1282TIP3    H125261   6.773   3.605   4.927 -0.7911  1.2146 -0.1698
 1282TIP3    H225262   6.652   3.664   4.859 -0.2873  0.0184 -2.1998
 1283TIP3   OH225263   4.349   1.235   2.563  0.3788  0.2772 -0.0334
 1283TIP3    H125264   4.382   1.154   2.523  0.9742 -0.1519  1.2648
 1283TIP3    H225265   4.301   1.279   2.493  1.7730 -0.2096 -1.3460
 1284TIP3   OH225266   0.478   0.218  15.104 -0.3577  0.2090 -0.2997
 1284TIP3    H125267   0.417   0.147  15.089  0.6768 -0.3692 -1.9920
 1284TIP3    H225268   0.468   0.276  15.029  1.4853 -0.1705 -0.9053
 1285TIP3   OH225269   1.656   3.252   2.137 -0.5272  0.3724  0.2064
 1285TIP3    H125270   1.626   3.219   2.223 -1.7388  1.0769  0.0836
 1285TIP3    H225271   1.734   3.201   2.118 -1.5246 -1.4372  0.6824
 1286TIP3   OH225272   5.596   1.937  15.449 -0.1845 -0.5483 -0.4255
 1286TIP3    H125273   5.526   1.872  15.448  1.1038 -1.9823 -0.9042
 1286TIP3    H225274   5.648   1.918  15.370  0.3073  0.9753 -0.4984
 1287TIP3   OH225275   5.835   4.904  13.215  0.2197  0.3345  0.2114
 1287TIP3    H125276   5.746   4.879  13.190  0.3153  0.1696  0.0302
 1287TIP3    H225277   5.828   4.929  13.307 -0.0337  0.4248  0.1702
 1288TIP3   OH225278   1.333   2.928  17.233  0.0279 -0.0943 -0.8141
 1288TIP3    H125279   1.282   2.847  17.230 -0.7802  0.3919 -0.4451
 1288TIP3    H225280   1.270   2.995  17.259  1.1864  0.2591  1.2996
 1289TIP3   OH225281   1.883   0.211  11.277 -0.1276  0.6676 -0.2868
 1289TIP3    H125282   1.832   0.247  11.349 -1.1622 -1.8808  0.3436
 1289TIP3    H225283   1.918   0.288  11.232 -0.4487  2.3679  2.1836
 1290TIP3   OH225284   4.127   4.148  10.536  0.6869 -0.6920 -0.1282
 1290TIP3    H125285   4.071   4.160  10.460  1.1107  0.3112 -0.3045
 1290TIP3    H225286   4.115   4.057  10.561 -1.1991 -0.4421 -0.0060
 1291TIP3   OH225287   5.018   4.919  15.383 -1.2178 -0.4040  0.3499
 1291TIP3    H125288   5.077   4.943  15.311 -1.2379 -1.8813 -0.1857
 1291TIP3    H225289   5.070   4.861  15.438 -1.3793  0.2900  1.2546
 1292TIP3   OH225290   1.765   2.552   1.827  0.4610  0.6720  0.0929
 1292TIP3    H125291   1.776   2.502   1.908 -1.1451  0.1281  0.0289
 1292TIP3    H225292   1.715   2.493   1.770  0.6761  1.4362 -0.9057
 1293TIP3   OH225293   4.913   5.873  13.712  0.0977  0.0396  0.0366
 1293TIP3    H125294   4.989   5.854  13.657 -0.4619  0.4359 -0.9016
 1293TIP3    H225295   4.857   5.795  13.702  0.2065 -0.0856  0.4115
 1294TIP3   OH225296   6.481   1.886  12.873 -0.0185  0.3021  0.5134
 1294TIP3    H125297   6.403   1.937  12.893  0.2599  0.8592  0.2098
 1294TIP3    H225298   6.451   1.795  12.873 -0.8059  0.5490 -0.2146
 1295TIP3   OH225299   5.261   5.635   3.311 -0.3875  0.1371  0.2954
 1295TIP3    H125300   5.308   5.587   3.378  0.5066  0.5113 -0.0487
 1295TIP3    H225301   5.188   5.676   3.357 -0.2652 -0.2910  0.8769
 1296TIP3   OH225302   4.046   3.860  13.882 -0.0353  0.3777  0.4953
 1296TIP3    H125303   4.010   3.853  13.971 -0.8327 -1.7111  0.0798
 1296TIP3    H225304   4.121   3.801  13.882 -0.1460  0.2238 -0.2500
 1297TIP3   OH225305   3.141   2.521  12.329  0.3734  0.2630  0.3710
 1297TIP3    H125306   3.160   2.530  12.235  1.3431  0.9724  0.6273
 1297TIP3    H225307   3.046   2.531  12.335  0.3517  0.6400 -0.4865
 1298TIP3   OH225308   5.475   2.559  16.212  0.3100  0.0973 -0.4311
 1298TIP3    H125309   5.553   2.504  16.201  0.0428 -0.2160 -0.8046
 1298TIP3    H225310   5.423   2.542  16.134  0.2913  1.0027 -0.6236
 1299TIP3   OH225311   2.360   2.634  15.267  0.0429  0.1120  0.2056
 1299TIP3    H125312   2.282   2.689  15.266  0.9759  1.6929  2.7868
 1299TIP3    H225313   2.427   2.686  15.223 -0.0066 -0.7546 -0.9661
 1300TIP3   OH225314   6.495   4.476  12.718  0.1090  0.4032  0.1228
 1300TIP3    H125315   6.472   4.559  12.676 -0.1802  1.3704  2.1025
 1300TIP3    H225316   6.423   4.417  12.696 -1.4590  1.7049  1.4573
 1301TIP3   OH225317   3.286   5.842   2.089  0.0795 -0.3378 -0.3637
 1301TIP3    H125318   3.365   5.865   2.137  0.0652 -1.2918  0.1603
 1301TIP3    H225319   3.295   5.748   2.072 -0.6588 -0.3347 -0.8171
 1302TIP3   OH225320   2.645   4.343  13.376  0.5527  0.0664  0.2920
 1302TIP3    H125321   2.597   4.426  13.369 -0.4610 -0.5848 -0.8661
 1302TIP3    H225322   2.611   4.304  13.457  0.5665  0.4739  0.5027
 1303TIP3   OH225323   5.522   0.407  14.404  0.3239 -0.5669 -0.3975
 1303TIP3    H125324   5.499   0.330  14.351 -2.6533 -0.4760  0.5708
 1303TIP3    H225325   5.564   0.371  14.482  0.4261 -1.0869 -0.6892
 1304TIP3   OH225326   4.681   5.349  13.400 -0.4088 -0.0469  0.0172
 1304TIP3    H125327   4.595   5.382  13.373 -0.7170 -0.5529  0.3468
 1304TIP3    H225328   4.715   5.305  13.323 -0.4694  0.1150 -0.1024
 1305TIP3   OH225329   0.394   3.940   4.211 -0.6449  0.1426  0.4424
 1305TIP3    H125330   0.465   3.884   4.178 -0.1011  0.0779  1.6682
 1305TIP3    H225331   0.401   3.933   4.306 -0.0813  2.8717  0.6718
 1306TIP3   OH225332   5.352   4.084  12.409  0.0971 -0.1597 -0.1024
 1306TIP3    H125333   5.395   4.019  12.463 -1.6537 -1.9746 -0.7730
 1306TIP3    H225334   5.419   4.111  12.346  1.5290  0.4607  1.6379
 1307TIP3   OH225335   1.976   2.105  12.238 -0.0983  0.3898  0.1847
 1307TIP3    H125336   1.979   2.140  12.149 -0.4839 -0.3153 -0.1139
 1307TIP3    H225337   1.901   2.046  12.238  1.9475 -2.4464 -0.1139
 1308TIP3   OH225338   6.785   2.028   4.396  0.4765 -0.0681 -0.1511
 1308TIP3    H125339   6.783   2.088   4.470 -0.7104 -1.1994  0.7801
 1308TIP3    H225340   6.693   2.004   4.383  0.9037 -1.5159 -0.6399
 1309TIP3   OH225341   0.260   4.684   0.626 -0.4397  0.2489 -0.4641
 1309TIP3    H125342   0.349   4.661   0.652 -0.0803  1.8079 -0.2628
 1309TIP3    H225343   0.266   4.698   0.531 -0.1473  1.6595 -0.2613
 1310TIP3   OH225344   1.508   2.883   6.722 -0.2718  0.0361 -0.7663
 1310TIP3    H125345   1.573   2.912   6.659 -0.7640  1.3199 -0.7091
 1310TIP3    H225346   1.557   2.874   6.804 -0.0205  0.2856 -0.8866
 1311TIP3   OH225347   4.629   0.360  13.797  0.2644  0.2504 -0.0245
 1311TIP3    H125348   4.644   0.289  13.735  0.9879  1.0701 -0.8224
 1311TIP3    H225349   4.717   0.390  13.821  0.0573 -0.7904  2.3211
 1312TIP3   OH225350   1.404   5.491  16.966  0.0321  0.3088  0.2628
 1312TIP3    H125351   1.311   5.505  16.949  0.2345  0.4714 -0.8145
 1312TIP3    H225352   1.447   5.567  16.926  0.6135  0.3378  0.9288
 1313TIP3   OH225353   2.745   3.128  15.010 -0.3393  0.2613 -0.1706
 1313TIP3    H125354   2.673   3.190  14.997 -1.1221 -0.7937 -1.0285
 1313TIP3    H225355   2.807   3.174  15.066 -2.7146  0.4512  2.5455
 1314TIP3   OH225356   3.342   4.119   4.897 -0.3279  0.0856  0.5770
 1314TIP3    H125357   3.410   4.070   4.942 -0.0505 -2.0216 -1.8656
 1314TIP3    H225358   3.321   4.066   4.820 -0.9632  3.2137 -1.6238
 1315TIP3   OH225359   3.453   4.143  11.170 -0.2194 -0.1033 -0.0780
 1315TIP3    H125360   3.514   4.161  11.099  2.8940  0.6772  2.5652
 1315TIP3    H225361   3.438   4.228  11.212 -1.3174 -0.6467  0.6933
 1316TIP3   OH225362   4.490   5.064   2.619 -0.2788 -0.4151  0.0371
 1316TIP3    H125363   4.516   5.156   2.620 -0.2350 -0.4205 -0.4021
 1316TIP3    H225364   4.396   5.066   2.640 -0.4006 -0.2275 -0.5117
 1317TIP3   OH225365   6.359   2.226   3.106  0.6944  0.9158 -0.2316
 1317TIP3    H125366   6.417   2.256   3.176 -0.6721 -2.1576  2.5161
 1317TIP3    H225367   6.271   2.241   3.140 -0.0125 -0.7588 -1.1881
 1318TIP3   OH225368   1.723   4.896  11.176  0.0878  0.1449  0.5665
 1318TIP3    H125369   1.707   4.833  11.106 -0.4442 -0.2469  1.0283
 1318TIP3    H225370   1.774   4.965  11.135  0.9867 -0.7583  0.1381
 1319TIP3   OH225371   2.739   3.387  16.208 -0.9041 -0.6017  0.1310
 1319TIP3    H125372   2.757   3.459  16.269 -0.6870 -0.1404 -0.4664
 1319TIP3    H225373   2.787   3.313  16.245  1.4809  0.3288 -0.8414
 1320TIP3   OH225374   2.618   3.134   4.219 -0.2018  0.4537  0.1889
 1320TIP3    H125375   2.606   3.171   4.131 -2.1674 -1.6308 -0.5098
 1320TIP3    H225376   2.713   3.125   4.228  0.0293 -0.8870 -2.4958
 1321TIP3   OH225377   2.638   0.004   0.049 -0.0316 -0.5794  0.3963
 1321TIP3    H125378   2.642   0.081   0.106  0.0560 -1.0950  1.1009
 1321TIP3    H225379   2.617  -0.068   0.107  0.4082 -1.1801 -0.1721
 1322TIP3   OH225380   2.936   6.371   1.726 -0.2942 -0.0663 -0.0631
 1322TIP3    H125381   2.970   6.415   1.804  0.8409 -0.3241 -0.3983
 1322TIP3    H225382   2.891   6.440   1.678  0.1546  0.3989  0.1721
 1323TIP3   OH225383   1.690   5.613  12.174 -0.0010  0.1143  0.1278
 1323TIP3    H125384   1.605   5.645  12.203  1.3960  0.4210  4.6123
 1323TIP3    H225385   1.746   5.691  12.173  0.8166 -0.4609 -0.2335
 1324TIP3   OH225386   0.676   6.529   0.772  0.0976  0.2538  0.4848
 1324TIP3    H125387   0.667   6.435   0.756 -0.6784  0.5220 -0.7800
 1324TIP3    H225388   0.760   6.552   0.732 -0.7000  0.4620 -1.1620
 1325TIP3   OH225389   1.463   4.905  14.359 -0.1467  0.2910 -0.5300
 1325TIP3    H125390   1.436   4.853  14.434  2.3513  1.3876  1.2696
 1325TIP3    H225391   1.523   4.847  14.310 -0.2122  0.2523 -0.5643
 1326TIP3   OH225392   4.416   0.652   1.058 -0.5454 -0.4205  0.4346
 1326TIP3    H125393   4.499   0.701   1.059 -0.6970 -0.0567 -1.3300
 1326TIP3    H225394   4.443   0.560   1.057 -0.1119 -0.3045 -0.7803
 1327TIP3   OH225395   5.821   3.942   3.768 -0.1210  0.0490  0.7434
 1327TIP3    H125396   5.796   3.948   3.676 -0.9493 -0.7096  0.8976
 1327TIP3    H225397   5.770   4.011   3.811 -1.6396 -1.1329  0.9687
 1328TIP3   OH225398   3.520   6.062  16.716 -0.3587  0.1377  0.0179
 1328TIP3    H125399   3.609   6.089  16.737  0.1501 -0.3713 -1.3615
 1328TIP3    H225400   3.469   6.086  16.793  0.7806  1.3450  0.4381
 1329TIP3   OH225401   3.856   4.944   0.855  0.3076  0.5543 -0.1230
 1329TIP3    H125402   3.881   5.016   0.912  0.4459 -0.3599  0.9938
 1329TIP3    H225403   3.823   4.876   0.914  2.6686 -1.3674 -0.8450
 1330TIP3   OH225404   6.552   6.566  10.461 -0.2867  0.0255 -0.1866
 1330TIP3    H125405   6.610   6.635  10.494  0.4468 -0.0972 -1.1799
 1330TIP3    H225406   6.511   6.605  10.383 -2.4078  0.5114  1.0983
 1331TIP3   OH225407   6.067   2.710  15.912 -0.0813  0.0239 -0.5224
 1331TIP3    H125408   6.079   2.694  15.818 -0.3914  0.9172 -0.7223
 1331TIP3    H225409   5.975   2.688  15.928 -0.1296  0.2325 -0.5086
 1332TIP3   OH225410   2.103   6.189  14.261 -0.1443  0.0102  0.5061
 1332TIP3    H125411   2.124   6.221  14.173 -0.8426  0.9373  0.6656
 1332TIP3    H225412   2.187   6.194  14.308 -0.3364  2.3874  0.7435
 1333TIP3   OH225413   6.286   2.717  15.067 -0.1243  0.2355 -0.0135
 1333TIP3    H125414   6.229   2.639  15.068  0.2936 -0.2440 -2.9194
 1333TIP3    H225415   6.234   2.785  15.109 -1.9352 -0.7821 -0.4717
 1334TIP3   OH225416   1.196   0.731  13.151  0.2990  0.5660  0.1520
 1334TIP3    H125417   1.233   0.785  13.081  0.1501  1.6514  0.8982
 1334TIP3    H225418   1.167   0.651  13.106  1.3277  0.7217 -0.8213
 1335TIP3   OH225419   2.583   0.327   4.761 -0.6414  0.2599 -0.0221
 1335TIP3    H125420   2.620   0.398   4.813 -0.8008  0.0296  0.4035
 1335TIP3    H225421   2.657   0.295   4.709 -0.0363 -0.6724  1.3469
 1336TIP3   OH225422   1.076   6.154  12.876 -0.0232  0.4467  0.1589
 1336TIP3    H125423   1.069   6.215  12.803  0.6395 -0.6285 -0.8517
 1336TIP3    H225424   1.165   6.118  12.868  0.2198  0.6090  1.7574
 1337TIP3   OH225425   2.766   3.743   1.821 -0.2356  0.0064  0.2267
 1337TIP3    H125426   2.834   3.720   1.885  0.5380  0.2124 -0.4968
 1337TIP3    H225427   2.797   3.824   1.782 -0.8098 -0.0033 -0.2560
 1338TIP3   OH225428   5.880   0.508  13.360  0.3255  0.0408 -0.2988
 1338TIP3    H125429   5.959   0.525  13.309  0.3599 -1.2199 -0.7060
 1338TIP3    H225430   5.834   0.440  13.311 -0.1964 -0.4139  0.7820
 1339TIP3   OH225431   6.010   1.015  14.897  0.1103 -0.0307  0.1694
 1339TIP3    H125432   5.951   1.084  14.868  0.6928  1.4138  2.1739
 1339TIP3    H225433   6.098   1.047  14.876  0.5312  0.9025  2.8945
 1340TIP3   OH225434   5.568   1.721   5.702  0.2111 -0.8283  0.3875
 1340TIP3    H125435   5.642   1.665   5.728  0.9708 -0.1011 -0.1903
 1340TIP3    H225436   5.580   1.801   5.752  0.0830 -0.5121 -0.0907
 1341TIP3   OH225437   0.801   6.595  13.793  0.2287 -0.2441 -0.1864
 1341TIP3    H125438   0.873   6.604  13.730 -0.2473 -1.2407 -0.8902
 1341TIP3    H225439   0.819   6.513  13.838  0.1144  0.0504  0.4038
 1342TIP3   OH225440   4.991   2.864  12.446  0.3397  0.7184  0.3567
 1342TIP3    H125441   4.990   2.928  12.375  1.3955  1.7660  1.2473
 1342TIP3    H225442   5.009   2.915  12.525  0.1718 -0.5424  1.2459
 1343TIP3   OH225443   2.617   2.847   1.634  0.2206  0.2958 -0.8617
 1343TIP3    H125444   2.616   2.940   1.659 -0.1619 -0.3126  1.7143
 1343TIP3    H225445   2.658   2.803   1.709 -1.4948 -1.8282 -1.0642
 1344TIP3   OH225446   0.252   1.185  15.718  0.1437  0.2857 -0.2862
 1344TIP3    H125447   0.265   1.137  15.636 -0.4054 -0.6282  0.1405
 1344TIP3    H225448   0.167   1.154  15.751  0.2793  0.7597  0.5467
 1345TIP3   OH225449   1.684   5.736   5.906 -0.4915  0.6045 -0.2991
 1345TIP3    H125450   1.677   5.645   5.879 -2.0836  0.8047 -0.6615
 1345TIP3    H225451   1.663   5.735   6.000  0.0384  0.5322 -0.1807
 1346TIP3   OH225452   1.768   5.552   3.017 -0.1185  0.3615 -0.1686
 1346TIP3    H125453   1.798   5.481   2.960 -0.5087  0.3676 -0.3864
 1346TIP3    H225454   1.674   5.538   3.024 -0.0867  0.4068  0.4129
 1347TIP3   OH225455   3.029   6.521   4.567 -0.0368  0.5404 -0.0022
 1347TIP3    H125456   3.005   6.614   4.576 -0.4721  0.3854  0.4793
 1347TIP3    H225457   2.956   6.474   4.607  0.1112 -0.0189 -0.3910
 1348TIP3   OH225458   5.900   5.750   1.162  0.1411  0.2341 -0.4806
 1348TIP3    H125459   5.825   5.753   1.104 -1.8283 -0.9622  1.8135
 1348TIP3    H225460   5.891   5.827   1.218  0.4651 -0.0459 -0.0291
 1349TIP3   OH225461   6.506   3.326  13.627  0.1873  0.2985  0.0701
 1349TIP3    H125462   6.484   3.291  13.714 -0.6204  3.6014  1.3612
 1349TIP3    H225463   6.488   3.254  13.567 -0.3844 -1.7521  2.5121
 1350TIP3   OH225464   6.431   5.477  16.734 -0.1882 -0.7310 -0.0722
 1350TIP3    H125465   6.398   5.388  16.718  1.0322 -1.0912 -0.6956
 1350TIP3    H225466   6.513   5.481  16.685 -0.5269  0.9554 -0.5413
 1351TIP3   OH225467   5.312   1.051   1.994  0.0225  0.1059 -0.0701
 1351TIP3    H125468   5.246   1.088   2.052 -0.0581  0.8579 -0.6192
 1351TIP3    H225469   5.394   1.095   2.018 -0.1963  1.1675 -1.1639
 1352TIP3   OH225470   0.090   4.031  14.681 -0.1357 -0.3965 -0.1354
 1352TIP3    H125471   0.153   4.041  14.609  0.1653  0.8651  0.2684
 1352TIP3    H225472   0.119   3.953  14.728  0.2659 -0.6516 -0.7862
 1353TIP3   OH225473   0.529   3.480   6.194  0.8035  0.6998 -0.3322
 1353TIP3    H125474   0.589   3.417   6.234 -0.4810 -0.2417  0.1966
 1353TIP3    H225475   0.456   3.485   6.256 -1.1299 -0.5781 -2.3437
 1354TIP3   OH225476   2.823   4.444   3.007 -0.1731 -0.3109 -0.4070
 1354TIP3    H125477   2.812   4.385   3.082  0.1996  0.3580  0.1893
 1354TIP3    H225478   2.757   4.512   3.020  0.8569  0.6139  0.1300
 1355TIP3   OH225479   1.526   3.392   2.549 -0.0810 -0.0768 -0.2685
 1355TIP3    H125480   1.483   3.457   2.494  0.7576  0.1485 -0.6639
 1355TIP3    H225481   1.483   3.309   2.527 -0.6432  0.2172 -0.2992
 1356TIP3   OH225482   5.061   5.344  15.914 -0.1774 -0.0224 -0.9411
 1356TIP3    H125483   5.106   5.393  15.983  1.5849 -1.7207 -0.7926
 1356TIP3    H225484   5.020   5.412  15.860  3.6898  1.8656 -1.8814
 1357TIP3   OH225485   2.370   5.949  14.783  0.5420 -0.1205  0.1143
 1357TIP3    H125486   2.463   5.948  14.761  0.9287 -1.8867  1.5632
 1357TIP3    H225487   2.334   5.874  14.735 -0.1657  0.6153 -0.5193
 1358TIP3   OH225488   2.408   5.333  13.504  0.6278  0.6114  0.2247
 1358TIP3    H125489   2.366   5.267  13.560  1.0490 -0.5195 -0.7469
 1358TIP3    H225490   2.345   5.347  13.433  1.2701 -0.0815 -0.5091
 1359TIP3   OH225491   2.880   0.157  15.749 -0.0676  0.4158  0.3640
 1359TIP3    H125492   2.817   0.195  15.811  0.9611  0.6888  1.2900
 1359TIP3    H225493   2.963   0.199  15.772  0.9982 -1.8410  0.9670
 1360TIP3   OH225494   4.932   3.318   0.301  0.1465 -0.9854 -0.0569
 1360TIP3    H125495   4.987   3.323   0.223  0.7984 -0.7763  0.4044
 1360TIP3    H225496   4.991   3.291   0.371  0.4739  2.3022  1.1494
 1361TIP3   OH225497   2.470   2.713   1.446 -0.5237  0.3964 -0.0062
 1361TIP3    H125498   2.480   2.639   1.505 -1.4721  0.2181 -0.0572
 1361TIP3    H225499   2.490   2.790   1.499  1.5011  0.0650 -0.2152
 1362TIP3   OH225500   1.653   0.590  16.163  0.1982 -0.5601  0.5287
 1362TIP3    H125501   1.636   0.582  16.257 -1.5363  0.3610  0.3391
 1362TIP3    H225502   1.605   0.668  16.136 -1.4393 -2.1292 -1.5530
 1363TIP3   OH225503   3.972   4.290   2.597  0.2360  0.3017 -0.0608
 1363TIP3    H125504   4.066   4.286   2.615  0.3845  1.5142 -0.4599
 1363TIP3    H225505   3.947   4.380   2.620 -0.5275  0.4310 -1.2969
 1364TIP3   OH225506   2.023   2.007   5.751  0.2609 -0.3470 -0.7445
 1364TIP3    H125507   2.080   1.980   5.823 -0.6006  1.1134  0.5669
 1364TIP3    H225508   1.963   1.934   5.738  0.9300 -0.9422 -0.5182
 1365TIP3   OH225509   4.284   2.570  13.995 -0.0085 -0.0460 -0.1656
 1365TIP3    H125510   4.224   2.577  13.920  0.4596 -0.2616 -0.5647
 1365TIP3    H225511   4.321   2.482  13.988  0.0205 -0.0793  0.3406
 1366TIP3   OH225512   2.884   5.558  16.708  0.4089 -0.0417 -0.0521
 1366TIP3    H125513   2.887   5.613  16.629 -2.5828  2.4447  1.3660
 1366TIP3    H225514   2.792   5.534  16.717  0.3079  1.1289  3.4684
 1367TIP3   OH225515   6.213   4.648   2.430  0.6652  0.2871 -0.2241
 1367TIP3    H125516   6.216   4.562   2.472  3.0313  0.6407  0.4876
 1367TIP3    H225517   6.217   4.710   2.503  2.1561  0.9382 -0.8169
 1368TIP3   OH225518   3.519   1.417   4.390 -0.3676 -0.6693  0.0283
 1368TIP3    H125519   3.549   1.397   4.479 -0.0307  2.8510  0.8346
 1368TIP3    H225520   3.424   1.429   4.400 -0.0928  1.5643  0.3908
 1369TIP3   OH225521   0.922   2.272  17.133 -0.0680  0.6718 -0.4190
 1369TIP3    H125522   0.989   2.225  17.083  0.4484  0.5444  0.3759
 1369TIP3    H225523   0.846   2.273  17.075  0.1134 -0.5867 -0.7137
 1370TIP3   OH225524   1.064   2.448  16.345 -0.2586  0.3176  0.1792
 1370TIP3    H125525   1.120   2.494  16.407 -0.2491 -0.3236  0.6631
 1370TIP3    H225526   1.009   2.393  16.400  0.4344 -1.0240 -0.4236
 1371TIP3   OH225527   0.577   5.376  11.375  0.0811 -0.4936  0.6626
 1371TIP3    H125528   0.657   5.417  11.406 -1.0960  2.6689 -0.0653
 1371TIP3    H225529   0.514   5.389  11.445 -0.8012  0.6652 -0.3020
 1372TIP3   OH225530   0.446   5.966  12.791 -0.3427  1.0769  0.2259
 1372TIP3    H125531   0.541   5.962  12.788 -0.3702  0.4212 -0.0376
 1372TIP3    H225532   0.423   5.938  12.880 -0.3656 -1.3193 -0.4442
 1373TIP3   OH225533   6.489   2.562   5.503  0.5833  0.8054 -0.2576
 1373TIP3    H125534   6.441   2.588   5.581 -1.0292 -1.0424 -0.5740
 1373TIP3    H225535   6.581   2.571   5.528  0.1840  3.8790  0.5463
 1374TIP3   OH225536   3.185   1.761  13.655  0.1700 -1.0215  0.2555
 1374TIP3    H125537   3.114   1.793  13.600  1.7442  2.7735  0.1499
 1374TIP3    H225538   3.221   1.839  13.698  1.9574 -3.2054  3.1818
 1375TIP3   OH225539   5.594   3.761  11.653  0.2734  0.9084  0.1844
 1375TIP3    H125540   5.561   3.686  11.602 -1.3516  1.5944  0.1657
 1375TIP3    H225541   5.608   3.829  11.587  2.4937  0.4311  0.0931
 1376TIP3   OH225542   2.060   5.891   0.902 -0.3690 -0.0168 -0.4590
 1376TIP3    H125543   2.119   5.902   0.828  0.8254 -0.5492  0.3848
 1376TIP3    H225544   2.097   5.818   0.952 -0.9463  0.5329  0.8266
 1377TIP3   OH225545   4.829   6.245   0.108  0.4519  0.4654 -0.2852
 1377TIP3    H125546   4.747   6.254   0.157 -0.1383 -3.1235 -0.3290
 1377TIP3    H225547   4.896   6.231   0.175  0.9483  2.5338 -0.2926
 1378TIP3   OH225548   4.624   6.566   3.555 -0.4651 -0.1415 -0.1865
 1378TIP3    H125549   4.672   6.645   3.530 -1.8660  1.2292  1.2274
 1378TIP3    H225550   4.591   6.532   3.472 -0.0040  0.8711 -0.8129
 1379TIP3   OH225551   0.899   1.512  13.251 -0.2367  0.2031  0.2092
 1379TIP3    H125552   0.909   1.600  13.214 -0.8230  0.3811  0.4634
 1379TIP3    H225553   0.987   1.488  13.280  0.0720  0.3895 -0.5672
 1380TIP3   OH225554   2.047   4.795  16.082  0.9947  0.3014 -0.0477
 1380TIP3    H125555   2.009   4.854  16.146  0.1741  0.2551 -0.4693
 1380TIP3    H225556   2.033   4.707  16.119  0.5006  0.2734 -0.2901
 1381TIP3   OH225557   3.104   3.921   0.333  0.4661  0.7193  0.0718
 1381TIP3    H125558   3.143   3.980   0.268 -1.0957 -0.4162 -2.0079
 1381TIP3    H225559   3.028   3.968   0.366  0.3209  0.6382 -0.1475
 1382TIP3   OH225560   4.849   6.398  13.136 -0.1746  0.1163 -0.2170
 1382TIP3    H125561   4.801   6.466  13.183 -0.0952 -0.8818  1.3656
 1382TIP3    H225562   4.791   6.322  13.137  0.4865 -0.4009 -0.3115
 1383TIP3   OH225563   3.287   6.385  11.285 -0.7942 -0.2194 -0.1374
 1383TIP3    H125564   3.238   6.442  11.225 -1.2027 -0.9431 -0.5019
 1383TIP3    H225565   3.226   6.368  11.356 -0.4930  0.2051  0.2265
 1384TIP3   OH225566   5.842   1.321   5.526 -0.4186 -0.2430 -0.3404
 1384TIP3    H125567   5.782   1.249   5.511  0.3033 -0.4417 -2.6716
 1384TIP3    H225568   5.826   1.382   5.453  0.8388  0.6343  0.0785
 1385TIP3   OH225569   1.145   4.497  11.416  0.7764 -0.2070  0.4501
 1385TIP3    H125570   1.114   4.510  11.327  0.0118  1.1213  0.8851
 1385TIP3    H225571   1.227   4.449  11.406  0.6980 -0.0830 -0.9600
 1386TIP3   OH225572   2.713   5.586   3.343 -0.4295 -0.3101 -0.5569
 1386TIP3    H125573   2.744   5.621   3.427 -0.7152 -0.5596 -0.3439
 1386TIP3    H225574   2.668   5.661   3.302  1.9684  0.6092 -1.6987
 1387TIP3   OH225575   6.353   1.491   2.604  0.3635 -0.4387  1.0142
 1387TIP3    H125576   6.311   1.571   2.574  0.5248 -0.1421  1.5728
 1387TIP3    H225577   6.323   1.424   2.543  2.5363  0.5664 -1.3243
 1388TIP3   OH225578   6.268   0.394   3.268 -0.0600 -0.2319 -0.1776
 1388TIP3    H125579   6.205   0.451   3.312 -1.2358 -0.9631 -0.8641
 1388TIP3    H225580   6.319   0.453   3.212 -2.2331  0.0506 -2.0150
 1389TIP3   OH225581   3.492   1.259   2.878  0.0194  0.3567 -0.4390
 1389TIP3    H125582   3.434   1.221   2.944  1.3159 -0.1260  0.4630
 1389TIP3    H225583   3.580   1.246   2.913  0.6608  1.4993 -1.5470
 1390TIP3   OH225584   4.046   5.317   4.331 -0.1215  0.0763  0.1407
 1390TIP3    H125585   4.013   5.228   4.317  1.0698 -0.1255 -1.7584
 1390TIP3    H225586   4.130   5.319   4.286 -0.0789  2.1634  0.2008
 1391TIP3   OH225587   0.354   2.037   2.815 -0.2233 -0.3081  0.1648
 1391TIP3    H125588   0.448   2.051   2.809 -0.3927  0.3918 -3.2488
 1391TIP3    H225589   0.324   2.098   2.882  1.7547 -0.7680  1.5338
 1392TIP3   OH225590   6.270   1.718   2.934 -0.0197  0.2681 -0.0809
 1392TIP3    H125591   6.343   1.656   2.929  0.2018  0.5767 -0.7446
 1392TIP3    H225592   6.293   1.776   3.007 -0.4457 -0.6995  0.8423
 1393TIP3   OH225593   4.303   1.800   2.452  0.0171 -0.3093 -0.3321
 1393TIP3    H125594   4.308   1.715   2.407 -1.0090  0.1686 -1.3979
 1393TIP3    H225595   4.395   1.825   2.465  0.3527 -1.9458  0.7574
 1394TIP3   OH225596   0.122   1.409   5.880  0.1995  0.2604 -0.0355
 1394TIP3    H125597   0.083   1.355   5.949 -0.9451 -0.9420 -1.5520
 1394TIP3    H225598   0.216   1.395   5.888  0.2399  1.4135  2.2508
 1395TIP3   OH225599   2.980   2.285   6.156 -0.6809 -0.2877  0.3572
 1395TIP3    H125600   3.023   2.216   6.106  1.4475  1.1814  0.0047
 1395TIP3    H225601   2.985   2.257   6.247  0.4768 -0.4697  0.2501
 1396TIP3   OH225602   5.683   3.758  17.272 -0.0537  0.1507 -0.4000
 1396TIP3    H125603   5.641   3.672  17.269 -2.8613  1.3893 -0.1531
 1396TIP3    H225604   5.703   3.778  17.181  1.4160 -1.0783 -0.3772
 1397TIP3   OH225605   1.125   6.335  14.220  0.5266 -0.6127 -0.7416
 1397TIP3    H125606   1.206   6.305  14.263  0.5820  0.9091  0.2979
 1397TIP3    H225607   1.139   6.315  14.127  2.3640  0.1330 -0.6748
 1398TIP3   OH225608   0.679   3.788   2.549 -0.3476  0.0003 -0.0754
 1398TIP3    H125609   0.621   3.864   2.548  0.6052  0.7935  1.4257
 1398TIP3    H225610   0.720   3.789   2.635  0.2222 -1.8378 -0.2639
 1399TIP3   OH225611   1.453   5.769  16.899  0.2169  0.0289 -0.6930
 1399TIP3    H125612   1.496   5.801  16.978  0.4161  0.8590 -1.1223
 1399TIP3    H225613   1.360   5.792  16.911  0.2775  0.3261 -0.7760
 1400TIP3   OH225614   6.712   0.982  13.930 -0.0545 -0.4946  0.2869
 1400TIP3    H125615   6.672   0.972  13.844  1.4321 -0.9575 -0.3988
 1400TIP3    H225616   6.680   0.907  13.981 -0.0337 -0.8718 -0.2472
 1401TIP3   OH225617   6.288   4.590   1.307  0.2215 -0.4260  0.2744
 1401TIP3    H125618   6.370   4.585   1.257 -0.2164 -0.0931 -0.4957
 1401TIP3    H225619   6.279   4.683   1.329  0.5773 -0.6145  1.2810
 1402TIP3   OH225620   0.651   3.796   3.729 -0.1467  0.1256  0.0865
 1402TIP3    H125621   0.740   3.760   3.727 -0.0687  0.2215  1.4077
 1402TIP3    H225622   0.600   3.731   3.776 -0.7637  0.1414 -0.5471
 1403TIP3   OH225623   3.380   0.338   2.117 -0.3441  0.2849 -0.0249
 1403TIP3    H125624   3.371   0.352   2.212  0.6335  1.4879 -0.0746
 1403TIP3    H225625   3.466   0.375   2.096  0.7866 -2.6312 -0.9246
 1404TIP3   OH225626   4.207   1.986   5.790  0.1960 -0.0539  0.7456
 1404TIP3    H125627   4.290   1.990   5.743  0.6625  0.1189  1.5704
 1404TIP3    H225628   4.154   2.055   5.751  1.2141  1.2991  1.6533
 1405TIP3   OH225629   0.014   4.310  16.180 -0.0305 -0.0190  0.0058
 1405TIP3    H125630  -0.012   4.385  16.128 -0.4545 -0.2330 -0.0953
 1405TIP3    H225631  -0.066   4.258  16.190 -0.8292  1.5813  3.5541
 1406TIP3   OH225632   5.251   2.517  14.863  0.0353 -0.3149 -0.2490
 1406TIP3    H125633   5.160   2.494  14.843  0.1005 -0.7653 -0.0298
 1406TIP3    H225634   5.248   2.554  14.952 -0.2212  1.4917 -0.9698
 1407TIP3   OH225635   5.258   2.104   3.062 -0.1298 -0.2797  0.0627
 1407TIP3    H125636   5.197   2.177   3.051 -1.1792 -1.4190 -2.5727
 1407TIP3    H225637   5.343   2.139   3.035 -0.5576  0.1045 -0.8457
 1408TIP3   OH225638   6.475   6.033  14.042  0.1870  0.3081 -0.1952
 1408TIP3    H125639   6.550   6.053  13.986 -0.6673 -0.7549 -1.8062
 1408TIP3    H225640   6.513   6.016  14.128  2.3661 -3.6839 -1.6551
 1409TIP3   OH225641   4.762   4.877  15.270  0.4629 -0.4009  0.0172
 1409TIP3    H125642   4.742   4.962  15.308 -0.2226 -0.4587 -0.2037
 1409TIP3    H225643   4.857   4.868  15.279  0.2864 -0.5785  2.0346
 1410TIP3   OH225644   1.343   2.153  14.646  0.6375 -0.0375  0.4623
 1410TIP3    H125645   1.321   2.061  14.663  0.6645  0.0685  1.0894
 1410TIP3    H225646   1.415   2.149  14.583  0.5890 -0.4454  0.4292
 1411TIP3   OH225647   0.529   2.922   3.592 -0.4763  0.4563 -0.0459
 1411TIP3    H125648   0.533   3.004   3.542 -1.0011 -0.2535 -1.2932
 1411TIP3    H225649   0.486   2.947   3.674  1.4266  1.8814  0.6143
 1412TIP3   OH225650   4.497   3.370   5.075 -0.1842  0.5943  0.1021
 1412TIP3    H125651   4.579   3.349   5.119 -0.2602 -0.9028 -0.3985
 1412TIP3    H225652   4.434   3.307   5.111 -0.5453  0.1823 -1.1950
 1413TIP3   OH225653   5.927   5.039   3.495 -0.8781 -0.0414  0.4019
 1413TIP3    H125654   5.898   4.948   3.498  0.8705 -0.7371 -1.4711
 1413TIP3    H225655   5.987   5.049   3.569 -0.7770 -0.5406  0.3859
 1414TIP3   OH225656   5.637   6.386   2.572 -0.5948  0.1251  0.6768
 1414TIP3    H125657   5.623   6.352   2.661 -0.2491  2.1985  1.5670
 1414TIP3    H225658   5.552   6.421   2.547 -0.4334  0.4992  0.6399
 1415TIP3   OH225659   1.313   4.170   1.933 -0.1720  0.2970 -0.8610
 1415TIP3    H125660   1.263   4.103   1.981  0.1036 -0.3782 -1.4946
 1415TIP3    H225661   1.284   4.253   1.971 -0.9605 -0.1471 -0.4565
 1416TIP3   OH225662   0.884   1.549   5.568 -0.0146  0.2752 -0.0140
 1416TIP3    H125663   0.932   1.627   5.540  2.2274 -1.0241  0.0247
 1416TIP3    H225664   0.856   1.508   5.486  0.9743 -0.1530 -0.1546
 1417TIP3   OH225665   2.315   5.302   5.946 -0.0267  0.1703 -0.1377
 1417TIP3    H125666   2.295   5.217   5.986  1.5289  1.1573  3.1030
 1417TIP3    H225667   2.307   5.287   5.852 -0.1979 -3.4529  0.3202
 1418TIP3   OH225668   0.564   2.153   5.505  0.1907  0.6598  0.8324
 1418TIP3    H125669   0.630   2.151   5.574  0.4670 -0.4249  0.5496
 1418TIP3    H225670   0.614   2.164   5.424  0.1030 -0.8819  0.5471
 1419TIP3   OH225671   3.461   0.138  17.268  0.5364  0.5976  0.2198
 1419TIP3    H125672   3.396   0.073  17.242  2.1453 -1.2064  0.4698
 1419TIP3    H225673   3.484   0.184  17.187  0.2989 -0.0240 -0.2003
 1420TIP3   OH225674   2.313   2.315  12.914 -0.1306  0.1965 -0.5072
 1420TIP3    H125675   2.281   2.292  12.826  0.7937 -0.9859 -0.5665
 1420TIP3    H225676   2.366   2.239  12.940  1.5180  1.5011  0.1170
 1421TIP3   OH225677   3.303   4.448   5.134 -0.3806  0.3564 -0.3304
 1421TIP3    H125678   3.349   4.456   5.217  0.8286  1.7585 -1.0816
 1421TIP3    H225679   3.211   4.436   5.158  0.0642 -0.2343  1.1918
 1422TIP3   OH225680   6.595   0.333   5.329  0.1763 -0.0564  0.5080
 1422TIP3    H125681   6.536   0.406   5.349  1.2665  1.5131 -1.4924
 1422TIP3    H225682   6.547   0.279   5.266  0.2185  0.2810  0.1796
 1423TIP3   OH225683   5.601   3.449   0.739  0.2817 -0.2266 -0.4347
 1423TIP3    H125684   5.653   3.400   0.803  0.2711  1.5660  1.0176
 1423TIP3    H225685   5.666   3.495   0.686  0.2379 -0.3926 -0.6352
 1424TIP3   OH225686   5.273   0.236  14.960 -0.3925 -0.1989 -0.5961
 1424TIP3    H125687   5.313   0.287  14.890 -2.4898 -0.1901 -1.8918
 1424TIP3    H225688   5.215   0.298  15.005 -0.8362 -0.7516 -0.3849
 1425TIP3   OH225689   3.423   0.004  12.910 -0.0233 -0.3691  0.1323
 1425TIP3    H125690   3.402  -0.072  12.855 -2.6151 -0.1355  0.6479
 1425TIP3    H225691   3.505   0.038  12.875  0.3012 -2.3683 -1.2188
 1426TIP3   OH225692   0.451   5.939  11.527  0.1844 -0.1054 -0.2654
 1426TIP3    H125693   0.525   5.884  11.501  1.7671  1.7424  0.0406
 1426TIP3    H225694   0.432   5.912  11.617 -1.3369 -2.3975 -1.1900
 1427TIP3   OH225695   0.635   0.625  12.421 -0.1633 -0.3063 -0.0115
 1427TIP3    H125696   0.560   0.617  12.362  0.9496 -0.8323 -1.4088
 1427TIP3    H225697   0.672   0.537  12.426  0.4637 -0.0256  0.5232
 1428TIP3   OH225698   4.072   5.265  13.106  0.0033  0.2808 -0.5352
 1428TIP3    H125699   4.103   5.266  13.015  0.4896  0.4740 -0.3727
 1428TIP3    H225700   4.110   5.344  13.145 -0.1707  0.1787 -0.1553
 1429TIP3   OH225701   0.354   5.256   1.068 -0.3763 -0.1140  0.1604
 1429TIP3    H125702   0.366   5.219   0.980 -0.6337  1.2518 -0.4661
 1429TIP3    H225703   0.387   5.345   1.061  0.5503 -0.2996  1.7454
 1430TIP3   OH225704   6.694   2.225   2.048 -0.2087 -0.2875  0.5691
 1430TIP3    H125705   6.666   2.314   2.027  1.7714  0.9008  2.4596
 1430TIP3    H225706   6.631   2.194   2.114 -0.3882  0.0574  0.5595
 1431TIP3   OH225707   4.948   6.192   2.577  0.0381 -0.2548  0.5521
 1431TIP3    H125708   4.884   6.165   2.511  1.4539  0.0756 -1.0244
 1431TIP3    H225709   4.994   6.266   2.537  0.1870  0.7013  2.4002
 1432TIP3   OH225710   2.609   0.698  16.689  0.0461 -0.3372  0.5279
 1432TIP3    H125711   2.579   0.610  16.710  2.5744 -1.3405  0.1462
 1432TIP3    H225712   2.618   0.741  16.774  1.8737 -1.5367  0.9912
 1433TIP3   OH225713   5.129   4.339   5.044  0.1085 -0.3816  0.4040
 1433TIP3    H125714   5.088   4.329   5.130  1.1768 -0.6346  0.8935
 1433TIP3    H225715   5.139   4.433   5.033  0.8303 -0.3902  0.9713
 1434TIP3   OH225716   6.173   4.701   2.963  0.1378 -0.3945 -0.4382
 1434TIP3    H125717   6.188   4.656   3.047  1.1325  2.4996  1.0962
 1434TIP3    H225718   6.078   4.714   2.959  0.0669 -0.6747  0.1964
 1435TIP3   OH225719   5.880   3.036   0.563  0.3072 -0.5418  0.2815
 1435TIP3    H125720   5.904   3.125   0.539  0.7966 -0.6176  0.4743
 1435TIP3    H225721   5.963   2.993   0.584  0.1207 -1.1583 -0.1991
 1436TIP3   OH225722   1.104   1.173  15.543  0.1628  0.3373  0.9184
 1436TIP3    H125723   1.051   1.249  15.520  1.1512  0.9166  0.4894
 1436TIP3    H225724   1.123   1.130  15.460  0.8639  0.4846  0.9937
 1437TIP3   OH225725   5.695   4.971   0.651 -0.2662  0.0810 -0.0924
 1437TIP3    H125726   5.611   5.002   0.617 -0.4541  0.4670  0.6905
 1437TIP3    H225727   5.742   5.051   0.674  0.0666 -0.1506  0.0449
 1438TIP3   OH225728   4.529   5.402  15.353  0.4651 -0.1030 -0.2475
 1438TIP3    H125729   4.438   5.386  15.378 -0.0552  1.2770 -1.1463
 1438TIP3    H225730   4.532   5.495  15.333  1.4279 -0.6057 -2.8083
 1439TIP3   OH225731   4.528   3.876  14.038 -0.0421  0.2863 -0.0729
 1439TIP3    H125732   4.558   3.878  14.129  1.1853 -0.7965 -0.4197
 1439TIP3    H225733   4.434   3.890  14.044  0.1486  1.1786  1.2843
 1440TIP3   OH225734   2.890   3.907  12.553 -0.1089 -0.3484  0.0635
 1440TIP3    H125735   2.892   3.821  12.594  0.6481 -0.4228 -0.1055
 1440TIP3    H225736   2.952   3.900  12.480  1.4538  0.9113  1.2127
 1441TIP3   OH225737   0.629   3.581   4.844 -0.1169  0.7165  0.0106
 1441TIP3    H125738   0.613   3.659   4.898 -1.4856  0.1382  0.5054
 1441TIP3    H225739   0.542   3.544   4.829  0.4107 -0.1555 -1.0864
 1442TIP3   OH225740   4.362   6.101  17.047 -0.3317  0.0785  0.2608
 1442TIP3    H125741   4.351   6.007  17.032  0.0132  0.0899 -0.0867
 1442TIP3    H225742   4.455   6.111  17.066 -0.8049 -0.0088  3.0492
 1443TIP3   OH225743   0.760   1.887  11.107  0.0665  0.2311  0.0898
 1443TIP3    H125744   0.668   1.899  11.129  0.0084 -1.3221  0.8554
 1443TIP3    H225745   0.777   1.795  11.127  1.8212  0.5286  0.0880
 1444TIP3   OH225746   1.596   6.411   4.203  0.0395 -0.0626 -0.2352
 1444TIP3    H125747   1.522   6.393   4.146  1.2660  2.7939 -3.0017
 1444TIP3    H225748   1.568   6.486   4.255  0.0240 -0.7917  0.8524
 1445TIP3   OH225749   1.670   2.406   2.247  0.4470  0.2778 -0.4300
 1445TIP3    H125750   1.639   2.496   2.256 -0.5447 -0.0139 -0.7592
 1445TIP3    H225751   1.685   2.394   2.153  0.8277  0.1734 -0.3591
 1446TIP3   OH225752   0.464   5.389  14.774  0.2439 -0.2388  0.2476
 1446TIP3    H125753   0.442   5.382  14.681 -5.2320  0.9478  1.1087
 1446TIP3    H225754   0.485   5.481  14.786  0.9074 -0.3835  0.2143
 1447TIP3   OH225755   6.201   2.242  12.083  0.0508 -0.0093  0.0883
 1447TIP3    H125756   6.166   2.213  12.167 -1.5734  1.5642  0.0128
 1447TIP3    H225757   6.223   2.334  12.096  1.1775 -0.1212 -0.8151
 1448TIP3   OH225758   2.831   2.661  16.313 -0.1364  0.3575  0.2192
 1448TIP3    H125759   2.759   2.646  16.251  1.7605 -2.0982 -1.6034
 1448TIP3    H225760   2.805   2.613  16.391 -1.2229  0.9457  0.2407
 1449TIP3   OH225761   4.986   2.827  12.893 -0.7447 -0.4034  0.0100
 1449TIP3    H125762   4.916   2.858  12.835 -1.1539 -1.0438  0.1550
 1449TIP3    H225763   4.993   2.734  12.875  0.7174 -0.1873 -0.6638
 1450TIP3   OH225764   5.308   3.432   5.791  0.6408 -0.1644 -0.1232
 1450TIP3    H125765   5.370   3.360   5.806  0.3396 -0.3296  0.3397
 1450TIP3    H225766   5.315   3.487   5.868  0.6634  0.1531 -0.3509
 1451TIP3   OH225767   1.312   0.086  11.545 -0.3909  0.0203  0.8012
 1451TIP3    H125768   1.336   0.034  11.622 -2.0303 -0.6664  0.8775
 1451TIP3    H225769   1.370   0.163  11.550  0.4176 -0.6231  2.0047
 1452TIP3   OH225770   4.067   4.102  12.471 -0.1114 -0.1161 -0.5182
 1452TIP3    H125771   4.067   4.084  12.565 -2.0460 -1.0510 -0.6540
 1452TIP3    H225772   4.067   4.198  12.465 -4.0115  0.1344  0.6212
 1453TIP3   OH225773   2.333   6.140  15.259  0.0797  0.1854 -0.7200
 1453TIP3    H125774   2.289   6.121  15.176  0.0026  0.1081 -0.6604
 1453TIP3    H225775   2.285   6.214  15.295  0.2472  0.3592 -0.8488
 1454TIP3   OH225776   4.616   1.731   0.638 -0.1275  0.0554  0.0754
 1454TIP3    H125777   4.583   1.790   0.571 -0.3716  0.0424  0.1803
 1454TIP3    H225778   4.553   1.659   0.639  0.3598 -0.3830 -0.2961
 1455TIP3   OH225779   3.525   4.547   2.672  0.9028  0.2981  0.5328
 1455TIP3    H125780   3.604   4.538   2.727 -0.1210 -2.9740  1.7146
 1455TIP3    H225781   3.460   4.584   2.731  0.4285 -1.0726  0.9043
 1456TIP3   OH225782   4.076   3.332   0.805 -0.1239 -0.2873 -0.7846
 1456TIP3    H125783   3.999   3.284   0.774 -2.3827  1.2805  1.8817
 1456TIP3    H225784   4.086   3.404   0.742 -1.4933  0.0367 -0.6609
 1457TIP3   OH225785   6.100   0.061   4.955 -0.2130  0.6708  0.3911
 1457TIP3    H125786   6.088   0.151   4.926  0.6721  0.9463  0.8470
 1457TIP3    H225787   6.194   0.046   4.950 -0.5124 -1.0629 -2.0577
 1458TIP3   OH225788   1.777   5.254  13.957 -0.1164 -0.0130 -0.7204
 1458TIP3    H125789   1.693   5.244  14.003  0.3507 -2.2448 -0.2325
 1458TIP3    H225790   1.775   5.187  13.889  1.9458 -1.3652  0.4384
 1459TIP3   OH225791   5.638   5.039  16.593  0.4260  0.2136  0.3394
 1459TIP3    H125792   5.724   5.075  16.611  1.3084 -1.0005 -1.2189
 1459TIP3    H225793   5.632   5.036  16.498 -1.0806 -0.3048  0.4174
 1460TIP3   OH225794   4.250   5.037  12.496 -0.3380  0.4676 -0.3187
 1460TIP3    H125795   4.345   5.045  12.485 -0.0816  0.0817  1.3065
 1460TIP3    H225796   4.238   5.019  12.590 -2.0391  0.7802 -0.4407
 1461TIP3   OH225797   4.221   0.945  14.459 -0.3792  0.0811 -0.9444
 1461TIP3    H125798   4.166   0.868  14.473  1.8168 -1.2334  1.4358
 1461TIP3    H225799   4.201   1.003  14.532  0.9861 -0.2176 -0.2973
 1462TIP3   OH225800   6.077   4.626  16.466  0.2835 -0.0850 -0.1883
 1462TIP3    H125801   6.009   4.669  16.415  0.9359  1.9608  0.5652
 1462TIP3    H225802   6.153   4.624  16.407 -0.4165 -2.5729 -1.1129
 1463TIP3   OH225803   1.099   5.149  15.064 -0.2927  0.4702  0.4690
 1463TIP3    H125804   1.052   5.073  15.100  2.1780 -1.6010 -0.3069
 1463TIP3    H225805   1.150   5.182  15.137 -0.9956  1.0931  0.6850
 1464TIP3   OH225806   2.402   2.505  12.642 -0.3003  0.1644 -0.1346
 1464TIP3    H125807   2.451   2.506  12.724 -1.6710 -1.7254  0.7689
 1464TIP3    H225808   2.354   2.422  12.643 -1.5701  0.8012 -2.1175
 1465TIP3   OH225809   2.082   2.521   0.998 -0.2466  0.5687 -0.0744
 1465TIP3    H125810   2.166   2.497   0.958 -0.5263  2.1200 -1.7030
 1465TIP3    H225811   2.074   2.462   1.073  0.5969 -2.0991 -1.9323
 1466TIP3   OH225812   3.837   4.100  11.672  0.0436  0.1914  0.0425
 1466TIP3    H125813   3.921   4.139  11.699  0.3851  1.3148 -2.4036
 1466TIP3    H225814   3.860   4.041  11.600 -0.9529 -1.9043  1.3275
 1467TIP3   OH225815   4.750   4.169   1.466 -0.3364 -0.0706  0.3051
 1467TIP3    H125816   4.725   4.217   1.387  1.1151 -1.9198 -1.3974
 1467TIP3    H225817   4.717   4.222   1.538 -0.3523  2.5354 -1.4814
 1468TIP3   OH225818   4.560   4.883  12.884  0.1321 -0.6270  0.0469
 1468TIP3    H125819   4.595   4.956  12.935  1.5963 -0.7701 -0.6983
 1468TIP3    H225820   4.618   4.877  12.808 -1.3599 -1.1076 -1.0833
 1469TIP3   OH225821   3.448   0.926   5.247  0.0783  0.2616  0.3292
 1469TIP3    H125822   3.497   1.008   5.256  2.2039 -1.0046  0.9121
 1469TIP3    H225823   3.448   0.889   5.335 -0.9121 -0.3553  0.0814
 1470TIP3   OH225824   3.297   2.086  15.926  0.5422  0.2324 -0.0159
 1470TIP3    H125825   3.308   2.000  15.885  0.2371  1.0676 -1.9240
 1470TIP3    H225826   3.384   2.109  15.958  0.3458 -1.4113  1.9027
 1471TIP3   OH225827   3.988   2.187   4.676 -0.2013  0.4891 -0.5026
 1471TIP3    H125828   4.013   2.197   4.584 -3.4638  3.5536 -1.2884
 1471TIP3    H225829   3.978   2.093   4.688  2.0882 -0.1425 -2.7064
 1472TIP3   OH225830   5.011   0.905   3.922 -0.2822  0.5525 -0.4142
 1472TIP3    H125831   4.917   0.920   3.932 -0.1224  0.6354  1.2286
 1472TIP3    H225832   5.018   0.821   3.877 -1.1354  1.0811 -1.5704
 1473TIP3   OH225833   2.729   0.730  11.912 -0.3072  0.1136  0.2344
 1473TIP3    H125834   2.732   0.825  11.905  0.3336  0.0244 -0.9808
 1473TIP3    H225835   2.787   0.699  11.842 -0.0675 -1.1601  0.9687
 1474TIP3   OH225836   1.147   3.912  14.660  1.2617  0.7509  0.7110
 1474TIP3    H125837   1.146   3.827  14.702  0.2263  0.2465 -0.2841
 1474TIP3    H225838   1.237   3.944  14.673  2.0273 -1.0087  0.0836
 1475TIP3   OH225839   0.255   6.635  15.633 -0.0833 -0.3690  0.2464
 1475TIP3    H125840   0.204   6.656  15.555  0.3499  0.3266  0.1430
 1475TIP3    H225841   0.218   6.553  15.665 -1.4721  0.2618  0.3304
 1476TIP3   OH225842   3.417   3.427  11.241  0.0288  0.4028  0.5895
 1476TIP3    H125843   3.470   3.348  11.232 -2.7452 -1.6549  0.8310
 1476TIP3    H225844   3.395   3.431  11.334 -0.2952  1.1542  0.4866
 1477TIP3   OH225845   4.924   0.844  12.992 -0.0715 -0.0559 -0.4137
 1477TIP3    H125846   5.019   0.858  12.998  0.0952 -0.0061 -2.3952
 1477TIP3    H225847   4.889   0.931  12.972 -0.3711 -0.3184 -1.0556
 1478TIP3   OH225848   4.207   5.044  10.607 -0.0104  0.1921 -0.2483
 1478TIP3    H125849   4.269   5.106  10.647 -0.5751 -0.8515  2.4437
 1478TIP3    H225850   4.263   4.983  10.559  0.8177  0.8520 -0.1493
 1479TIP3   OH225851   2.906   5.189  17.127 -0.4155 -0.3712 -0.4021
 1479TIP3    H125852   2.822   5.141  17.128 -0.9931  0.6251 -0.1058
 1479TIP3    H225853   2.972   5.121  17.114 -1.2276 -1.2478 -0.0713
 1480TIP3   OH225854   3.042   2.860  15.683 -0.5561  0.5783 -0.3194
 1480TIP3    H125855   3.108   2.835  15.748 -1.3225 -0.5156  0.0763
 1480TIP3    H225856   3.069   2.815  15.603 -0.8415  0.0693 -0.1380
 1481TIP3   OH225857   3.985   2.215   0.268 -0.1407  0.1442  0.5284
 1481TIP3    H125858   3.922   2.206   0.196  0.0871 -0.5877  0.4178
 1481TIP3    H225859   3.984   2.309   0.288 -1.6056  0.0977  0.8402
 1482TIP3   OH225860   2.081   4.388  11.291 -0.6553 -0.0093 -0.3165
 1482TIP3    H125861   2.049   4.464  11.242 -0.1170 -0.4732 -1.4124
 1482TIP3    H225862   2.089   4.319  11.226 -2.3498 -1.4179  0.8692
 1483TIP3   OH225863   5.843   3.173   2.035  0.5076 -0.5093 -0.0549
 1483TIP3    H125864   5.828   3.263   2.064  1.1096 -0.2058 -0.6505
 1483TIP3    H225865   5.755   3.138   2.019  0.3179  0.7929 -2.2366
 1484TIP3   OH225866   1.150   1.239  16.826  0.1338 -0.0497 -0.0753
 1484TIP3    H125867   1.166   1.258  16.919  0.4324  0.1689 -0.1717
 1484TIP3    H225868   1.161   1.323  16.783 -0.6055 -0.0315 -0.2336
 1485TIP3   OH225869   1.062   3.168  11.874  0.1266 -1.0294 -0.7833
 1485TIP3    H125870   1.140   3.180  11.819  0.6639 -2.4652 -0.3873
 1485TIP3    H225871   1.096   3.129  11.955 -0.9317 -1.0674 -0.3431
 1486TIP3   OH225872   3.822   0.967   3.330  0.6232  0.5022  0.6311
 1486TIP3    H125873   3.776   0.965   3.246  1.6824 -2.3218  0.0052
 1486TIP3    H225874   3.902   1.016   3.312  1.4819 -1.2030 -0.4478
 1487TIP3   OH225875   0.456   4.091   4.420 -0.6621  0.0456 -0.7013
 1487TIP3    H125876   0.396   4.163   4.439  0.9029  0.9867  0.9377
 1487TIP3    H225877   0.508   4.121   4.345  0.1689  0.7556  0.1492
 1488TIP3   OH225878   3.634   0.451   0.006 -0.1453  0.3962 -0.1259
 1488TIP3    H125879   3.632   0.412   0.093  2.3414 -1.1149 -0.6631
 1488TIP3    H225880   3.665   0.541   0.020 -3.2928  1.4568  0.8279
 1489TIP3   OH225881   1.573   6.490  11.802 -0.1920  0.3685 -0.3706
 1489TIP3    H125882   1.496   6.502  11.747 -0.6002 -0.1746  0.0704
 1489TIP3    H225883   1.622   6.419  11.761  0.4007  1.1175 -0.9932
 1490TIP3   OH225884   0.844   5.029  13.174 -0.5910 -0.1436 -0.0144
 1490TIP3    H125885   0.788   5.007  13.248  0.4820 -2.9257  0.1012
 1490TIP3    H225886   0.853   5.124  13.177 -2.6208  0.0502  1.8790
 1491TIP3   OH225887   2.601   6.384  16.445  0.4440  0.9950  0.2666
 1491TIP3    H125888   2.591   6.297  16.482  2.5614 -0.0425 -1.3838
 1491TIP3    H225889   2.693   6.406  16.460  0.6469  1.7419 -1.7437
 1492TIP3   OH225890   1.134   1.761   2.683 -0.2238  0.3223 -0.3008
 1492TIP3    H125891   1.100   1.817   2.613  1.7164 -0.1466 -1.7029
 1492TIP3    H225892   1.060   1.705   2.707 -0.8677  0.2795 -2.2194
 1493TIP3   OH225893   4.411   1.173  12.457  0.0286  0.3603  0.1099
 1493TIP3    H125894   4.483   1.136  12.508  0.6550 -0.3889 -1.2423
 1493TIP3    H225895   4.441   1.261  12.435 -0.0261  0.5059  0.6267
 1494TIP3   OH225896   4.842   1.287   3.935  0.0900 -0.0934 -0.0890
 1494TIP3    H125897   4.846   1.382   3.924 -2.3537 -0.0079 -0.6722
 1494TIP3    H225898   4.849   1.253   3.846 -0.3382 -0.3975 -0.0045
 1495TIP3   OH225899   4.233   0.592   6.064  0.0396 -0.0142 -0.0169
 1495TIP3    H125900   4.203   0.667   6.014  0.6059 -1.7774 -3.2899
 1495TIP3    H225901   4.162   0.574   6.126 -1.3477  1.5323 -1.0925
 1496TIP3   OH225902   0.014   3.547   5.309 -0.4466 -0.2853  0.4115
 1496TIP3    H125903   0.071   3.565   5.384  1.0359  0.9679 -0.9260
 1496TIP3    H225904  -0.062   3.604   5.322 -0.4842 -0.5161  1.2497
 1497TIP3   OH225905   6.608   4.887   2.267  0.2514 -0.0079 -0.3444
 1497TIP3    H125906   6.593   4.943   2.191  1.2855 -0.8344 -1.1737
 1497TIP3    H225907   6.563   4.805   2.247  0.0866 -0.0525  0.1732
 1498TIP3   OH225908   2.757   5.664  13.522 -0.2382 -0.3238  0.0482
 1498TIP3    H125909   2.709   5.739  13.557 -0.2380 -1.1252  1.9013
 1498TIP3    H225910   2.849   5.684  13.540 -0.0985 -0.0967 -0.8637
 1499TIP3   OH225911   3.404   5.594  16.668  0.5266 -0.3460 -0.3000
 1499TIP3    H125912   3.311   5.580  16.684 -0.1243 -0.1395 -3.3197
 1499TIP3    H225913   3.434   5.513  16.626  1.7431 -0.4258  0.6716
 1500TIP3   OH225914   0.045   3.558  14.849  0.1071 -0.3575  0.3390
 1500TIP3    H125915   0.079   3.468  14.842 -0.9376 -0.6812 -1.1340
 1500TIP3    H225916   0.034   3.573  14.943  3.1137 -0.6500  0.8361
 1501TIP3   OH225917   6.504   6.277  11.073 -0.4034 -0.5946  0.2589
 1501TIP3    H125918   6.530   6.292  10.982 -0.1210 -0.3964  0.3711
 1501TIP3    H225919   6.482   6.363  11.107  0.3394 -0.5434  0.6351
 1502TIP3   OH225920   0.456   4.619  11.960  0.4261  0.3130  0.3081
 1502TIP3    H125921   0.394   4.626  11.887  0.1948  2.4642  0.6302
 1502TIP3    H225922   0.541   4.638  11.921  0.6488 -0.9213  0.1789
 1503TIP3   OH225923   0.984   2.786  12.166 -0.1864 -0.1554  0.3009
 1503TIP3    H125924   0.894   2.775  12.195 -0.1192 -1.4733  0.0667
 1503TIP3    H225925   1.001   2.710  12.111  0.7927  0.5250 -0.3724
 1504TIP3   OH225926   3.398   4.965  16.896  0.1214 -0.2932 -0.2928
 1504TIP3    H125927   3.377   5.056  16.875  1.6254  0.9307  2.7794
 1504TIP3    H225928   3.328   4.914  16.857 -1.0162  2.2072 -1.7718
 1505TIP3   OH225929   0.063   0.997   1.323 -0.0688  0.5446 -0.3099
 1505TIP3    H125930   0.136   1.028   1.376  1.5620 -0.3547 -1.9099
 1505TIP3    H225931   0.052   0.905   1.349  0.9533  0.0013 -1.6646
 1506TIP3   OH225932   0.868   6.456  11.793  0.6791 -0.2621 -0.3328
 1506TIP3    H125933   0.805   6.443  11.864 -1.1022  0.8460 -1.6304
 1506TIP3    H225934   0.952   6.468  11.837 -0.0573 -1.3510  1.4888
 1507TIP3   OH225935   1.536   0.016  13.105  0.0022 -0.1605 -0.7580
 1507TIP3    H125936   1.622   0.058  13.098 -0.0637  0.2542  0.7044
 1507TIP3    H225937   1.554  -0.072  13.138 -0.2559  0.7212  1.9393
 1508TIP3   OH225938   1.615   3.412  12.044 -0.4172  0.3485 -0.1570
 1508TIP3    H125939   1.663   3.388  11.965  1.8591  0.8981  0.9668
 1508TIP3    H225940   1.589   3.503  12.030 -2.9230 -0.4772 -1.5348
 1509TIP3   OH225941   2.775   2.431   6.370 -0.0700 -0.3110 -0.7556
 1509TIP3    H125942   2.765   2.338   6.390  1.9697 -0.5642 -0.7660
 1509TIP3    H225943   2.868   2.449   6.383 -0.4025  1.7062 -0.8891
 1510TIP3   OH225944   3.284   2.482  13.608 -0.0179  0.2161  0.2909
 1510TIP3    H125945   3.293   2.390  13.635  0.4281  0.0777 -0.3112
 1510TIP3    H225946   3.313   2.532  13.684  0.7796 -0.1630  0.2486
 1511TIP3   OH225947   1.976   0.178  15.269 -0.0986 -0.0081 -0.2852
 1511TIP3    H125948   2.029   0.183  15.189  0.8874 -1.6659  0.2311
 1511TIP3    H225949   2.034   0.208  15.338 -0.4993  0.0928  0.0099
 1512TIP3   OH225950   1.222   3.300  13.707  0.1917 -0.3186  0.3366
 1512TIP3    H125951   1.185   3.251  13.781 -1.7684 -1.3349 -1.2178
 1512TIP3    H225952   1.315   3.280  13.709 -0.2105 -2.3822  1.0580
 1513TIP3   OH225953   1.273   5.452  13.196 -0.3879  0.3517  0.3832
 1513TIP3    H125954   1.268   5.539  13.156 -0.5330  0.6035  0.9403
 1513TIP3    H225955   1.208   5.400  13.148 -1.6964  1.0739  1.3075
 1514TIP3   OH225956   6.653   3.898   0.618  0.1154  0.0504  0.2228
 1514TIP3    H125957   6.743   3.913   0.646  0.1417  1.0807 -0.3501
 1514TIP3    H225958   6.660   3.861   0.531 -0.0175 -0.0173  0.2409
 1515TIP3   OH225959   3.403   0.529  13.306 -0.6891  0.2290  0.2709
 1515TIP3    H125960   3.426   0.495  13.219  0.9872 -1.4329  1.2749
 1515TIP3    H225961   3.384   0.622  13.292 -0.9765 -0.1066 -1.9240
 1516TIP3   OH225962   3.516   1.221  12.940  0.3409 -0.3538  0.1528
 1516TIP3    H125963   3.463   1.298  12.919 -0.9953 -1.5909 -1.2386
 1516TIP3    H225964   3.483   1.193  13.025 -0.2395 -0.2467 -0.0263
 1517TIP3   OH225965   4.125   4.863   6.084  0.3512  0.1402  0.4764
 1517TIP3    H125966   4.216   4.880   6.060  0.7040 -1.1619  0.8288
 1517TIP3    H225967   4.100   4.788   6.030 -0.3105  0.0972  0.8386
 1518TIP3   OH225968   2.196   0.334   6.029 -0.0177  0.2027  0.5415
 1518TIP3    H125969   2.122   0.379   5.988  1.2623  1.3259 -0.6178
 1518TIP3    H225970   2.155   0.273   6.091 -1.9402 -0.0584 -0.8930
 1519TIP3   OH225971   0.559   5.294  13.346 -0.2477 -0.0900 -0.1413
 1519TIP3    H125972   0.608   5.372  13.322 -1.2733  0.3171 -1.0217
 1519TIP3    H225973   0.586   5.228  13.283 -0.3063 -0.0706 -0.1873
 1520TIP3   OH225974   3.703   5.757   6.184 -0.1002  0.1348 -0.0902
 1520TIP3    H125975   3.650   5.686   6.148  0.2035 -0.2925  0.2860
 1520TIP3    H225976   3.781   5.713   6.217 -1.0238  0.2621  2.5072
 1521TIP3   OH225977   1.370   2.023  12.457 -0.0331  0.5876  0.2832
 1521TIP3    H125978   1.459   2.056  12.459  0.2504 -0.1411  0.2009
 1521TIP3    H225979   1.377   1.938  12.412 -0.6947  0.3256  0.6517
 1522TIP3   OH225980   3.808   5.244  13.210  0.3460 -0.2128  0.1271
 1522TIP3    H125981   3.887   5.252  13.157  2.0649  0.0185  2.5546
 1522TIP3    H225982   3.757   5.323  13.191  0.7124 -0.3254 -1.3981
 1523TIP3   OH225983   6.404   2.811  14.446 -0.0871 -0.2684  0.2758
 1523TIP3    H125984   6.436   2.724  14.470  1.6827  0.2601 -0.0314
 1523TIP3    H225985   6.418   2.817  14.351 -1.8012 -0.2584 -0.0096
 1524TIP3   OH225986   4.363   4.520   5.551 -0.2745  0.4890  0.1407
 1524TIP3    H125987   4.426   4.593   5.554 -0.1224  0.3889 -0.5655
 1524TIP3    H225988   4.286   4.556   5.509  0.3037 -0.1179 -1.5105
 1525TIP3   OH225989   5.498   5.936  12.355  0.1346  0.2491 -0.0527
 1525TIP3    H125990   5.410   5.943  12.317 -0.7685  0.2959  1.8975
 1525TIP3    H225991   5.491   5.862  12.416  1.8366 -0.5502 -0.7598
 1526TIP3   OH225992   2.840   5.806  11.600 -0.3718 -0.5833  0.6039
 1526TIP3    H125993   2.746   5.799  11.581  0.1826  0.2062 -3.3375
 1526TIP3    H225994   2.877   5.725  11.566  0.4932 -0.5846  1.5065
 1527TIP3   OH225995   4.239   6.650   3.625 -0.0989 -0.0311  0.4690
 1527TIP3    H125996   4.226   6.556   3.639  0.9060 -0.2484  0.0240
 1527TIP3    H225997   4.245   6.659   3.530  1.3274  0.2560  0.5676
 1528TIP3   OH225998   2.635   1.347  15.647  0.3014 -0.2597 -0.1883
 1528TIP3    H125999   2.668   1.419  15.701  1.4081  0.3409 -1.6129
 1528TIP3    H226000   2.570   1.387  15.589 -0.4283 -0.7839  0.2407
 1529TIP3   OH226001   0.977   4.661  14.077 -0.4626 -0.4171  0.3658
 1529TIP3    H126002   0.966   4.573  14.041 -0.4046 -0.3474  0.1749
 1529TIP3    H226003   1.025   4.648  14.159  0.5910 -0.4597 -0.2487
 1530TIP3   OH226004   2.121   5.613  16.042  0.1043  0.3212  0.1846
 1530TIP3    H126005   2.201   5.560  16.047 -0.6412 -0.7600  0.8903
 1530TIP3    H226006   2.139   5.688  16.099 -0.4411 -1.3999  2.7956
 1531TIP3   OH226007   1.558   0.687   5.853 -0.7698 -0.7041 -0.2683
 1531TIP3    H126008   1.503   0.689   5.931 -0.5090  1.0229 -0.0941
 1531TIP3    H226009   1.548   0.773   5.814 -0.3245 -1.2933 -1.7613
 1532TIP3   OH226010   0.620   1.710  12.385 -0.2546  0.0940  0.6754
 1532TIP3    H126011   0.634   1.686  12.476 -1.7904 -0.3001  0.8389
 1532TIP3    H226012   0.591   1.629  12.343  0.1653  0.3337 -0.0927
 1533TIP3   OH226013   0.383   2.613  11.993 -0.3855  0.1918 -0.2764
 1533TIP3    H126014   0.330   2.535  12.009 -0.6823  0.4233 -0.1177
 1533TIP3    H226015   0.423   2.598  11.907  1.1753 -1.0286  0.6137
 1534TIP3   OH226016   1.008   6.694   0.262 -0.0369  0.2899  0.0688
 1534TIP3    H126017   1.051   6.643   0.330  1.9039  1.0813 -0.4759
 1534TIP3    H226018   1.002   6.635   0.187 -0.5434 -0.0352  0.3630
 1535TIP3   OH226019   6.246   0.917   0.633  1.2892  0.3246 -0.5112
 1535TIP3    H126020   6.282   0.829   0.619 -0.9913 -0.6912 -0.5686
 1535TIP3    H226021   6.191   0.932   0.556 -2.0050 -0.2436  1.5476
 1536TIP3   OH226022   2.263   1.932  11.513  0.0751  0.7872  0.6790
 1536TIP3    H126023   2.202   2.005  11.526 -1.8284 -0.4065 -0.8927
 1536TIP3    H226024   2.206   1.857  11.494  2.0295 -0.4841 -0.5225
 1537TIP3   OH226025   2.657   5.601   2.162 -0.3696  0.1563 -0.2021
 1537TIP3    H126026   2.628   5.682   2.119  0.1051 -0.4241 -1.7073
 1537TIP3    H226027   2.581   5.570   2.211 -1.2299  0.4181 -1.3287
 1538TIP3   OH226028   3.908   2.403  11.076  0.1086  0.3090 -0.1417
 1538TIP3    H126029   3.994   2.444  11.081 -0.0009  0.6171 -0.6714
 1538TIP3    H226030   3.881   2.415  10.985 -0.4823  0.1935  0.0120
 1539TIP3   OH226031   0.123   2.831  12.146  0.7655 -0.8620 -0.2403
 1539TIP3    H126032   0.037   2.791  12.138  1.2850 -2.4852  1.4683
 1539TIP3    H226033   0.183   2.757  12.151  2.1919  0.2248 -0.5876
 1540TIP3   OH226034   0.139   3.271   5.843 -0.3345  0.0359 -0.1422
 1540TIP3    H126035   0.123   3.178   5.855 -2.4582  0.3773  0.0224
 1540TIP3    H226036   0.119   3.288   5.751 -0.2280  0.3840 -0.1047
 1541TIP3   OH226037   4.461   1.734  12.636 -0.0763  0.3274 -0.1189
 1541TIP3    H126038   4.498   1.822  12.648  0.5098  0.1163 -0.3652
 1541TIP3    H226039   4.512   1.696  12.564 -0.7716  0.0294 -0.4612
 1542TIP3   OH226040   5.827   6.003   0.482  0.5505 -0.3530  0.6151
 1542TIP3    H126041   5.850   5.914   0.511  0.3398 -0.1494  1.4439
 1542TIP3    H226042   5.866   6.060   0.549  0.6353  0.1752  0.1179
 1543TIP3   OH226043   6.011   2.740  14.075 -0.9603  0.5158 -0.1096
 1543TIP3    H126044   6.041   2.729  13.985 -1.5648 -1.7224 -0.0836
 1543TIP3    H226045   5.952   2.815  14.072 -0.8046  0.6040 -1.5337
 1544TIP3   OH226046   6.789   1.111  15.805  0.1954 -0.0412  0.0495
 1544TIP3    H126047   6.775   1.167  15.881  0.4277  0.4787 -0.2894
 1544TIP3    H226048   6.742   1.030  15.826 -0.2322  0.3177  0.4965
 1545TIP3   OH226049   2.001   0.143  14.151 -0.0040 -0.8253 -0.0712
 1545TIP3    H126050   2.086   0.128  14.192  0.4702  0.2843 -0.5952
 1545TIP3    H226051   1.977   0.232  14.176 -1.3676 -1.3654  0.6554
 1546TIP3   OH226052   0.206   3.884  13.676  0.2660  0.3460 -0.8036
 1546TIP3    H126053   0.297   3.867  13.652 -0.2895 -1.6089 -1.7378
 1546TIP3    H226054   0.180   3.809  13.729 -0.0090  2.2523  1.9839
 1547TIP3   OH226055   4.361   2.456  13.225  0.3874 -0.2381  0.3814
 1547TIP3    H126056   4.331   2.504  13.147 -0.6885  1.0680  1.5390
 1547TIP3    H226057   4.302   2.380  13.231  0.1933 -0.1071  0.1494
 1548TIP3   OH226058   1.257   2.659   4.647 -0.5326  0.5395  0.0275
 1548TIP3    H126059   1.318   2.585   4.642  0.1873  1.1864 -1.2921
 1548TIP3    H226060   1.196   2.644   4.575 -1.1120  0.6278  0.4900
 1549TIP3   OH226061   3.280   1.976   0.656 -0.2826  0.4417 -0.2690
 1549TIP3    H126062   3.278   1.927   0.573  1.2209  1.4758 -0.9745
 1549TIP3    H226063   3.366   1.955   0.693 -1.2906 -0.7304  1.5316
 1550TIP3   OH226064   5.758   1.282  11.651  0.6822  0.5548  0.5659
 1550TIP3    H126065   5.790   1.354  11.705 -0.6653  1.1246  0.6381
 1550TIP3    H226066   5.782   1.203  11.699  1.3396  0.9734  0.9488
 1551TIP3   OH226067   2.632   6.143   4.153  0.5282  0.0018 -0.1587
 1551TIP3    H126068   2.714   6.144   4.104 -0.3824 -1.1069 -1.8076
 1551TIP3    H226069   2.572   6.094   4.098 -1.9921  2.8018 -0.1351
 1552TIP3   OH226070   1.308   4.085   4.244 -0.2328  0.4366 -0.2496
 1552TIP3    H126071   1.247   4.013   4.255  0.5991 -0.2283  0.0910
 1552TIP3    H226072   1.258   4.151   4.195 -0.9079 -0.4730 -0.8214
 1553TIP3   OH226073   4.756   4.419   3.921  0.0030  0.6425  0.1852
 1553TIP3    H126074   4.838   4.397   3.965 -1.0691 -0.2578  1.8606
 1553TIP3    H226075   4.751   4.514   3.927  1.6621  0.8893 -1.4242
 1554TIP3   OH226076   5.315   2.584   0.833  0.0536 -0.1043 -0.0195
 1554TIP3    H126077   5.330   2.566   0.740  0.1115  0.3417 -0.0966
 1554TIP3    H226078   5.391   2.636   0.860  0.7185 -1.3546  0.6086
 1555TIP3   OH226079   5.302   2.494  16.015 -0.1539 -0.4942  0.3498
 1555TIP3    H126080   5.226   2.541  16.051  0.5828  0.3295  0.8882
 1555TIP3    H226081   5.294   2.406  16.050 -0.9771 -0.4793  0.2235
 1556TIP3   OH226082   4.949   1.544   2.350 -0.0184  0.0810  0.2918
 1556TIP3    H126083   4.871   1.578   2.392 -0.7655 -0.7934 -0.3362
 1556TIP3    H226084   5.010   1.618   2.346 -1.3368  1.1580 -0.4488
 1557TIP3   OH226085   1.411   1.887   2.736  0.0236  0.0062 -0.6055
 1557TIP3    H126086   1.330   1.876   2.787  0.0684 -0.2014 -0.5797
 1557TIP3    H226087   1.382   1.925   2.653 -0.0649  0.2221 -0.4774
 1558TIP3   OH226088   2.708   2.206  16.457  0.3588 -0.1698  0.1214
 1558TIP3    H126089   2.744   2.290  16.486  0.3056 -0.0769 -0.0777
 1558TIP3    H226090   2.747   2.141  16.516 -0.3806  0.1014  0.9298
 1559TIP3   OH226091   4.411   1.280  16.143  0.2881  0.8526  0.0948
 1559TIP3    H126092   4.436   1.190  16.164 -0.8370  0.3416 -0.6896
 1559TIP3    H226093   4.386   1.317  16.228  2.8990  1.1877  0.8160
 1560TIP3   OH226094   1.275   3.649  11.709 -0.0639 -0.2975 -0.2372
 1560TIP3    H126095   1.231   3.632  11.792 -0.6772 -0.2496 -0.5437
 1560TIP3    H226096   1.308   3.739  11.717 -0.3716 -0.1921 -0.1563
 1561TIP3   OH226097   6.365   3.200   2.778  0.6952  0.0277  0.1199
 1561TIP3    H126098   6.371   3.223   2.871 -0.4119 -0.0341  0.2151
 1561TIP3    H226099   6.361   3.285   2.733  0.3458  0.0538  0.1970
 1562TIP3   OH226100   6.294   3.579   1.919  0.0867  0.4155 -0.1230
 1562TIP3    H126101   6.291   3.483   1.920  0.5510  0.3568 -1.6181
 1562TIP3    H226102   6.359   3.600   1.852 -1.5753  1.7691 -1.3998
 1563TIP3   OH226103   2.525   0.036   0.357  0.1874  0.4371  0.0973
 1563TIP3    H126104   2.615   0.069   0.355  0.3859  0.0311  1.2663
 1563TIP3    H226105   2.513   0.005   0.447 -0.9578  0.0239 -0.1784
 1564TIP3   OH226106   1.534   6.365   0.045 -0.4114  0.3109 -0.1556
 1564TIP3    H126107   1.462   6.427   0.061  0.6477  1.0878  2.0073
 1564TIP3    H226108   1.508   6.318  -0.034 -1.8937  2.5917 -1.1247
 1565TIP3   OH226109   0.681   2.454   2.805 -0.0892  0.1258 -0.3852
 1565TIP3    H126110   0.667   2.533   2.857 -2.3538 -0.2472 -0.3432
 1565TIP3    H226111   0.758   2.474   2.752  0.5773  1.5884  1.0388
 1566TIP3   OH226112   0.286   3.068   1.854 -0.1486  0.2561 -0.1870
 1566TIP3    H126113   0.339   3.022   1.920  2.8719 -1.8244 -3.6594
 1566TIP3    H226114   0.202   3.021   1.855 -0.1414  0.1577  1.9120
 1567TIP3   OH226115   1.726   3.883   4.293 -0.4697  0.0039 -0.3709
 1567TIP3    H126116   1.808   3.834   4.298 -0.5853 -0.1698 -0.1839
 1567TIP3    H226117   1.702   3.881   4.200  0.8764  1.9333 -0.8368
 1568TIP3   OH226118   5.845   3.067   1.344 -0.1142 -0.3457 -0.1190
 1568TIP3    H126119   5.854   2.982   1.387 -0.7014  0.7128  2.2779
 1568TIP3    H226120   5.888   3.128   1.404 -0.9685  1.2477 -1.0772
 1569TIP3   OH226121   5.231   0.462  11.186  0.2523  0.1231 -0.0057
 1569TIP3    H126122   5.194   0.550  11.193  1.3200  0.5463  0.3596
 1569TIP3    H226123   5.155   0.406  11.170 -1.0333  0.5229  3.8215
 1570TIP3   OH226124   4.849   2.507   6.522  0.0314 -0.0950  0.2698
 1570TIP3    H126125   4.923   2.486   6.466 -0.2402 -1.7697  0.4887
 1570TIP3    H226126   4.775   2.518   6.461  0.2763  0.8309  0.1155
 1571TIP3   OH226127   3.501   4.817  15.613 -0.2091 -0.3284 -0.6051
 1571TIP3    H126128   3.432   4.877  15.639  0.4388 -0.1351  0.7595
 1571TIP3    H226129   3.500   4.748  15.680  2.6528  1.0953  1.1481
 1572TIP3   OH226130   5.016   0.411  11.457 -0.3471 -0.7595 -0.0130
 1572TIP3    H126131   4.928   0.416  11.421 -1.2016 -0.8296  1.9727
 1572TIP3    H226132   5.031   0.317  11.471 -0.5764 -0.6434  1.0704
 1573TIP3   OH226133   0.722   3.528  14.736 -0.1139 -0.2769  0.3035
 1573TIP3    H126134   0.811   3.546  14.708  0.1105  2.2238  2.2409
 1573TIP3    H226135   0.685   3.475  14.666  2.7720 -1.1888 -0.6760
 1574TIP3   OH226136   5.568   5.479  14.750 -0.0739  0.1022  0.1677
 1574TIP3    H126137   5.533   5.544  14.811  0.4543  1.2079 -0.6643
 1574TIP3    H226138   5.502   5.475  14.680  0.1812  0.1984 -0.0796
 1575TIP3   OH226139   0.628   2.217  16.637  0.5323  0.1194  0.3170
 1575TIP3    H126140   0.610   2.247  16.727 -0.6076  0.4308 -0.0051
 1575TIP3    H226141   0.664   2.294  16.593  0.1661  0.2526  0.2447
 1576TIP3   OH226142   1.960   3.770   4.586  0.5703  0.2192 -0.3447
 1576TIP3    H126143   1.954   3.813   4.671  0.7971 -1.2726  0.4611
 1576TIP3    H226144   1.877   3.723   4.576  1.5384 -1.7888  0.3358
 1577TIP3   OH226145   2.105   1.626   2.005  0.2102 -0.0636 -0.5660
 1577TIP3    H126146   2.184   1.677   2.024 -0.8144  0.6553  2.2868
 1577TIP3    H226147   2.041   1.691   1.976  0.4109 -0.5727 -2.3197
 1578TIP3   OH226148   5.202   3.951   1.212  0.0531  0.1849  0.0416
 1578TIP3    H126149   5.171   3.869   1.175 -0.0894 -0.3938  1.3870
 1578TIP3    H226150   5.123   4.003   1.227 -0.0434 -0.1993  0.9324
 1579TIP3   OH226151   5.349   5.966  14.122 -0.2259 -0.3631  0.1072
 1579TIP3    H126152   5.371   5.895  14.062 -0.4900 -0.9386  0.6760
 1579TIP3    H226153   5.296   5.924  14.190 -0.6575  0.4432  0.2783
 1580TIP3   OH226154   1.059   1.644   1.358  0.0582 -0.5609  0.0718
 1580TIP3    H126155   1.111   1.718   1.390 -0.6560  0.5038 -1.1388
 1580TIP3    H226156   1.119   1.595   1.302  0.0493  0.1352 -0.5659
 1581TIP3   OH226157   4.701   3.349   0.894  0.1459 -0.1028 -0.0093
 1581TIP3    H126158   4.786   3.312   0.871  0.7880  0.4593  1.3765
 1581TIP3    H226159   4.689   3.422   0.834 -0.3491 -1.4401 -1.6160
 1582TIP3   OH226160   3.197   2.137   1.768 -0.1031  0.1068  0.2574
 1582TIP3    H126161   3.171   2.078   1.839  0.9257  1.5635  1.9222
 1582TIP3    H226162   3.273   2.094   1.729  0.4166  0.1147  1.2172
 1583TIP3   OH226163   4.878   5.325  12.520 -0.2905  0.0417  0.2214
 1583TIP3    H126164   4.874   5.411  12.563  2.3428  0.1604  0.3797
 1583TIP3    H226165   4.816   5.331  12.448  0.2488  2.2905 -0.1107
 1584TIP3   OH226166   6.634   3.613  16.069 -0.0819  0.1015  0.3221
 1584TIP3    H126167   6.575   3.549  16.030 -0.3730  0.2309  0.5470
 1584TIP3    H226168   6.632   3.687  16.008  2.4898 -1.1882 -1.4875
 1585TIP3   OH226169   4.408   0.746  13.975 -0.0189 -0.4700  0.1212
 1585TIP3    H126170   4.390   0.837  13.999 -1.0467 -0.9811  1.3997
 1585TIP3    H226171   4.359   0.733  13.893 -1.1836 -0.2995  0.7614
 1586TIP3   OH226172   6.101   3.863   1.593 -0.2685 -0.3539 -0.2397
 1586TIP3    H126173   6.072   3.935   1.537  0.4482 -0.3870 -0.6657
 1586TIP3    H226174   6.031   3.854   1.658 -0.2289  0.9200  0.0052
 1587TIP3   OH226175   6.133   3.605  11.153 -0.2952 -0.2220  0.0906
 1587TIP3    H126176   6.058   3.659  11.129 -0.0197 -0.2326 -0.8190
 1587TIP3    H226177   6.177   3.586  11.070  0.9360  0.1159  0.6306
 1588TIP3   OH226178   4.869   0.592   5.878 -0.1382 -0.1727  0.5598
 1588TIP3    H126179   4.815   0.670   5.869 -0.1031 -0.1432  0.6081
 1588TIP3    H226180   4.874   0.556   5.789  1.4829  0.9615  0.1561
 1589TIP3   OH226181   0.168   4.191   2.440  0.4614 -0.5036  0.1169
 1589TIP3    H126182   0.103   4.229   2.498  1.3868 -2.2374  2.4318
 1589TIP3    H226183   0.123   4.121   2.394  0.1396 -0.2015 -0.0309
 1590TIP3   OH226184   1.363   4.444  12.947  0.2747  0.3915 -0.0687
 1590TIP3    H126185   1.427   4.515  12.940  1.8514 -1.0922 -1.9996
 1590TIP3    H226186   1.284   4.480  12.908  0.6495  1.5127  0.1773
 1591TIP3   OH226187   3.890   4.605  16.895 -0.0501 -0.2785 -0.7742
 1591TIP3    H126188   3.946   4.617  16.972 -1.0609  1.0522 -0.2118
 1591TIP3    H226189   3.950   4.615  16.821  1.4340 -3.8950 -0.2930
 1592TIP3   OH226190   5.648   3.239  11.909  0.0190 -0.4509  0.0321
 1592TIP3    H126191   5.629   3.145  11.906  1.4695 -0.7299 -2.1409
 1592TIP3    H226192   5.726   3.250  11.855 -0.9826  2.2042 -1.0564
 1593TIP3   OH226193   2.936   4.055   4.187  0.2574 -0.2220  0.1434
 1593TIP3    H126194   2.958   4.127   4.245 -1.0762  1.1377 -0.9603
 1593TIP3    H226195   3.017   4.037   4.139  0.5321  0.7381  0.2328
 1594TIP3   OH226196   3.231   1.423   4.457  0.3351 -0.5645 -0.1144
 1594TIP3    H126197   3.210   1.367   4.532  0.9597  0.2405  0.6880
 1594TIP3    H226198   3.177   1.501   4.470 -0.5178 -0.9545 -1.2118
 1595TIP3   OH226199   1.864   1.740  10.654  0.2674  0.0184  0.4013
 1595TIP3    H126200   1.866   1.830  10.687 -0.9021  0.6141 -1.0565
 1595TIP3    H226201   1.883   1.748  10.561 -2.1356 -0.9628 -0.2307
 1596TIP3   OH226202   4.351   0.153  14.182 -0.2312 -0.0069 -0.2783
 1596TIP3    H126203   4.356   0.205  14.102  1.0726 -0.2596 -0.3767
 1596TIP3    H226204   4.310   0.212  14.246  1.0724  1.1183 -0.4258
 1597TIP3   OH226205   1.448   3.645  13.190 -0.2473  0.1465  0.0087
 1597TIP3    H126206   1.409   3.650  13.278 -0.0818  1.1165  0.0399
 1597TIP3    H226207   1.450   3.551  13.170 -0.0829 -0.1103  1.1381
 1598TIP3   OH226208   0.704   3.924   2.823  0.7520  0.7467 -0.2021
 1598TIP3    H126209   0.691   3.982   2.898 -1.3780 -0.7140  0.6667
 1598TIP3    H226210   0.775   3.965   2.773  0.0927  3.5060  0.9049
 1599TIP3   OH226211   2.152   4.585  15.515  0.3741 -0.3057 -0.0538
 1599TIP3    H126212   2.158   4.499  15.556 -0.6349 -0.7762 -0.8612
 1599TIP3    H226213   2.097   4.636  15.574  2.6918  0.5236  1.5598
 1600TIP3   OH226214   2.041   4.643  14.830 -0.2651 -0.1669 -0.4103
 1600TIP3    H126215   1.970   4.627  14.769 -0.2436  0.5187 -0.6251
 1600TIP3    H226216   1.999   4.678  14.909 -0.2643 -0.7664 -0.1384
 1601TIP3   OH226217   2.217   0.221   0.877  0.2068 -0.6217 -0.1250
 1601TIP3    H126218   2.304   0.188   0.857  0.0854 -1.9533  1.3146
 1601TIP3    H226219   2.218   0.312   0.847  2.0938 -0.5974 -0.1160
 1602TIP3   OH226220   4.525   5.457  14.543 -0.4296  0.8801 -0.4612
 1602TIP3    H126221   4.536   5.462  14.638  0.3365  0.0361 -0.4865
 1602TIP3    H226222   4.451   5.514  14.524 -0.6020  1.0458  0.6432
 1603TIP3   OH226223   3.878   5.156  12.902 -0.4622 -0.0236 -0.4940
 1603TIP3    H126224   3.845   5.068  12.918 -0.7372  0.4857  2.0424
 1603TIP3    H226225   3.928   5.148  12.820 -0.2377 -2.5948 -0.1842
 1604TIP3   OH226226   6.270   3.809   6.210  0.1312  0.1142  0.1503
 1604TIP3    H126227   6.270   3.866   6.287  0.3609  0.0935  0.1683
 1604TIP3    H226228   6.256   3.869   6.136 -1.6663 -0.0563  0.3254
 1605TIP3   OH226229   4.083   2.589   6.125  0.1882 -0.7358 -0.4657
 1605TIP3    H126230   4.137   2.664   6.149  0.0147 -0.3207 -1.3431
 1605TIP3    H226231   4.017   2.583   6.195 -0.1892  0.3170 -0.7138
 1606TIP3   OH226232   1.019   0.059   0.697 -0.6896 -0.3999  0.4399
 1606TIP3    H126233   1.027   0.051   0.792  0.4038  0.9509  0.4982
 1606TIP3    H226234   1.004   0.153   0.683  1.1603 -0.2306 -0.7924
 1607TIP3   OH226235   0.099   1.342   2.144 -0.0704  0.1889 -0.8350
 1607TIP3    H126236   0.189   1.314   2.158 -0.3763 -1.3570 -1.7427
 1607TIP3    H226237   0.075   1.387   2.225  0.5742 -1.9794  0.6407
 1608TIP3   OH226238   0.173   1.100  16.167 -0.0940  0.3891  0.1120
 1608TIP3    H126239   0.231   1.054  16.107  0.0033 -0.5032  0.8611
 1608TIP3    H226240   0.086   1.093  16.128 -0.7694 -3.6267  1.8475
 1609TIP3   OH226241   4.750   0.577  14.954  0.3510 -0.4740 -0.0956
 1609TIP3    H126242   4.834   0.547  14.920  0.0471 -1.6554  0.1499
 1609TIP3    H226243   4.765   0.590  15.047  0.9177  1.8034 -0.4473
 1610TIP3   OH226244   6.106   4.355   4.436  0.3195  0.7340 -0.3986
 1610TIP3    H126245   6.188   4.402   4.454  0.3333  1.3998 -2.0686
 1610TIP3    H226246   6.091   4.367   4.343 -1.5300  0.3465 -0.1933
 1611TIP3   OH226247   1.537   2.220   1.108 -0.1306  0.1478  0.8405
 1611TIP3    H126248   1.499   2.205   1.021  1.8108  1.8163 -0.3633
 1611TIP3    H226249   1.531   2.134   1.151  0.3673 -1.2018 -1.5694
 1612TIP3   OH226250   3.253   3.349   0.099 -0.1809  0.5903  0.2864
 1612TIP3    H126251   3.341   3.387   0.100 -0.1510  0.5203  1.1827
 1612TIP3    H226252   3.236   3.326   0.191 -1.2253  0.8191  0.1559
 1613TIP3   OH226253   0.347   6.611   2.798  0.6449  0.6104 -0.2165
 1613TIP3    H126254   0.323   6.626   2.890 -0.1037 -1.1511 -0.0827
 1613TIP3    H226255   0.265   6.621   2.750  0.9177  0.9163 -0.6262
 1614TIP3   OH226256   6.191   4.471  11.867 -0.1779  0.2941 -0.0874
 1614TIP3    H126257   6.264   4.532  11.882 -0.4109  0.5869 -0.1265
 1614TIP3    H226258   6.121   4.503  11.924  0.1592 -0.7860  0.9694
 1615TIP3   OH226259   0.217   4.349  11.647 -0.1235 -0.2640 -0.2186
 1615TIP3    H126260   0.211   4.296  11.726 -1.0330 -1.2435 -0.9076
 1615TIP3    H226261   0.160   4.424  11.663 -1.6681 -1.3127 -0.5459
 1616TIP3   OH226262   4.648   2.582  10.989 -0.0505  0.5793 -0.1648
 1616TIP3    H126263   4.738   2.604  11.013 -0.3991  0.6176  1.1916
 1616TIP3    H226264   4.601   2.665  10.991  0.1246  0.7837 -2.1954
 1617TIP3   OH226265   3.824   0.607   6.203 -0.3639  0.3766 -0.2685
 1617TIP3    H126266   3.915   0.628   6.227 -0.6985  2.0327 -0.3927
 1617TIP3    H226267   3.785   0.574   6.284  0.7096 -1.7997 -0.5480
 1618TIP3   OH226268   4.215   2.527  12.074 -0.2695 -0.0364  0.9870
 1618TIP3    H126269   4.260   2.611  12.073 -2.5596  1.2743  0.5309
 1618TIP3    H226270   4.261   2.475  12.140  0.7683  1.8335  1.7863
 1619TIP3   OH226271   4.269   1.355  16.362  0.3529  0.7990  0.0877
 1619TIP3    H126272   4.198   1.386  16.308 -2.1446 -1.1629  1.9909
 1619TIP3    H226273   4.265   1.409  16.441  1.6228  1.2880 -0.1589
 1620TIP3   OH226274   4.982   1.618   0.916  0.1043  0.2329 -0.1449
 1620TIP3    H126275   5.020   1.704   0.936 -0.4930  0.4790 -0.0474
 1620TIP3    H226276   5.045   1.556   0.952 -0.2665  0.6503  1.3163
 1621TIP3   OH226277   3.236   6.169  12.651 -0.1492 -0.1151 -0.7956
 1621TIP3    H126278   3.189   6.209  12.579 -1.1898 -1.9159 -1.1917
 1621TIP3    H226279   3.329   6.177  12.628 -0.4109  0.4618 -1.6822
 1622TIP3   OH226280   2.345   0.871  12.712  0.0585 -0.4002 -0.1438
 1622TIP3    H126281   2.379   0.795  12.664  0.9703 -0.4653  0.5829
 1622TIP3    H226282   2.351   0.943  12.649 -0.0532 -0.7623 -0.5774
 1623TIP3   OH226283   0.858   1.541   5.006  0.0759  0.0736 -0.0165
 1623TIP3    H126284   0.909   1.582   5.076 -0.7566  0.6583  0.2782
 1623TIP3    H226285   0.903   1.565   4.925  0.0653  0.9183  0.2114
 1624TIP3   OH226286   1.271   0.080  13.088  0.1807  0.2657 -0.1141
 1624TIP3    H126287   1.260   0.086  13.183  0.1474  1.0935 -0.1599
 1624TIP3    H226288   1.357   0.041  13.075  1.6644  3.1111  0.2959
 1625TIP3   OH226289   6.508   0.790   4.749 -0.3349  0.6585  0.0353
 1625TIP3    H126290   6.559   0.869   4.767  0.4904 -0.0846  1.1092
 1625TIP3    H226291   6.425   0.822   4.713  0.5108  1.9377 -0.8791
 1626TIP3   OH226292   3.475   3.335  11.760 -0.2485 -0.4649  0.4844
 1626TIP3    H126293   3.516   3.273  11.699 -2.4611 -0.4124 -1.1355
 1626TIP3    H226294   3.448   3.280  11.834  1.4266 -0.7100  0.9705
 1627TIP3   OH226295   3.966   1.839  14.373  0.2214  0.0882 -0.1798
 1627TIP3    H126296   3.892   1.883  14.416  0.5291  0.8829 -0.4459
 1627TIP3    H226297   4.039   1.900  14.383  0.4671 -0.0287 -1.2217
 1628TIP3   OH226298   1.369   0.268  14.992  0.4723  0.0445 -0.7037
 1628TIP3    H126299   1.320   0.271  15.075  0.2979  1.0394 -0.8284
 1628TIP3    H226300   1.442   0.208  15.010  0.2234 -0.0562  0.0447
 1629TIP3   OH226301   2.764   5.827   2.789 -0.2967 -0.2394 -0.1681
 1629TIP3    H126302   2.684   5.873   2.815  0.3403  0.3585  0.7787
 1629TIP3    H226303   2.772   5.846   2.695 -0.1023  1.5413  0.1713
 1630TIP3   OH226304   3.836   1.536  11.503 -0.8274  1.0019 -0.3753
 1630TIP3    H126305   3.881   1.621  11.503 -2.0830  1.6892 -0.8360
 1630TIP3    H226306   3.907   1.472  11.506  0.3186  2.0196 -2.6223
 1631TIP3   OH226307   4.518   5.206   4.892  0.1719 -0.8987  0.4229
 1631TIP3    H126308   4.599   5.254   4.910  0.1408 -0.4005 -0.6565
 1631TIP3    H226309   4.485   5.181   4.978  0.2113  1.0096  1.0444
 1632TIP3   OH226310   4.101   6.561   2.522 -0.0034 -0.5312  0.3911
 1632TIP3    H126311   4.119   6.576   2.430 -1.7987  4.3913  0.5831
 1632TIP3    H226312   4.008   6.538   2.525  0.5557 -3.1331  0.9767
 1633TIP3   OH226313   2.552   1.350  10.435  0.0367  0.2495 -0.5994
 1633TIP3    H126314   2.467   1.330  10.472  0.5858 -1.6796 -0.2444
 1633TIP3    H226315   2.566   1.282  10.369  2.2867 -1.0221  1.0454
 1634TIP3   OH226316   2.514   2.780   5.786  0.2413 -0.1462  0.3709
 1634TIP3    H126317   2.609   2.772   5.776  0.2531 -1.0283  1.0514
 1634TIP3    H226318   2.484   2.815   5.703  0.8052 -3.0103 -1.1613
 1635TIP3   OH226319   2.934   6.788  14.035 -0.2624 -0.2933 -0.4030
 1635TIP3    H126320   2.957   6.859  13.976 -0.6211  0.8890  0.8368
 1635TIP3    H226321   2.994   6.797  14.109 -1.6927  0.0701  0.7695
 1636TIP3   OH226322   0.441   0.224   1.077 -0.0582  0.7549  0.6495
 1636TIP3    H126323   0.520   0.196   1.031 -0.5940  0.5022 -0.1345
 1636TIP3    H226324   0.454   0.193   1.167  0.9683  1.1972  0.6727
 1637TIP3   OH226325   4.765   4.863   4.624  0.2268  0.2482  0.3696
 1637TIP3    H126326   4.839   4.892   4.571 -1.2176  1.0178 -1.3685
 1637TIP3    H226327   4.692   4.917   4.593 -1.5893 -2.0874  0.3049
 1638TIP3   OH226328   1.561   3.521  15.207 -0.2495  0.0987 -0.0972
 1638TIP3    H126329   1.554   3.605  15.253 -0.3854  0.7212 -1.2037
 1638TIP3    H226330   1.651   3.521  15.173  0.6648 -1.4402  2.1428
 1639TIP3   OH226331   2.804   3.184   1.372 -0.8195  0.1158 -0.4962
 1639TIP3    H126332   2.803   3.158   1.464 -2.8158  1.9620  0.0759
 1639TIP3    H226333   2.741   3.127   1.330  0.4225 -1.0361 -0.8674
 1640TIP3   OH226334   1.865   5.823  12.129 -0.5714  0.0120  0.1364
 1640TIP3    H126335   1.934   5.877  12.091 -1.4313  1.5406  0.6898
 1640TIP3    H226336   1.786   5.877  12.125 -1.1879 -0.6852  1.9237
 1641TIP3   OH226337   2.530   1.874  11.604 -0.7487  0.6437  0.3206
 1641TIP3    H126338   2.534   1.786  11.566 -0.3320  1.0266 -0.5575
 1641TIP3    H226339   2.463   1.919  11.552 -0.4213  1.0664  0.2531
 1642TIP3   OH226340   5.233   5.632   5.429  0.1599  0.5221  0.5715
 1642TIP3    H126341   5.301   5.696   5.447  0.2941  1.1358 -1.8670
 1642TIP3    H226342   5.261   5.589   5.348 -0.9678 -1.1838  1.0358
 1643TIP3   OH226343   3.126   4.008  12.876  0.4637  0.5925  0.3570
 1643TIP3    H126344   3.210   3.964  12.884  0.7201  0.8607 -0.7425
 1643TIP3    H226345   3.108   4.042  12.964  0.5679 -1.1010  1.0646
 1644TIP3   OH226346   6.197   0.371   2.971 -0.1031 -0.2008 -0.0396
 1644TIP3    H126347   6.203   0.355   3.065  2.0504  2.0588  0.3106
 1644TIP3    H226348   6.108   0.404   2.958 -0.2347  0.0485  1.3256
 1645TIP3   OH226349   2.787   1.898  11.692 -0.2879  0.2947 -0.2289
 1645TIP3    H126350   2.814   1.877  11.782  0.2197 -0.9105 -0.6376
 1645TIP3    H226351   2.692   1.910  11.697 -0.3720 -0.5471  0.3311
 1646TIP3   OH226352   4.678   3.748   2.593  0.3120  0.3641  0.5039
 1646TIP3    H126353   4.698   3.823   2.649 -1.5794  1.4061 -0.1087
 1646TIP3    H226354   4.620   3.693   2.646  0.7399 -0.0777  0.5244
 1647TIP3   OH226355   1.079   5.330  13.036  0.1798 -0.0423  0.5335
 1647TIP3    H126356   1.000   5.381  13.057  0.9285  0.8116  1.3625
 1647TIP3    H226357   1.089   5.341  12.941  1.0004  2.4388  0.8234
 1648TIP3   OH226358   1.698   3.001  14.250  0.2546  0.0747  0.2623
 1648TIP3    H126359   1.663   3.090  14.245  1.3744  0.5072 -0.1516
 1648TIP3    H226360   1.662   2.965  14.331 -2.1704  0.0345 -0.7276
 1649TIP3   OH226361   6.436   5.955  12.718  0.1666 -0.5595 -0.3029
 1649TIP3    H126362   6.341   5.958  12.709  0.1387  0.9156  0.1773
 1649TIP3    H226363   6.468   5.932  12.631 -0.6355 -1.7313 -0.3082
 1650TIP3   OH226364   4.295   3.796   5.669  0.5751 -0.7736 -0.1997
 1650TIP3    H126365   4.339   3.865   5.720 -2.9211  1.2419  0.4010
 1650TIP3    H226366   4.346   3.790   5.588  1.2791  2.2691 -0.1099
 1651TIP3   OH226367   2.389   0.010  15.159 -0.2723 -0.3067 -0.6413
 1651TIP3    H126368   2.429   0.022  15.245 -0.1529  1.1606 -0.8723
 1651TIP3    H226369   2.462  -0.012  15.101 -0.0024  0.8156 -0.7582
 1652TIP3   OH226370   2.466   4.911  10.979 -0.7759 -0.6221 -0.5413
 1652TIP3    H126371   2.408   4.986  10.966 -0.8552 -0.0092  2.6162
 1652TIP3    H226372   2.549   4.939  10.940 -0.9656  0.9332  0.0887
 1653TIP3   OH226373   0.947   0.488  15.690  0.0880 -0.0907  0.0021
 1653TIP3    H126374   0.959   0.402  15.649  0.2515  0.4453 -1.1075
 1653TIP3    H226375   0.858   0.486  15.725  0.5381 -1.1793  1.1489
 1654TIP3   OH226376   5.261   6.443   4.304  0.0970 -0.4588  0.1411
 1654TIP3    H126377   5.227   6.532   4.295  2.0436  0.4607  1.2286
 1654TIP3    H226378   5.291   6.420   4.216  1.6841  0.9275  0.2634
 1655TIP3   OH226379   1.337   0.878   6.664  0.1518  0.0276  0.3465
 1655TIP3    H126380   1.320   0.804   6.722  1.2660 -1.6281 -1.3165
 1655TIP3    H226381   1.262   0.881   6.605 -2.2339  3.2273  3.0848
 1656TIP3   OH226382   4.638   3.771  12.869  0.2386  0.7137 -0.0059
 1656TIP3    H126383   4.645   3.683  12.908  0.9631  0.6307 -0.3025
 1656TIP3    H226384   4.574   3.816  12.924 -0.4221 -0.1182 -0.0738
 1657TIP3   OH226385   5.816   6.271  14.257 -0.2444 -0.4190  0.1743
 1657TIP3    H126386   5.760   6.196  14.278 -0.5198 -0.1786  0.3081
 1657TIP3    H226387   5.879   6.237  14.194  0.1667 -0.9847  0.8670
 1658TIP3   OH226388   0.056   1.559   5.456  0.0264  0.0622 -0.5772
 1658TIP3    H126389   0.010   1.571   5.538  0.1154 -3.8268  0.2302
 1658TIP3    H226390   0.113   1.635   5.449 -1.2110  1.3476  2.0825
 1659TIP3   OH226391   0.415   1.164  12.102 -0.2199 -0.6245 -0.0025
 1659TIP3    H126392   0.444   1.105  12.172  0.2290 -3.3268 -2.2872
 1659TIP3    H226393   0.324   1.141  12.088 -0.3922  0.1249 -0.1351
 1660TIP3   OH226394   5.527   2.811  11.794 -0.1274  0.0755  0.4103
 1660TIP3    H126395   5.438   2.816  11.759  0.6021 -0.1400 -1.6147
 1660TIP3    H226396   5.582   2.848  11.725  1.5554 -1.6240  0.7490
 1661TIP3   OH226397   1.247   1.965  10.760 -0.8113 -0.5020 -0.2304
 1661TIP3    H126398   1.240   1.984  10.666 -0.1454  0.8271 -0.0419
 1661TIP3    H226399   1.337   1.934  10.771 -0.6759 -0.0069  0.0648
 1662TIP3   OH226400   3.623   0.610  14.514  0.5832 -0.2815  0.3316
 1662TIP3    H126401   3.579   0.546  14.570  2.5956 -2.1940 -0.1206
 1662TIP3    H226402   3.705   0.630  14.560  1.0946  0.0809 -0.6983
 1663TIP3   OH226403   1.418   1.808  11.839  0.3792  0.4544 -0.0661
 1663TIP3    H126404   1.332   1.849  11.851  0.3471  0.5482 -0.6007
 1663TIP3    H226405   1.428   1.801  11.744  0.7462 -0.0184  0.0066
 1664TIP3   OH226406   4.084   0.670   5.670  0.2089  0.3205  0.6428
 1664TIP3    H126407   3.995   0.668   5.635  0.0619  0.2179  1.0130
 1664TIP3    H226408   4.121   0.586   5.645 -0.1675 -0.0894  1.4116
 1665TIP3   OH226409   0.765   4.310  13.449  0.2390 -0.2471 -0.0956
 1665TIP3    H126410   0.804   4.266  13.374 -0.3308  0.5404 -0.8645
 1665TIP3    H226411   0.750   4.400  13.419  2.5660  0.9001  1.8054
 1666TIP3   OH226412   2.924   5.562   3.130  0.5819 -0.5309  0.6200
 1666TIP3    H126413   2.933   5.637   3.071 -0.0658 -0.9545 -0.0484
 1666TIP3    H226414   2.858   5.590   3.194 -0.8973 -1.0632 -0.5901
 1667TIP3   OH226415   1.216   5.220  12.338 -0.3150 -0.5485  0.2380
 1667TIP3    H126416   1.162   5.141  12.337  2.3858 -2.5165  0.0150
 1667TIP3    H226417   1.283   5.202  12.404  0.5115  1.4751  0.0124
 1668TIP3   OH226418   4.425   4.397  17.147  0.1551 -0.5737 -0.3113
 1668TIP3    H126419   4.511   4.371  17.177 -1.0091 -2.7515  1.4213
 1668TIP3    H226420   4.395   4.462  17.211  0.1283 -0.5511 -0.3472
 1669TIP3   OH226421   4.923   0.368   4.786 -0.1727 -0.2002  0.3281
 1669TIP3    H126422   5.004   0.379   4.837 -0.8634  1.5278  1.1414
 1669TIP3    H226423   4.953   0.345   4.698  1.2018 -0.0146  0.7239
 1670TIP3   OH226424   3.714   4.405  11.549 -0.1190  0.3636  0.5555
 1670TIP3    H126425   3.660   4.331  11.576  0.4675  0.0881  0.9617
 1670TIP3    H226426   3.650   4.475  11.531 -0.5730  0.3338  1.9213
 1671TIP3   OH226427   0.423   1.274  16.970 -0.3037 -0.6955  0.3300
 1671TIP3    H126428   0.500   1.282  17.026  0.1524  1.3175 -0.4859
 1671TIP3    H226429   0.349   1.291  17.028  0.0351 -0.2969  0.6518
 1672TIP3   OH226430   5.616   1.920   4.030 -0.7076  0.4724 -0.1348
 1672TIP3    H126431   5.628   1.886   3.941  2.9993  2.4013 -0.5620
 1672TIP3    H226432   5.580   2.008   4.017 -1.1284  0.3858  0.3833
 1673TIP3   OH226433   0.717   1.911   2.098  0.2871 -0.3827  0.3950
 1673TIP3    H126434   0.783   1.852   2.063 -1.7197 -1.3462 -2.0733
 1673TIP3    H226435   0.660   1.931   2.024 -2.3703  0.1519  2.4176
 1674TIP3   OH226436   3.314   4.969  11.407 -0.1253  0.0658  0.5292
 1674TIP3    H126437   3.277   4.881  11.403  0.1029  0.0186 -2.2346
 1674TIP3    H226438   3.252   5.025  11.360  1.7285  0.5201 -1.5757
 1675TIP3   OH226439   4.721   5.090   3.107 -0.3592  0.0682  0.6609
 1675TIP3    H126440   4.795   5.139   3.144 -0.0111 -0.5170  0.7537
 1675TIP3    H226441   4.685   5.148   3.040  0.5014  0.1567  0.2589
 1676TIP3   OH226442   0.130   5.494   5.872 -0.1235  0.1163 -0.5773
 1676TIP3    H126443   0.068   5.447   5.929  0.0277 -1.2654 -1.5140
 1676TIP3    H226444   0.188   5.540   5.933 -1.7885  1.1295  0.3283
 1677TIP3   OH226445   6.150   2.857  13.291 -0.0811 -0.3455  0.4446
 1677TIP3    H126446   6.194   2.850  13.206  0.5344  1.1063  0.6021
 1677TIP3    H226447   6.162   2.772  13.332  1.1251 -0.5257 -0.2328
 1678TIP3   OH226448   1.190   6.186  15.011  0.0997 -0.0081 -0.2049
 1678TIP3    H126449   1.153   6.108  14.968  1.3344 -1.1132  0.6345
 1678TIP3    H226450   1.225   6.239  14.939  2.0816 -1.7964 -0.6821
 1679TIP3   OH226451   2.381   0.576  12.242 -0.5366 -0.4801 -0.3293
 1679TIP3    H126452   2.407   0.484  12.255 -0.2507 -0.3549 -0.0012
 1679TIP3    H226453   2.341   0.577  12.155 -0.5517 -0.9182 -0.3327
 1680TIP3   OH226454   0.414   5.139  13.627 -0.1513  0.4163 -0.2340
 1680TIP3    H126455   0.429   5.088  13.548 -0.8685 -0.5486  0.2377
 1680TIP3    H226456   0.499   5.138  13.673  0.4064  1.3916 -1.1942
 1681TIP3   OH226457   5.491   1.562  14.697  0.5399 -0.1216  0.1515
 1681TIP3    H126458   5.577   1.594  14.727  0.5398 -0.3838  0.4327
 1681TIP3    H226459   5.508   1.473  14.667  0.0315 -0.8736  1.9536
 1682TIP3   OH226460   5.287   3.400   0.172  0.1555 -0.0945 -0.0084
 1682TIP3    H126461   5.332   3.363   0.096  0.8872  0.4618  0.1518
 1682TIP3    H226462   5.205   3.435   0.137  0.3977 -0.0191 -0.4979
 1683TIP3   OH226463   2.270   0.854   1.858  0.0709 -0.1979 -0.1627
 1683TIP3    H126464   2.264   0.947   1.878  1.3338  0.1512 -1.2457
 1683TIP3    H226465   2.212   0.812   1.921 -1.2660  1.3982 -0.2527
 1684TIP3   OH226466   1.443   3.930  15.323 -0.1672  0.5818 -0.0664
 1684TIP3    H126467   1.401   3.970  15.247 -0.5704  0.5355  0.1314
 1684TIP3    H226468   1.502   3.998  15.356 -1.0043  1.1096  0.3947
 1685TIP3   OH226469   0.170   2.473  15.699  0.2631 -0.1430 -0.6355
 1685TIP3    H126470   0.215   2.449  15.781 -1.8082 -0.3186  0.5327
 1685TIP3    H226471   0.133   2.390  15.668  1.2648 -0.1255 -1.9510
 1686TIP3   OH226472   2.249   3.562   6.326  0.7784  0.0718  0.2632
 1686TIP3    H126473   2.200   3.640   6.351 -1.2032 -1.1053  0.2215
 1686TIP3    H226474   2.223   3.495   6.390 -1.2424 -1.8485 -2.3359
 1687TIP3   OH226475   5.477   6.317  16.228 -0.7103  0.4881 -0.0394
 1687TIP3    H126476   5.412   6.305  16.297  1.0711  2.4198  2.1456
 1687TIP3    H226477   5.544   6.251  16.247 -0.2012  1.0426  0.1403
 1688TIP3   OH226478   6.113   5.937   6.407  0.5318 -0.2070 -0.4453
 1688TIP3    H126479   6.131   5.995   6.481  1.8089 -2.1682  0.8807
 1688TIP3    H226480   6.175   5.965   6.339  0.5701  0.4764 -0.1344
 1689TIP3   OH226481   6.634   0.580   3.953  0.3860  0.6027  0.3171
 1689TIP3    H126482   6.687   0.657   3.936  1.1821  0.4771  2.0433
 1689TIP3    H226483   6.669   0.543   4.034 -0.2680 -1.3205 -0.2108
 1690TIP3   OH226484   1.401   0.637  12.148  0.3183  0.5836 -0.1281
 1690TIP3    H126485   1.460   0.684  12.089 -0.3912  0.5204 -0.8999
 1690TIP3    H226486   1.441   0.648  12.234 -0.3459  3.5672 -0.0663
 1691TIP3   OH226487   3.627   6.187   5.378  0.5375  0.2031  0.0691
 1691TIP3    H126488   3.569   6.214   5.449  1.7987 -0.6435  1.5059
 1691TIP3    H226489   3.651   6.097   5.400  1.8554  0.3124 -0.8088
 1692TIP3   OH226490   4.487   6.354   0.577 -0.5391  0.2097  0.4922
 1692TIP3    H126491   4.511   6.421   0.642 -2.5965  1.4553  0.0546
 1692TIP3    H226492   4.426   6.297   0.624  0.2406 -0.6358  0.4921
 1693TIP3   OH226493   6.081   3.969  11.230  0.0060 -0.1214 -0.2863
 1693TIP3    H126494   6.145   3.977  11.301  1.2500 -3.0011 -0.9667
 1693TIP3    H226495   6.130   3.987  11.150 -0.6379  0.0389 -0.6586
 1694TIP3   OH226496   2.371   4.364   3.951 -0.2316  0.0809 -0.1051
 1694TIP3    H126497   2.455   4.322   3.967 -0.3189  0.0286  0.2209
 1694TIP3    H226498   2.387   4.423   3.877 -0.1240 -0.5737 -0.6144
 1695TIP3   OH226499   1.896   2.117  12.562  0.1120  0.1156  0.3263
 1695TIP3    H126500   1.975   2.157  12.525  0.5932 -1.6779 -0.7033
 1695TIP3    H226501   1.839   2.191  12.583  1.5865  1.3942 -0.0041
 1696TIP3   OH226502   1.407   4.814   3.829 -0.2238  0.1778 -0.3200
 1696TIP3    H126503   1.405   4.908   3.849  2.6949 -0.2137  3.0287
 1696TIP3    H226504   1.316   4.790   3.813 -1.4213  3.1452  1.2888
 1697TIP3   OH226505   5.498   5.183  11.755  0.1984  0.1878 -0.0076
 1697TIP3    H126506   5.456   5.100  11.774  0.1097  0.1822 -0.2330
 1697TIP3    H226507   5.576   5.184  11.811  2.2816 -1.6870 -2.6595
 1698TIP3   OH226508   5.595   4.087   2.832  0.7579  0.1631 -0.1190
 1698TIP3    H126509   5.544   4.126   2.761  0.7647  0.0351 -0.1935
 1698TIP3    H226510   5.541   4.098   2.910  0.6894  0.1754 -0.1685
 1699TIP3   OH226511   5.032   1.164  11.691  0.3600  0.1181 -0.1322
 1699TIP3    H126512   5.087   1.089  11.666  1.1032  0.3249  0.8162
 1699TIP3    H226513   5.095   1.234  11.709 -0.1963  0.3033  1.1928
 1700TIP3   OH226514   6.643   1.708  14.274 -0.2379 -0.5999 -0.1614
 1700TIP3    H126515   6.584   1.769  14.230  0.2302 -1.9457 -2.9119
 1700TIP3    H226516   6.597   1.682  14.353 -1.6213  1.2037 -0.3040
 1701TIP3   OH226517   2.744   6.431   4.383 -0.2150 -0.2414 -0.5422
 1701TIP3    H126518   2.748   6.459   4.474  1.5927  0.2853 -0.7470
 1701TIP3    H226519   2.784   6.344   4.383  0.3288  0.0015 -0.9065
 1702TIP3   OH226520   6.113   0.751   3.902 -0.1205  0.0088  0.4002
 1702TIP3    H126521   6.207   0.754   3.886 -0.2948 -0.1667 -0.7941
 1702TIP3    H226522   6.089   0.841   3.924  0.3188  0.0667  0.6417
 1703TIP3   OH226523   5.263   2.315   6.456 -0.2578  0.0550  0.1951
 1703TIP3    H126524   5.332   2.359   6.406  0.8522  0.1052  1.6723
 1703TIP3    H226525   5.228   2.384   6.513 -0.7807 -0.2324  0.2262
 1704TIP3   OH226526   3.704   1.500  14.263  0.0221 -0.0547 -0.4665
 1704TIP3    H126527   3.782   1.493  14.207  1.2884 -1.7116  1.3469
 1704TIP3    H226528   3.702   1.417  14.311 -2.4687  0.2662  0.0908
 1705TIP3   OH226529   3.142   4.959  17.152  0.2560  1.0061 -0.1431
 1705TIP3    H126530   3.136   4.876  17.199 -0.8940  1.5818  0.7775
 1705TIP3    H226531   3.081   4.949  17.079  0.5458  0.8395 -0.3638
 1706TIP3   OH226532   5.270   5.218   2.012  0.2285  0.0206  0.7763
 1706TIP3    H126533   5.289   5.138   1.963 -4.8860 -2.1669  1.6939
 1706TIP3    H226534   5.303   5.201   2.100 -0.2485 -0.8655  0.7951
 1707TIP3   OH226535   5.222   4.493  16.591  0.1450 -0.1662 -0.8932
 1707TIP3    H126536   5.289   4.525  16.652  0.0850 -0.6589 -0.5650
 1707TIP3    H226537   5.141   4.533  16.622 -0.5455 -3.0917  1.5365
 1708TIP3   OH226538   2.091   0.470  14.250  0.5860 -0.1531 -0.2141
 1708TIP3    H126539   2.145   0.423  14.313  0.7527 -1.3203 -1.1989
 1708TIP3    H226540   2.090   0.561  14.281  0.7225 -0.6903  1.4128
 1709TIP3   OH226541   4.570   2.514  13.736 -0.1330  0.7197 -0.0608
 1709TIP3    H126542   4.524   2.530  13.654  0.2000 -1.1009 -0.6419
 1709TIP3    H226543   4.562   2.420  13.750  3.5092  0.2423 -0.3102
 1710TIP3   OH226544   0.274   1.479  11.133 -0.4743 -0.2657  0.7519
 1710TIP3    H126545   0.263   1.568  11.100  2.8510  1.2601  3.1236
 1710TIP3    H226546   0.333   1.437  11.071  1.3693  0.7345  1.7406
 1711TIP3   OH226547   1.130   0.480   5.037  0.3305  0.6737  0.0632
 1711TIP3    H126548   1.188   0.532   5.091  0.4593 -0.5901  1.1990
 1711TIP3    H226549   1.066   0.443   5.098  1.3030 -1.9225 -0.3649
 1712TIP3   OH226550   2.970   3.807  11.277 -0.2167  0.4660  0.3429
 1712TIP3    H126551   2.910   3.778  11.208 -0.7574  2.3238 -0.0334
 1712TIP3    H226552   2.917   3.864  11.332  0.5535  0.0558  1.5355
 1713TIP3   OH226553   1.072   0.643   4.258 -0.0445 -0.4580  0.5582
 1713TIP3    H126554   1.158   0.610   4.230  0.6049  1.8640 -0.4716
 1713TIP3    H226555   1.084   0.663   4.351 -0.0236 -1.7215  0.8425
 1714TIP3   OH226556   2.701   1.027  14.148 -0.4467  0.1671  0.9490
 1714TIP3    H126557   2.681   1.057  14.237 -0.6660 -0.2920  1.0581
 1714TIP3    H226558   2.705   0.932  14.155  1.9290  0.1959  0.9769
 1715TIP3   OH226559   3.364   4.415   4.163  0.3109  0.3840 -0.1949
 1715TIP3    H126560   3.274   4.399   4.135  0.0045  0.7716  0.5310
 1715TIP3    H226561   3.403   4.328   4.169 -0.6709  0.0060  1.5615
 1716TIP3   OH226562   3.540   5.446  15.188 -0.2196 -0.5971  0.0244
 1716TIP3    H126563   3.528   5.385  15.115 -2.3458  1.7566 -1.7659
 1716TIP3    H226564   3.631   5.473  15.183 -0.3124 -0.5296 -1.7692
 1717TIP3   OH226565   1.842   1.500  11.537 -0.0871 -0.2924  0.4490
 1717TIP3    H126566   1.855   1.558  11.611  4.0531 -0.0949 -0.2227
 1717TIP3    H226567   1.869   1.414  11.568  0.1789 -0.5197 -0.3784
 1718TIP3   OH226568   5.791   6.213  10.235 -0.4816 -0.2599 -0.7079
 1718TIP3    H126569   5.706   6.250  10.258 -1.5247 -0.3377 -3.8835
 1718TIP3    H226570   5.848   6.235  10.308 -3.2718 -0.4723  1.6957
 1719TIP3   OH226571   1.166   5.499   0.894  0.2847  0.0214  0.1109
 1719TIP3    H126572   1.087   5.463   0.934  0.3418  0.3692  0.5348
 1719TIP3    H226573   1.152   5.488   0.800 -0.8862  1.3456  0.1084
 1720TIP3   OH226574   5.359   3.235  12.624 -0.2720  0.3906  0.1792
 1720TIP3    H126575   5.348   3.167  12.557  1.0776  0.5485 -0.2279
 1720TIP3    H226576   5.409   3.304  12.580  0.9145  0.3623  1.4240
 1721TIP3   OH226577   5.809   6.268  12.873 -0.4467 -0.3292  0.0671
 1721TIP3    H126578   5.725   6.295  12.910  0.1344  0.1092  1.0967
 1721TIP3    H226579   5.874   6.320  12.920  0.4138 -0.7175 -0.6648
 1722TIP3   OH226580   4.608   5.216  14.722 -0.0459  0.2575 -0.3166
 1722TIP3    H126581   4.578   5.304  14.745  0.0386  0.0789  0.4949
 1722TIP3    H226582   4.528   5.165  14.713 -0.1124  0.4917 -1.1332
 1723TIP3   OH226583   1.244   5.464   5.183 -0.3461 -0.3298 -0.3690
 1723TIP3    H126584   1.217   5.450   5.093 -0.7182  0.0785 -0.3213
 1723TIP3    H226585   1.324   5.516   5.176 -1.6477  1.7589 -0.4163
 1724TIP3   OH226586   5.195   3.988  12.942  0.5557  0.0253  0.5669
 1724TIP3    H126587   5.280   4.025  12.966  0.3999  1.0948 -0.4301
 1724TIP3    H226588   5.204   3.894  12.961  2.5784 -0.1949 -1.0566
 1725TIP3   OH226589   3.043   3.404  17.222  0.1245  0.0100  0.3277
 1725TIP3    H126590   3.099   3.358  17.285  0.9099 -1.2162 -1.1892
 1725TIP3    H226591   3.099   3.472  17.186 -0.1575  0.3723  0.5697
 1726TIP3   OH226592   3.989   3.929   5.427  0.4849  0.0698 -0.3020
 1726TIP3    H126593   4.026   3.926   5.339  0.5868  0.1428 -0.2614
 1726TIP3    H226594   4.015   3.846   5.466  1.8490  0.7142  0.2284
 1727TIP3   OH226595   4.295   4.084  15.353  0.3159 -0.5370 -0.5480
 1727TIP3    H126596   4.325   4.154  15.412  1.9675 -2.8252  1.5708
 1727TIP3    H226597   4.365   4.076  15.289  0.8258 -1.1525  0.0725
 1728TIP3   OH226598   0.824   1.938   0.594  0.4423 -0.2103  0.1353
 1728TIP3    H126599   0.745   1.894   0.626  0.7416 -1.3199 -0.6339
 1728TIP3    H226600   0.893   1.912   0.655 -0.2371  3.0783  2.6366
 1729TIP3   OH226601   0.487   1.335   6.146  0.0688 -0.1904  0.2091
 1729TIP3    H126602   0.440   1.385   6.213  0.3131 -0.9623  0.9793
 1729TIP3    H226603   0.427   1.266   6.120  0.6889 -1.0856  1.0824
 1730TIP3   OH226604   0.745   2.640  14.522  0.1467  0.0387 -0.2622
 1730TIP3    H126605   0.674   2.695  14.555 -0.0178 -2.0873  3.5984
 1730TIP3    H226606   0.824   2.678  14.562  0.3244 -1.0715  0.4828
 1731TIP3   OH226607   3.638   5.142  16.165 -0.2202 -0.0909 -0.3646
 1731TIP3    H126608   3.597   5.056  16.180  0.7194 -0.4752  0.1413
 1731TIP3    H226609   3.730   5.128  16.187  0.3558  0.5374 -2.1902
 1732TIP3   OH226610   6.320   4.359  11.385 -0.0429 -0.0386  0.7190
 1732TIP3    H126611   6.341   4.282  11.332  0.3919  0.7334 -0.2388
 1732TIP3    H226612   6.227   4.347  11.408 -0.0465 -0.7253  0.3687
 1733TIP3   OH226613   4.953   4.067   1.299  0.4979  0.3824 -0.0123
 1733TIP3    H126614   4.909   4.059   1.384 -0.1762 -0.8219 -0.4445
 1733TIP3    H226615   4.923   4.151   1.264  0.8226  0.9136  0.9611
 1734TIP3   OH226616   6.393   0.619  13.642 -0.2510  0.0072  0.1343
 1734TIP3    H126617   6.324   0.679  13.672 -0.8578 -0.1241 -0.9552
 1734TIP3    H226618   6.346   0.544  13.607  0.3558  0.5069 -1.9080
 1735TIP3   OH226619   6.586   4.375   1.326 -0.2144  0.3079  0.3100
 1735TIP3    H126620   6.542   4.442   1.380 -0.5401  0.7560 -0.4879
 1735TIP3    H226621   6.532   4.369   1.248  0.3419 -0.2227 -0.0405
 1736TIP3   OH226622   6.332   6.491   3.640  0.0097  0.3757 -0.1203
 1736TIP3    H126623   6.295   6.419   3.691  0.8430  1.2058  1.7609
 1736TIP3    H226624   6.359   6.555   3.706 -0.0903  2.1189 -1.7085
 1737TIP3   OH226625   0.814   6.308  11.275  0.1667 -0.6651  0.3223
 1737TIP3    H126626   0.849   6.331  11.189  1.1834 -1.0977  0.6075
 1737TIP3    H226627   0.866   6.360  11.336 -0.4832 -0.4391  0.6905
 1738TIP3   OH226628   2.741   1.505  12.162  0.4036  0.2509  0.4745
 1738TIP3    H126629   2.656   1.496  12.205 -0.0813  0.2421 -0.4572
 1738TIP3    H226630   2.802   1.456  12.218 -0.3502 -0.4000  0.7418
 1739TIP3   OH226631   2.371   5.505   0.893 -0.4225 -0.4617  0.1243
 1739TIP3    H126632   2.299   5.556   0.930  0.4518  1.0599 -0.1533
 1739TIP3    H226633   2.392   5.440   0.960 -0.3814  0.7527  1.3457
 1740TIP3   OH226634   3.366   6.410  13.759  0.6164 -0.7702 -0.1380
 1740TIP3    H126635   3.452   6.431  13.722  0.6288  0.1132  0.3691
 1740TIP3    H226636   3.356   6.470  13.833 -0.1743 -1.2932  0.1949
 1741TIP3   OH226637   2.811   1.591  14.257  0.3731  0.0582 -0.2626
 1741TIP3    H126638   2.862   1.671  14.246 -0.9018  1.2511  1.7621
 1741TIP3    H226639   2.862   1.538  14.319  0.9909 -0.5194 -1.2433
 1742TIP3   OH226640   4.499   5.882   3.713 -0.0165 -0.1192 -0.5859
 1742TIP3    H126641   4.424   5.882   3.654  0.2359  0.9115 -0.9380
 1742TIP3    H226642   4.467   5.926   3.792  0.0779 -0.1026 -0.5566
 1743TIP3   OH226643   1.881   3.061   1.963 -0.7589 -0.9765 -0.1230
 1743TIP3    H126644   1.972   3.044   1.988 -1.2429 -1.0649  1.7341
 1743TIP3    H226645   1.886   3.131   1.898  0.5756  0.0728  1.0609
 1744TIP3   OH226646   3.823   5.948  13.267 -0.7114 -0.4797 -0.5127
 1744TIP3    H126647   3.797   6.035  13.298 -0.0029 -0.6334  0.5657
 1744TIP3    H226648   3.822   5.955  13.172  1.4940  1.3768 -0.4656
 1745TIP3   OH226649   3.009   3.491   1.101  0.4011  0.4579 -0.0556
 1745TIP3    H126650   2.961   3.419   1.140 -0.9657  1.6163  0.5063
 1745TIP3    H226651   2.980   3.493   1.010  1.8080 -0.7789 -0.5698
 1746TIP3   OH226652   2.044   6.631  13.331 -0.5403  0.3075 -0.2768
 1746TIP3    H126653   2.096   6.569  13.382 -0.4050  1.6468  1.3090
 1746TIP3    H226654   2.065   6.611  13.240  1.1948 -0.4913  0.2553
 1747TIP3   OH226655   0.902   2.730   1.268 -0.1838  0.7212 -0.1072
 1747TIP3    H126656   0.890   2.780   1.348 -0.4506 -1.3222  1.2203
 1747TIP3    H226657   0.814   2.714   1.235 -0.1569  0.3579 -0.0098
 1748TIP3   OH226658   2.424   3.185   3.630 -0.2246 -0.0244  0.0927
 1748TIP3    H126659   2.502   3.236   3.653  0.5017 -1.1061  0.0839
 1748TIP3    H226660   2.433   3.170   3.536 -1.0361  0.8032 -0.1294
 1749TIP3   OH226661   5.405   6.745   0.029  0.3722  0.1005  0.1493
 1749TIP3    H126662   5.459   6.719   0.105  1.0309 -0.9097 -0.6433
 1749TIP3    H226663   5.405   6.668  -0.028 -2.1106 -0.0093  0.1988
 1750TIP3   OH226664   2.826   4.759   5.058 -0.2230 -0.3089 -0.0638
 1750TIP3    H126665   2.739   4.722   5.046  0.0006 -0.7440 -0.3467
 1750TIP3    H226666   2.843   4.808   4.978  0.1025 -0.8543 -0.3311
 1751TIP3   OH226667   4.389   6.741   1.361 -0.2320  0.2072  0.0145
 1751TIP3    H126668   4.314   6.738   1.302 -0.0291  2.0122 -0.3817
 1751TIP3    H226669   4.400   6.833   1.383  2.2837  0.1200 -0.5032
 1752TIP3   OH226670   5.311   1.140  17.098  0.1979 -0.3993  0.0157
 1752TIP3    H126671   5.295   1.198  17.023  0.4204  1.1232  1.1052
 1752TIP3    H226672   5.375   1.076  17.066 -0.8482 -0.7339 -1.5280
 1753TIP3   OH226673   0.698   3.774   2.289 -0.3020  0.1925  0.8503
 1753TIP3    H126674   0.609   3.745   2.267 -0.4662  1.7213 -0.6457
 1753TIP3    H226675   0.692   3.800   2.381 -1.4491  0.3964  0.7391
 1754TIP3   OH226676   2.298   2.767   0.948  0.0216  0.0757  0.2009
 1754TIP3    H126677   2.213   2.747   0.909 -0.4803  2.2825  0.0706
 1754TIP3    H226678   2.291   2.733   1.038 -0.5681 -0.7647 -0.1517
 1755TIP3   OH226679   1.582   5.843  12.952 -0.4260  0.2975 -0.1791
 1755TIP3    H126680   1.599   5.769  13.010 -2.0571 -0.5832 -0.7578
 1755TIP3    H226681   1.511   5.813  12.895  0.7549  1.3154 -2.2967
 1756TIP3   OH226682   4.073   4.010   0.807  0.0958  0.0570 -0.0995
 1756TIP3    H126683   4.033   4.090   0.840 -1.0904 -0.8391  0.7493
 1756TIP3    H226684   4.091   4.028   0.715  0.1919  1.4066  0.1628
 1757TIP3   OH226685   4.310   4.970   3.129  0.4993 -0.4736 -0.5348
 1757TIP3    H126686   4.312   4.933   3.217  1.6773 -0.4846 -0.5532
 1757TIP3    H226687   4.220   5.003   3.119  0.5523  0.2351  0.9714
 1758TIP3   OH226688   4.954   3.746   1.864  0.1169  0.5710  0.0134
 1758TIP3    H126689   4.871   3.770   1.823 -1.0364 -1.3789  1.0311
 1758TIP3    H226690   5.001   3.697   1.797 -1.3218 -1.7187  0.5446
 1759TIP3   OH226691   0.592   5.474  14.006 -0.0933 -0.8078 -0.3727
 1759TIP3    H126692   0.606   5.495  13.914 -0.7568 -0.7949 -0.4740
 1759TIP3    H226693   0.635   5.545  14.054 -1.7761  0.4677 -0.7007
 1760TIP3   OH226694   1.986   0.472  15.307 -0.7695 -0.4067  0.3516
 1760TIP3    H126695   1.892   0.486  15.318 -0.3460  4.2091  0.1435
 1760TIP3    H226696   2.025   0.501  15.389  0.5565 -0.5637 -0.1847
 1761TIP3   OH226697   5.989   5.834   4.716 -0.2238 -0.8961  0.4852
 1761TIP3    H126698   5.995   5.767   4.648 -1.3741 -0.0328 -0.5181
 1761TIP3    H226699   6.076   5.837   4.755  0.7031 -0.8703 -1.4817
 1762TIP3   OH226700   1.097   1.333   3.933  0.0078  0.0586 -0.4502
 1762TIP3    H126701   1.031   1.296   3.875  0.4777  0.3671 -1.1926
 1762TIP3    H226702   1.057   1.414   3.966 -0.9662 -0.9962  1.0724
 1763TIP3   OH226703   5.138   4.802  10.681  0.0871 -0.7291 -0.2718
 1763TIP3    H126704   5.181   4.846  10.754 -0.1329  0.6620 -0.9516
 1763TIP3    H226705   5.184   4.718  10.672  0.7471 -0.4903  0.8228
 1764TIP3   OH226706   6.177   2.822  11.338  0.4648 -0.4726  0.6020
 1764TIP3    H126707   6.270   2.841  11.355  0.5997 -1.3404  0.8577
 1764TIP3    H226708   6.155   2.878  11.263  0.8770  0.5904  1.2521
 1765TIP3   OH226709   3.411   3.034   3.716 -0.3807 -0.1765  0.0796
 1765TIP3    H126710   3.409   3.080   3.632  0.3744 -2.2126 -1.1173
 1765TIP3    H226711   3.457   3.094   3.775 -2.3462  1.9776 -0.4559
 1766TIP3   OH226712   4.659   1.402  12.245  0.1910 -0.5513  0.2573
 1766TIP3    H126713   4.739   1.355  12.270  1.4942 -0.3920 -3.1181
 1766TIP3    H226714   4.682   1.494  12.252  0.3775 -0.5043 -0.7819
 1767TIP3   OH226715   5.894   1.509   1.824  0.5535  0.1465 -0.1460
 1767TIP3    H126716   5.879   1.428   1.872  1.7762 -0.3249 -0.5187
 1767TIP3    H226717   5.807   1.537   1.795 -0.3330  0.7963  2.8283
 1768TIP3   OH226718   0.491   2.441   3.915 -0.4623  0.5516 -0.4961
 1768TIP3    H126719   0.543   2.407   3.843 -0.2323  0.4615 -0.2893
 1768TIP3    H226720   0.402   2.413   3.896 -0.2226 -0.5016 -0.1268
 1769TIP3   OH226721   0.852   0.658   6.520 -0.1524 -0.0260  0.5249
 1769TIP3    H126722   0.780   0.616   6.472  0.3353 -1.6869  1.1606
 1769TIP3    H226723   0.857   0.610   6.603  1.0956  0.6509  0.8701
 1770TIP3   OH226724   0.659   4.864  13.586  0.3191  0.5932 -0.1905
 1770TIP3    H126725   0.698   4.932  13.531 -0.1467  0.1689 -1.0798
 1770TIP3    H226726   0.733   4.809  13.612  0.3531 -0.3255 -2.0407
 1771TIP3   OH226727   6.463   0.610   2.411 -0.2323  0.1509  0.0667
 1771TIP3    H126728   6.482   0.598   2.504 -0.9842  0.3879  0.2617
 1771TIP3    H226729   6.524   0.678   2.383 -1.3100  1.5307  0.8879
 1772TIP3   OH226730   3.615   2.777  16.970  0.0979  0.1148  0.1323
 1772TIP3    H126731   3.596   2.850  16.911 -1.5141  0.9259  1.5612
 1772TIP3    H226732   3.530   2.733  16.982  1.0800 -2.2724 -0.9707
 1773TIP3   OH226733   2.895   2.173  12.950  0.6398 -0.3704 -0.3784
 1773TIP3    H126734   2.928   2.249  12.901  1.3662 -0.5998 -0.2577
 1773TIP3    H226735   2.972   2.117  12.962  0.2947 -0.7087  0.3086
 1774TIP3   OH226736   4.788   5.314   4.983  0.0760 -0.2233 -0.1065
 1774TIP3    H126737   4.775   5.401   4.946 -2.8777 -0.7632 -0.6151
 1774TIP3    H226738   4.857   5.275   4.930 -0.4922  0.8512 -1.6980
 1775TIP3   OH226739   4.092   3.596  12.487  0.4010 -0.3072 -0.0696
 1775TIP3    H126740   4.067   3.636  12.570 -1.6905 -0.0762 -0.7410
 1775TIP3    H226741   4.096   3.670  12.426  1.3361 -0.5452 -0.3038
 1776TIP3   OH226742   0.932   4.317   1.811  0.0709 -0.1286 -0.2072
 1776TIP3    H126743   0.856   4.294   1.863  0.7211 -1.6336  0.1255
 1776TIP3    H226744   0.994   4.355   1.873  0.3338 -0.7122 -0.1014
 1777TIP3   OH226745   3.518   1.812   2.185 -0.1319 -0.4049 -0.6196
 1777TIP3    H126746   3.453   1.824   2.254  1.1255 -0.2504  0.5882
 1777TIP3    H226747   3.512   1.892   2.132 -2.7815 -1.5429 -2.2275
 1778TIP3   OH226748   2.585   1.724  15.392 -0.1264  0.3687  0.7808
 1778TIP3    H126749   2.662   1.734  15.449  1.5573 -1.2532 -1.0531
 1778TIP3    H226750   2.621   1.724  15.304 -2.2876 -0.2616 -0.1565
 1779TIP3   OH226751   3.879   2.505  17.025  0.2091 -0.1754  0.2907
 1779TIP3    H126752   3.940   2.431  17.013  1.3691  0.2182  2.9686
 1779TIP3    H226753   3.910   2.571  16.964  0.6666 -1.0183 -0.4212
 1780TIP3   OH226754   3.610   4.103  16.344  0.1408 -0.6597 -0.1043
 1780TIP3    H126755   3.666   4.162  16.394 -1.0277  0.0667  0.3604
 1780TIP3    H226756   3.562   4.054  16.410 -0.9794 -0.1146 -0.4964
 1781TIP3   OH226757   3.352   0.663  16.105  0.1822 -0.3891  0.4155
 1781TIP3    H126758   3.311   0.695  16.186  1.6215 -0.9811  1.4277
 1781TIP3    H226759   3.304   0.706  16.035 -3.7193 -2.7206  1.3718
 1782TIP3   OH226760   0.738   4.329   5.799 -0.1495 -0.3094  0.5340
 1782TIP3    H126761   0.708   4.247   5.840  1.4984 -2.1075 -1.5856
 1782TIP3    H226762   0.684   4.337   5.720  0.9562 -0.4211 -0.2522
 1783TIP3   OH226763   3.538   2.885  11.702 -0.2510 -0.3016 -0.5378
 1783TIP3    H126764   3.599   2.950  11.667  0.2402  0.3423  1.4028
 1783TIP3    H226765   3.451   2.924  11.691  0.1437  1.9480  2.7905
 1784TIP3   OH226766   3.879   3.189  12.081  0.4827  0.2342 -0.0266
 1784TIP3    H126767   3.844   3.111  12.124 -0.9662  0.6089 -0.4637
 1784TIP3    H226768   3.930   3.233  12.149 -0.8389  0.2414  0.9993
 1785TIP3   OH226769   6.454   6.093   5.388 -0.3994  0.2095 -0.6417
 1785TIP3    H126770   6.521   6.028   5.364  0.9286  0.8122  1.1978
 1785TIP3    H226771   6.496   6.178   5.374 -0.6412  0.5984  0.7841
 1786TIP3   OH226772   1.249   6.272  11.930  0.2512  0.4036 -0.1216
 1786TIP3    H126773   1.253   6.196  11.870 -0.3716  1.2273 -1.2331
 1786TIP3    H226774   1.339   6.279  11.964  0.8844  0.4995 -1.7260
 1787TIP3   OH226775   0.224   4.604  14.972 -0.0395  0.0354 -0.1484
 1787TIP3    H126776   0.248   4.663  14.900 -2.3642  2.3914  0.8606
 1787TIP3    H226777   0.154   4.549  14.936 -0.3838  0.3981 -0.0337
 1788TIP3   OH226778   1.564   5.822  17.156 -0.2044 -0.6143  0.0986
 1788TIP3    H126779   1.596   5.740  17.193 -0.4509 -0.0175  1.7285
 1788TIP3    H226780   1.534   5.873  17.232 -0.5585  0.7679 -0.9182
 1789TIP3   OH226781   1.127   5.781   4.064  0.1024 -0.4970 -0.1523
 1789TIP3    H126782   1.169   5.777   4.150  0.5161  0.4193 -0.2992
 1789TIP3    H226783   1.084   5.697   4.055  0.6945 -0.9017  0.6293
 1790TIP3   OH226784   5.534   3.506  13.593  0.6563 -0.4164 -0.3613
 1790TIP3    H126785   5.474   3.511  13.668  1.7306 -0.2265  0.5115
 1790TIP3    H226786   5.478   3.483  13.519 -0.3028 -1.5309  0.6710
 1791TIP3   OH226787   6.283   0.648  16.470  0.4547 -0.1714  0.5606
 1791TIP3    H126788   6.225   0.695  16.410 -1.1401 -0.6871  1.6204
 1791TIP3    H226789   6.254   0.557  16.465  1.7386 -0.5972  0.5160
 1792TIP3   OH226790   2.617   1.606   3.289 -0.0277  0.2997  0.0402
 1792TIP3    H126791   2.586   1.531   3.238 -2.1184  1.9049 -1.2428
 1792TIP3    H226792   2.707   1.584   3.312  0.3100 -1.4654 -2.5538
 1793TIP3   OH226793   5.850   3.553  14.779 -0.2480 -0.8709  0.2865
 1793TIP3    H126794   5.911   3.614  14.740 -0.0521 -1.7024 -0.7503
 1793TIP3    H226795   5.768   3.567  14.732 -0.0241 -1.8445 -0.4331
 1794TIP3   OH226796   2.980   5.325  14.188  0.3048  0.2049  0.1439
 1794TIP3    H126797   2.909   5.272  14.223 -0.0431  0.6101  0.0549
 1794TIP3    H226798   2.974   5.315  14.093  0.8139 -0.3289  0.1581
 1795TIP3   OH226799   6.314   1.487  16.470 -0.1178  0.9842  0.2262
 1795TIP3    H126800   6.355   1.573  16.470 -2.0490  1.9649 -0.8166
 1795TIP3    H226801   6.220   1.505  16.467 -0.5483 -1.1245 -1.6582
 1796TIP3   OH226802   1.511   4.715   3.574 -0.1694  0.4118  0.4774
 1796TIP3    H126803   1.568   4.788   3.551  0.8829  0.0782  1.8565
 1796TIP3    H226804   1.476   4.738   3.660 -0.5019 -0.3229  0.5491
 1797TIP3   OH226805   2.080   3.258  14.365  0.0430 -0.1192  0.2961
 1797TIP3    H126806   2.124   3.342  14.381  0.0820 -0.1745  0.4770
 1797TIP3    H226807   2.111   3.232  14.278 -2.3786  1.5734 -1.1955
 1798TIP3   OH226808   6.786   5.447  13.740 -0.1845 -0.2066 -0.3756
 1798TIP3    H126809   6.876   5.415  13.747  0.7459  1.6113 -2.5752
 1798TIP3    H226810   6.784   5.523  13.799 -0.4399 -0.5611  0.0714
 1799TIP3   OH226811   2.448   0.093   0.839  0.1025 -0.1881 -0.3521
 1799TIP3    H126812   2.499   0.172   0.858 -1.1994  0.6733 -0.3412
 1799TIP3    H226813   2.514   0.025   0.824  1.2450  0.6631  0.6089
 1800TIP3   OH226814   2.777   1.089  13.433 -0.0012  0.5906  0.3040
 1800TIP3    H126815   2.823   1.145  13.495 -0.6608  0.2406  1.1448
 1800TIP3    H226816   2.704   1.053  13.484 -1.4341  1.4197 -1.0519
 1801TIP3   OH226817   6.589   1.711   0.074 -0.1615 -0.7534 -0.5301
 1801TIP3    H126818   6.603   1.802   0.102 -0.0353 -0.6395 -0.9562
 1801TIP3    H226819   6.642   1.660   0.135  2.0040 -0.3428 -1.9490
 1802TIP3   OH226820   0.780   1.775   4.765  0.1373 -0.7684  0.1539
 1802TIP3    H126821   0.833   1.701   4.737 -1.0657 -1.4328 -0.4701
 1802TIP3    H226822   0.804   1.846   4.705  0.9403 -0.7854  0.4444
 1803TIP3   OH226823   0.565   1.289   5.519 -0.2784 -0.2386  0.1025
 1803TIP3    H126824   0.594   1.340   5.595  2.8699  1.0000 -1.7701
 1803TIP3    H226825   0.484   1.332   5.491  0.4163  1.5270  0.6973
 1804TIP3   OH226826   6.517   4.548  11.537 -0.0833 -0.6618 -0.2208
 1804TIP3    H126827   6.444   4.504  11.494 -2.1597  1.0201  1.4040
 1804TIP3    H226828   6.562   4.479  11.584 -2.9095 -1.2813  1.8119
 1805TIP3   OH226829   2.247   6.203   2.896  1.1124 -0.2579  0.4075
 1805TIP3    H126830   2.333   6.221   2.934  1.2626 -0.7062  0.2988
 1805TIP3    H226831   2.187   6.263   2.940  1.3949 -0.2993  0.8546
 1806TIP3   OH226832   0.785   2.129   3.426 -0.4527 -0.1418 -0.2019
 1806TIP3    H126833   0.872   2.156   3.396 -0.5890  0.5364 -0.0178
 1806TIP3    H226834   0.727   2.199   3.396 -0.5204  0.8335  2.0486
 1807TIP3   OH226835   1.984   0.360   6.653 -0.0418  0.7853 -0.4053
 1807TIP3    H126836   2.018   0.430   6.598 -0.2753 -0.4422 -2.1733
 1807TIP3    H226837   2.017   0.279   6.614 -1.9980 -0.2399 -0.0624
 1808TIP3   OH226838   6.312   0.628   6.089 -0.3763 -0.1950 -0.5950
 1808TIP3    H126839   6.243   0.654   6.150 -1.0136  0.9066 -1.7271
 1808TIP3    H226840   6.334   0.538   6.114  0.4878  0.7026  2.2194
 1809TIP3   OH226841   4.408   0.637   6.723  0.1088  0.6134 -0.1673
 1809TIP3    H126842   4.481   0.659   6.665 -0.0352 -0.7688 -0.9211
 1809TIP3    H226843   4.428   0.548   6.753 -1.5208 -0.0143 -0.8339
 1810TIP3   OH226844   5.573   5.672   3.352 -0.2591 -0.0294 -0.0867
 1810TIP3    H126845   5.578   5.588   3.398  0.0399  0.4540  0.7751
 1810TIP3    H226846   5.488   5.708   3.376  0.2303  0.5926  0.7578
 1811TIP3   OH226847   3.574   4.563  14.316 -0.7523 -0.0454 -0.2105
 1811TIP3    H126848   3.517   4.640  14.313  0.9508  1.2740 -2.5916
 1811TIP3    H226849   3.602   4.558  14.408 -2.1523  1.1966  0.3233
 1812TIP3   OH226850   1.009   2.360  12.261  0.3282  0.1672  0.2212
 1812TIP3    H126851   0.984   2.399  12.178  1.6637  1.3114  0.3286
 1812TIP3    H226852   1.103   2.375  12.267  0.3753 -0.5516  1.6040
 1813TIP3   OH226853   3.451   1.877  11.900  0.0850 -0.5947  0.1865
 1813TIP3    H126854   3.446   1.857  11.994 -1.4395  1.0816  0.5229
 1813TIP3    H226855   3.387   1.817  11.860 -0.7804  0.0900  0.5139
 1814TIP3   OH226856   6.706   6.567  16.281  0.3763  0.7649 -0.2004
 1814TIP3    H126857   6.634   6.504  16.288 -0.6186  1.6920 -1.5054
 1814TIP3    H226858   6.682   6.637  16.342  2.0163 -0.5064  2.0704
 1815TIP3   OH226859   2.981   0.768  15.427  0.2103 -0.3226 -0.0170
 1815TIP3    H126860   2.919   0.840  15.417 -0.1195 -0.5727  0.2096
 1815TIP3    H226861   3.064   0.811  15.446 -0.5969 -0.0329  3.5398
 1816TIP3   OH226862   0.720   4.165  15.951 -0.6137 -0.5917 -0.0461
 1816TIP3    H126863   0.807   4.197  15.974  1.7465 -3.9323 -3.0797
 1816TIP3    H226864   0.674   4.242  15.918  1.4722  1.1592  0.8899
 1817TIP3   OH226865   0.933   5.226  11.238  0.2404  0.0782  0.0036
 1817TIP3    H126866   0.940   5.134  11.263  1.8170 -0.0775 -0.8614
 1817TIP3    H226867   0.898   5.225  11.149 -0.4747  0.3806  0.2654
 1818TIP3   OH226868   0.783   2.373   6.423 -0.6930  0.3881  0.4645
 1818TIP3    H126869   0.835   2.453   6.431  0.9924 -0.4661 -1.0970
 1818TIP3    H226870   0.842   2.303   6.451 -0.9442 -0.6168 -1.3492
 1819TIP3   OH226871   2.265   6.597  12.372  0.3924 -0.0306  0.3898
 1819TIP3    H126872   2.212   6.524  12.403 -0.2274  0.5378  0.6850
 1819TIP3    H226873   2.202   6.666  12.353  0.8646  0.0208 -1.0694
 1820TIP3   OH226874   0.478   2.867   5.633  0.0178  0.1030  0.0177
 1820TIP3    H126875   0.536   2.939   5.659  0.0295  0.0964  0.0099
 1820TIP3    H226876   0.521   2.789   5.667 -0.4582  0.1845  0.8223
 1821TIP3   OH226877   5.215   3.079   2.367  0.1751 -0.2535  0.3631
 1821TIP3    H126878   5.217   3.015   2.295 -0.9559  1.2130 -1.0581
 1821TIP3    H226879   5.136   3.058   2.416 -0.8404  0.6868 -0.7919
 1822TIP3   OH226880   3.795   1.576   4.350  0.1966  0.0869  0.3680
 1822TIP3    H126881   3.791   1.561   4.255  0.5597  0.9613  0.2061
 1822TIP3    H226882   3.710   1.547   4.382 -0.3250  0.7257 -0.3768
 1823TIP3   OH226883   4.073   0.062  13.452 -0.2004  0.4725 -0.3104
 1823TIP3    H126884   4.041   0.103  13.532  1.7654  0.5943  0.4609
 1823TIP3    H226885   4.104  -0.024  13.479  1.9680  1.1039 -0.5497
 1824TIP3   OH226886   1.557   4.316   0.619 -0.0141 -0.5551 -0.2693
 1824TIP3    H126887   1.559   4.390   0.559 -0.1929  0.3268  0.8005
 1824TIP3    H226888   1.638   4.268   0.600 -1.1793 -1.7175 -2.9307
 1825TIP3   OH226889   1.725   5.025   2.260  0.0051  0.3480 -0.2868
 1825TIP3    H126890   1.698   4.935   2.241  1.6514 -0.6204  1.6316
 1825TIP3    H226891   1.647   5.066   2.298 -1.0444  0.0753 -2.0107
 1826TIP3   OH226892   0.088   4.306  11.124 -0.1461 -0.2823 -0.0492
 1826TIP3    H126893   0.040   4.351  11.194 -0.6226 -0.1815 -0.4296
 1826TIP3    H226894   0.047   4.220  11.119 -0.0908 -0.3013 -0.1728
 1827TIP3   OH226895   1.605   2.962  12.706  0.4186  0.2055  0.8594
 1827TIP3    H126896   1.655   2.987  12.628 -1.0391  0.2134 -0.1234
 1827TIP3    H226897   1.599   3.042  12.758 -1.5404  1.2043 -0.7506
 1828TIP3   OH226898   3.928   3.579   4.143 -0.0661  0.0383 -0.6403
 1828TIP3    H126899   3.862   3.569   4.074  0.0320 -1.9743 -0.5056
 1828TIP3    H226900   3.880   3.560   4.224  0.8294 -2.4914 -0.6261
 1829TIP3   OH226901   0.019   6.607   3.654 -0.8139  1.0617 -0.1979
 1829TIP3    H126902   0.022   6.699   3.630 -0.5491  1.2478  0.5203
 1829TIP3    H226903   0.104   6.572   3.628  0.0605  1.6001  1.6962
 1830TIP3   OH226904   4.590   5.132  12.311  0.2598 -0.0407  0.1607
 1830TIP3    H126905   4.541   5.141  12.229  1.5059 -2.5100 -0.9574
 1830TIP3    H226906   4.615   5.222  12.334 -1.9290  0.9363 -0.9742
 1831TIP3   OH226907   5.068   1.465   4.176  0.1068 -0.0123  0.1219
 1831TIP3    H126908   5.155   1.426   4.179 -0.9202 -2.6577 -1.3363
 1831TIP3    H226909   5.061   1.501   4.087 -0.9487 -1.5923 -0.4645
 1832TIP3   OH226910   1.209   6.774  12.497  0.2948 -1.2037 -0.2963
 1832TIP3    H126911   1.189   6.843  12.560  0.9641 -0.3986 -0.9384
 1832TIP3    H226912   1.244   6.703  12.551  0.2566 -0.7775  0.3102
 1833TIP3   OH226913   5.170   6.592   0.112 -0.7257 -0.1355 -0.0113
 1833TIP3    H126914   5.115   6.577   0.189 -1.0663  2.7288  0.4382
 1833TIP3    H226915   5.256   6.614   0.148 -0.6662  0.3864 -0.4617
 1834TIP3   OH226916   0.991   0.618   5.391  0.3811  0.0795  0.1272
 1834TIP3    H126917   0.951   0.690   5.439 -1.4782 -0.1335 -1.0166
 1834TIP3    H226918   0.931   0.545   5.402  0.6596 -0.3938 -1.2760
 1835TIP3   OH226919   2.621   1.066  11.613 -0.1916  0.3079 -0.4698
 1835TIP3    H126920   2.668   1.142  11.646  1.1494  0.8972 -3.4172
 1835TIP3    H226921   2.593   1.090  11.525 -2.6772 -1.4758 -0.3140
 1836TIP3   OH226922   1.769   5.813   2.924 -0.1004  0.0521 -0.4353
 1836TIP3    H126923   1.709   5.846   2.992  2.3270  1.7285  1.0543
 1836TIP3    H226924   1.794   5.726   2.955 -1.2794 -0.4458 -0.8006
 1837TIP3   OH226925   0.709   5.524   4.630  0.0038 -0.5151  0.3424
 1837TIP3    H126926   0.657   5.463   4.682 -0.0992 -0.4924  0.2670
 1837TIP3    H226927   0.674   5.515   4.541 -2.0501  1.8294  0.8261
 1838TIP3   OH226928   2.889   0.690   1.972 -0.7080  0.0979  0.1001
 1838TIP3    H126929   2.887   0.594   1.971 -2.7503  0.0891  0.8734
 1838TIP3    H226930   2.824   0.715   2.038  0.5637  2.0284  0.7202
 1839TIP3   OH226931   3.593   5.866  14.871  0.0218 -0.1049 -0.3710
 1839TIP3    H126932   3.601   5.809  14.948  1.3934  1.3410  0.6109
 1839TIP3    H226933   3.513   5.835  14.827 -0.5012 -1.3304  1.3232
 1840TIP3   OH226934   5.957   0.587   1.056 -0.4016 -0.2034  0.4599
 1840TIP3    H126935   5.911   0.580   1.140 -1.3846  1.5565  0.1173
 1840TIP3    H226936   6.048   0.603   1.080 -0.6459  0.1260  1.2127
 1841TIP3   OH226937   1.709   1.745   4.754 -0.2678  0.0375 -0.4693
 1841TIP3    H126938   1.657   1.761   4.675  2.6991 -0.8058 -2.7626
 1841TIP3    H226939   1.763   1.823   4.764  0.3888 -0.4486 -0.1360
 1842TIP3   OH226940   5.969   0.576  11.768 -0.3502 -0.0663 -0.0069
 1842TIP3    H126941   6.045   0.631  11.748 -0.0354  0.6925  2.9127
 1842TIP3    H226942   5.908   0.592  11.696  0.7723  2.1617 -0.5282
 1843TIP3   OH226943   1.865   4.981   2.770 -0.7652 -0.3689  0.1828
 1843TIP3    H126944   1.843   4.970   2.862  0.7191  2.3104  0.9552
 1843TIP3    H226945   1.914   4.902   2.747  0.9970 -0.0171  2.4353
 1844TIP3   OH226946   4.356   5.831  12.206  0.0410  0.5201  0.2015
 1844TIP3    H126947   4.297   5.802  12.276  1.3455 -0.2490  1.0322
 1844TIP3    H226948   4.338   5.924  12.195 -2.2941  0.0463 -0.5666
 1845TIP3   OH226949   1.143   4.943  13.942  0.2080 -1.1312 -0.1727
 1845TIP3    H126950   1.050   4.930  13.926 -0.8905  1.9668  2.5708
 1845TIP3    H226951   1.162   4.890  14.020  0.1633 -0.1120  0.5451
 1846TIP3   OH226952   4.799   1.721  11.839 -0.1565 -0.1754 -0.3395
 1846TIP3    H126953   4.853   1.799  11.828 -0.3787 -0.1575 -1.4264
 1846TIP3    H226954   4.808   1.674  11.756 -0.6671 -0.9045  0.0052
 1847TIP3   OH226955   4.530   4.045   2.385  0.3556 -0.4876  0.1197
 1847TIP3    H126956   4.452   4.057   2.331  0.4846  0.1481  0.0718
 1847TIP3    H226957   4.603   4.051   2.323  0.4055 -3.6260 -0.3005
 1848TIP3   OH226958   3.743   0.864   6.320  0.8139  0.0099  0.4622
 1848TIP3    H126959   3.795   0.927   6.270  1.3297 -0.3317  0.5525
 1848TIP3    H226960   3.780   0.779   6.295  0.5208 -0.2145  0.7934
 1849TIP3   OH226961   3.250   0.520  14.650  0.0182  0.2768 -0.0509
 1849TIP3    H126962   3.254   0.614  14.632  0.6196  0.5896  1.5667
 1849TIP3    H226963   3.207   0.514  14.735 -0.3848 -0.9555 -0.3189
 1850TIP3   OH226964   3.607   0.634   0.811 -0.5843 -0.1910  0.6654
 1850TIP3    H126965   3.652   0.651   0.894 -1.1133  1.3125  0.6673
 1850TIP3    H226966   3.612   0.539   0.801 -1.5468 -0.5622  3.0061
 1851TIP3   OH226967   5.213   1.983  12.386  0.6240 -0.0278 -0.0044
 1851TIP3    H126968   5.192   2.027  12.468 -1.4397  1.1014 -1.0521
 1851TIP3    H226969   5.280   1.919  12.409  1.6716  1.7281  2.1260
 1852TIP3   OH226970   4.065   1.696   5.331 -0.0202 -0.4869 -0.2285
 1852TIP3    H126971   4.041   1.767   5.271 -0.6359 -1.5166 -1.2295
 1852TIP3    H226972   3.985   1.678   5.381  0.5282  0.4669  1.0510
 1853TIP3   OH226973   1.968   2.407   2.531  0.5187 -0.3581 -0.0663
 1853TIP3    H126974   2.062   2.417   2.512  0.3534 -0.9738 -1.2177
 1853TIP3    H226975   1.961   2.322   2.575  0.4837 -0.3347 -0.0256
 1854TIP3   OH226976   6.394   4.363  15.323 -0.4521  0.3841  0.5862
 1854TIP3    H126977   6.337   4.411  15.263 -0.8919 -0.0711  0.6344
 1854TIP3    H226978   6.482   4.380  15.291 -0.7077 -0.4874 -0.6869
 1855TIP3   OH226979   0.234   2.416  11.761  0.0376 -0.0684  0.4490
 1855TIP3    H126980   0.327   2.405  11.743 -0.0967 -0.5042 -0.0070
 1855TIP3    H226981   0.227   2.407  11.856  0.9830  3.9235  1.0596
 1856TIP3   OH226982   4.353   4.337   2.359  0.4309  0.4603  0.4879
 1856TIP3    H126983   4.435   4.313   2.318  0.1231 -0.6968  0.5235
 1856TIP3    H226984   4.293   4.266   2.337 -0.4013  1.0050  0.9317
 1857TIP3   OH226985   5.065   4.534  14.470  0.6055 -0.1660 -0.0286
 1857TIP3    H126986   5.020   4.606  14.515  1.1047  0.3253 -0.3023
 1857TIP3    H226987   5.118   4.577  14.403  0.9974 -0.7832 -0.1216
 1858TIP3   OH226988   1.366   1.233  11.381  0.2048  0.1624 -0.4190
 1858TIP3    H126989   1.306   1.280  11.439 -0.3686 -0.1724 -0.7267
 1858TIP3    H226990   1.365   1.284  11.300  0.1948  0.0620 -0.4825
 1859TIP3   OH226991   5.057   2.799   3.215 -0.2743 -0.0079 -0.0910
 1859TIP3    H126992   5.123   2.853   3.260  0.8013 -1.4856  0.2025
 1859TIP3    H226993   5.083   2.802   3.123 -0.7241  0.6436 -0.2019
 1860TIP3   OH226994   1.462   1.307  17.037 -0.6471  0.2726  0.5592
 1860TIP3    H126995   1.434   1.313  16.946 -3.7727  0.9964  1.4249
 1860TIP3    H226996   1.544   1.356  17.041 -0.2050 -0.1674 -1.8994
 1861TIP3   OH226997   4.186   4.458   4.401  0.2620 -0.1341 -0.1883
 1861TIP3    H126998   4.173   4.389   4.466 -2.3398  1.6151  1.3445
 1861TIP3    H226999   4.267   4.501   4.427  0.0492 -0.4091  0.9659
 1862TIP3   OH227000   3.528   4.073  12.965 -0.2267  0.4846 -0.0189
 1862TIP3    H127001   3.522   3.979  12.979 -0.7035  0.9269  3.6304
 1862TIP3    H227002   3.620   4.089  12.944 -0.0653 -0.7117 -0.2680
 1863TIP3   OH227003   2.357   6.482   5.560 -0.3732  0.0142 -0.6429
 1863TIP3    H127004   2.267   6.453   5.574  0.0656 -1.4325 -0.6847
 1863TIP3    H227005   2.356   6.525   5.475 -0.9197 -0.4359 -0.8663
 1864TIP3   OH227006   0.066   5.070   2.586 -0.0413 -0.2913 -0.5292
 1864TIP3    H127007  -0.026   5.041   2.583 -0.4424  0.5638  1.4906
 1864TIP3    H227008   0.068   5.149   2.533 -0.6539  0.0899  0.0050
 1865TIP3   OH227009   1.919   6.058   2.879 -0.5121  0.0752  0.0368
 1865TIP3    H127010   2.004   6.022   2.855 -0.0218  0.8395  0.5501
 1865TIP3    H227011   1.877   5.989   2.930 -0.0587 -0.1795  0.0723
 1866TIP3   OH227012   2.127   0.561  10.322  0.1207 -0.6533 -0.7142
 1866TIP3    H127013   2.039   0.550  10.285  0.1688  0.9794 -1.3898
 1866TIP3    H227014   2.148   0.475  10.358 -2.3665 -0.7048  0.8687
 1867TIP3   OH227015   6.652   6.375  15.274 -0.4952 -1.0127 -0.6241
 1867TIP3    H127016   6.583   6.438  15.251 -2.9417 -2.5058  1.8801
 1867TIP3    H227017   6.659   6.318  15.198 -0.4950  0.3873 -1.7182
 1868TIP3   OH227018   0.080   5.482   0.375 -0.0929 -0.3011  0.0879
 1868TIP3    H127019   0.163   5.441   0.350  0.1604  0.1118  0.2472
 1868TIP3    H227020   0.105   5.560   0.424 -0.5700 -0.9311  1.3909
 1869TIP3   OH227021   2.915   1.209   1.573  0.0337  0.0120  0.0508
 1869TIP3    H127022   2.846   1.242   1.631 -0.7304 -0.2793 -0.6717
 1869TIP3    H227023   2.886   1.121   1.550  0.8078 -0.2271 -0.0213
 1870TIP3   OH227024   5.276   5.933  13.756 -0.1836  0.2817 -0.1569
 1870TIP3    H127025   5.315   5.857  13.800 -2.0590 -0.1208  0.9005
 1870TIP3    H227026   5.244   5.899  13.673 -0.8924 -0.0869  0.2536
 1871TIP3   OH227027   0.527   5.612  11.213  0.0469 -0.8727  0.2799
 1871TIP3    H127028   0.593   5.615  11.283  1.3033  2.0738 -0.8622
 1871TIP3    H227029   0.548   5.533  11.164  1.0656 -1.3914  1.4708
 1872TIP3   OH227030   2.085   5.228   2.200  0.3142  0.0317 -0.2448
 1872TIP3    H127031   2.058   5.311   2.240 -0.9284 -0.1681 -0.6384
 1872TIP3    H227032   2.007   5.196   2.154  0.6580 -1.5284  0.1826
 1873TIP3   OH227033   1.089   0.422  16.462  0.1705 -0.2811 -0.5183
 1873TIP3    H127034   1.040   0.344  16.438  0.2039 -0.9132  1.2587
 1873TIP3    H227035   1.172   0.388  16.495  0.5227  0.5694 -0.5010
 1874TIP3   OH227036   5.497   3.350  15.265  0.1404 -0.1588 -0.1414
 1874TIP3    H127037   5.438   3.284  15.230 -0.7136  0.6140 -0.2078
 1874TIP3    H227038   5.558   3.369  15.194 -1.7370  1.5922 -1.3676
 1875TIP3   OH227039   1.502   2.174  15.837  0.3792  0.4270 -0.3721
 1875TIP3    H127040   1.471   2.165  15.927 -2.3110 -0.2923 -1.2848
 1875TIP3    H227041   1.574   2.110  15.830 -0.4425 -0.6902  0.8405
 1876TIP3   OH227042   2.201   5.492   3.211  0.8801  0.3148 -0.0762
 1876TIP3    H127043   2.114   5.533   3.222  1.0554  0.7608 -0.3208
 1876TIP3    H227044   2.248   5.552   3.154  1.5049  0.2972  0.4152
 1877TIP3   OH227045   1.090   0.529   3.878  0.1125 -0.0241  0.0353
 1877TIP3    H127046   1.010   0.555   3.925  0.5105  0.1541  0.6192
 1877TIP3    H227047   1.062   0.455   3.824 -0.2867 -0.4100  0.7606
 1878TIP3   OH227048   4.121   5.436  10.776  0.1375 -0.4535  0.6937
 1878TIP3    H127049   4.148   5.527  10.793  0.7186 -0.8190  1.7883
 1878TIP3    H227050   4.191   5.400  10.721 -1.0349  0.2938 -1.4412
 1879TIP3   OH227051   0.814   1.351   1.134 -0.1886 -0.1235  0.0993
 1879TIP3    H127052   0.756   1.422   1.162  1.1869  0.1453  2.6370
 1879TIP3    H227053   0.758   1.293   1.083 -1.8040  1.8364 -0.5074
 1880TIP3   OH227054   0.790   4.695  10.872 -0.4672 -0.0703 -0.4695
 1880TIP3    H127055   0.873   4.709  10.827 -0.7307 -0.6161 -1.1427
 1880TIP3    H227056   0.725   4.733  10.813 -0.7960 -0.5660 -0.4263
 1881TIP3   OH227057   6.593   0.054  11.431 -0.2331 -0.0068 -0.3040
 1881TIP3    H127058   6.648   0.132  11.435  0.4213 -0.4759  0.2157
 1881TIP3    H227059   6.592   0.029  11.339  1.1026 -0.4461 -0.2206
 1882TIP3   OH227060   4.272   4.815  14.706  0.2806  0.2518  0.2362
 1882TIP3    H127061   4.222   4.857  14.636 -1.3409 -2.7328 -0.5805
 1882TIP3    H227062   4.207   4.789  14.771  0.9221 -2.0379  0.0644
 1883TIP3   OH227063   2.446   2.035  12.967 -1.0948  0.0548  0.3787
 1883TIP3    H127064   2.371   1.991  12.926 -1.1543 -0.0640  0.6120
 1883TIP3    H227065   2.521   2.003  12.918 -1.2428  0.5845 -0.1996
 1884TIP3   OH227066   6.336   6.278   1.926  0.7132 -0.1476 -0.3113
 1884TIP3    H127067   6.241   6.294   1.928  0.2872 -2.2476 -1.4062
 1884TIP3    H227068   6.352   6.221   2.001  1.7181  2.5933  1.7497
 1885TIP3   OH227069   5.876   5.112  13.771  0.4334  0.0711  0.1102
 1885TIP3    H127070   5.818   5.102  13.846  0.4920 -0.0857  0.1338
 1885TIP3    H227071   5.862   5.202  13.742  0.2755  0.0737  0.1971
 1886TIP3   OH227072   6.639   6.268  15.746  0.3526 -0.0891 -0.1740
 1886TIP3    H127073   6.669   6.357  15.731  0.8874  0.0644  1.6225
 1886TIP3    H227074   6.553   6.278  15.786  0.9055 -0.3167  1.1201
 1887TIP3   OH227075   2.165   4.940  14.838  0.1540  0.9411  0.1395
 1887TIP3    H127076   2.231   4.958  14.905  1.2574 -1.2442 -0.2547
 1887TIP3    H227077   2.208   4.878  14.779 -1.6251  0.9414 -1.2232
 1888TIP3   OH227078   1.113   4.793  16.351 -0.1472  0.4012  0.0551
 1888TIP3    H127079   1.143   4.883  16.361  1.6189 -0.1479  0.1920
 1888TIP3    H227080   1.098   4.762  16.440 -0.9667  0.6201 -0.0051
 1889TIP3   OH227081   0.418   4.975   1.161  0.8123  0.0364  0.3408
 1889TIP3    H127082   0.447   5.060   1.130  0.9649 -0.2700 -0.3743
 1889TIP3    H227083   0.491   4.942   1.214  2.2683 -1.1218 -2.1640
 1890TIP3   OH227084   1.336   3.953  11.629 -0.1116  0.3971 -0.6563
 1890TIP3    H127085   1.305   3.910  11.549 -0.1209  0.0478 -0.4701
 1890TIP3    H227086   1.259   3.957  11.686  0.2028 -0.6236 -0.1281
 1891TIP3   OH227087   5.540   2.987   5.530 -0.4400 -0.3218 -0.4492
 1891TIP3    H127088   5.564   3.061   5.586 -2.1310  1.1854 -1.5740
 1891TIP3    H227089   5.448   3.003   5.509 -1.4465 -3.7351  0.6865
 1892TIP3   OH227090   6.220   2.319   3.853 -0.0183  0.3247  0.2018
 1892TIP3    H127091   6.272   2.399   3.863 -0.9090  0.8681  0.6311
 1892TIP3    H227092   6.147   2.345   3.797  0.2961 -0.4990 -0.6114
 1893TIP3   OH227093   5.660   3.841   1.246  0.2035  0.2831  0.2035
 1893TIP3    H127094   5.631   3.780   1.178  1.7571 -0.7163  0.3818
 1893TIP3    H227095   5.578   3.878   1.282 -0.6757 -0.0010 -1.4186
 1894TIP3   OH227096   0.061   2.854   5.393 -0.1598 -0.6690 -0.0333
 1894TIP3    H127097   0.097   2.927   5.343  1.8822 -1.4231  0.1979
 1894TIP3    H227098   0.134   2.827   5.449 -1.6421 -1.3206  1.6742
 1895TIP3   OH227099   3.125   1.662   2.427  0.6264 -0.2107 -0.0682
 1895TIP3    H127100   3.129   1.571   2.456  1.2807 -0.7102 -1.6336
 1895TIP3    H227101   3.036   1.690   2.450 -0.1286 -1.7395 -0.9377
 1896TIP3   OH227102   0.986   2.444  13.052 -0.1440  0.5409  0.0347
 1896TIP3    H127103   0.988   2.451  12.957 -1.7512  0.5593 -0.0282
 1896TIP3    H227104   0.940   2.522  13.081  0.9505  0.8882  0.8958
 1897TIP3   OH227105   3.304   0.101   2.653  0.2092  0.1731 -0.1992
 1897TIP3    H127106   3.229   0.074   2.601  0.1655  0.2224 -0.1629
 1897TIP3    H227107   3.343   0.173   2.603 -0.4030  0.8734  0.3007
 1898TIP3   OH227108   4.173   0.038  13.727 -0.1187 -0.2132  0.3454
 1898TIP3    H127109   4.221  -0.034  13.768 -0.9113 -0.3877  1.0197
 1898TIP3    H227110   4.090   0.041  13.776 -0.5776  0.3944 -0.4524
 1899TIP3   OH227111   1.759   1.992   2.572 -0.3003  0.7744 -0.4301
 1899TIP3    H127112   1.693   2.060   2.589  0.3063  1.5813 -1.1817
 1899TIP3    H227113   1.721   1.940   2.502 -1.3150 -0.4695  0.9834
 1900TIP3   OH227114   3.912   1.689  15.840 -0.1299  0.4178  0.0098
 1900TIP3    H127115   3.960   1.760  15.798 -0.9435 -0.4499 -2.5293
 1900TIP3    H227116   3.821   1.719  15.842 -0.6415 -0.8508 -1.9506
 1901TIP3   OH227117   5.337   5.639  17.188  0.4872 -0.2916 -0.3935
 1901TIP3    H127118   5.402   5.695  17.145  0.9703 -0.2339  0.3821
 1901TIP3    H227119   5.385   5.559  17.209  0.5494  0.0539  0.8923
 1902TIP3   OH227120   5.883   0.157  12.771  0.2988 -0.3656  0.5497
 1902TIP3    H127121   5.891   0.253  12.769  0.7165 -0.3851  0.9953
 1902TIP3    H227122   5.797   0.139  12.733 -1.0098  0.3497  2.9787
 1903TIP3   OH227123   1.177   1.942  11.864  0.8483 -0.1367  0.0869
 1903TIP3    H127124   1.222   1.994  11.931 -1.3418  0.4765  1.1819
 1903TIP3    H227125   1.084   1.965  11.875 -0.1933 -3.7951  0.2061
 1904TIP3   OH227126   4.844   4.023   1.797  0.5941  0.0144  0.2010
 1904TIP3    H127127   4.761   3.996   1.836 -1.0982  2.1792 -1.6251
 1904TIP3    H227128   4.871   4.100   1.847  0.3665  0.5842 -0.5430
 1905TIP3   OH227129   2.866   4.929   0.905 -0.2745  0.6133 -0.4433
 1905TIP3    H127130   2.818   4.996   0.955 -1.4025  0.7507 -1.6602
 1905TIP3    H227131   2.832   4.846   0.937 -1.2118  0.7070 -1.1528
 1906TIP3   OH227132   5.698   4.171  13.057  0.0581  0.3634  1.0181
 1906TIP3    H127133   5.770   4.234  13.049  0.8953 -0.7712 -1.2319
 1906TIP3    H227134   5.620   4.221  13.035  0.6542  0.7496 -0.3116
 1907TIP3   OH227135   3.654   4.463  13.900 -0.5005  0.3606 -0.5113
 1907TIP3    H127136   3.701   4.446  13.818  0.6064  0.0327  0.1721
 1907TIP3    H227137   3.604   4.383  13.915  0.3245 -0.1094 -0.2009
 1908TIP3   OH227138   0.222   3.480   1.477 -0.3049 -0.4511 -0.4160
 1908TIP3    H127139   0.153   3.415   1.460 -1.2594  0.5588 -0.4775
 1908TIP3    H227140   0.242   3.468   1.570  0.3440 -1.5884 -0.6765
 1909TIP3   OH227141   3.317   2.524   6.263 -0.0756 -0.1063 -0.1209
 1909TIP3    H127142   3.386   2.584   6.290 -0.1201 -0.6430  1.2826
 1909TIP3    H227143   3.236   2.576   6.270 -0.0086 -0.0260  0.0535
 1910TIP3   OH227144   2.898   0.622  16.633 -0.0344 -0.2584 -0.2072
 1910TIP3    H127145   2.820   0.584  16.592  0.4833 -2.3422  0.6301
 1910TIP3    H227146   2.885   0.609  16.727  2.6318 -3.6468 -0.1147
 1911TIP3   OH227147   3.201   0.786  17.226 -0.5640 -0.4927 -0.6438
 1911TIP3    H127148   3.139   0.716  17.209  0.1692 -1.2121 -0.4232
 1911TIP3    H227149   3.285   0.742  17.235 -0.1167  0.3982 -0.3211
 1912TIP3   OH227150   1.224   1.920  10.436  0.7366  0.0031 -0.6842
 1912TIP3    H127151   1.302   1.973  10.419 -0.8742  3.0876  0.8211
 1912TIP3    H227152   1.164   1.940  10.365  0.6026 -0.9846 -0.8737
 1913TIP3   OH227153   6.455   5.729  14.209  0.2300 -0.9454  1.0057
 1913TIP3    H127154   6.513   5.658  14.181  2.0106  0.7746  0.0813
 1913TIP3    H227155   6.507   5.808  14.195 -1.5343  0.5154  2.3935
 1914TIP3   OH227156   0.871   2.669   1.651 -0.3352 -0.0717  0.5614
 1914TIP3    H127157   0.966   2.656   1.661 -0.2535  0.8047  1.0299
 1914TIP3    H227158   0.843   2.704   1.735 -0.9409  0.4183  0.1572
 1915TIP3   OH227159   6.721   2.454  15.377  0.0056 -0.4887  0.2859
 1915TIP3    H127160   6.631   2.484  15.393  0.4388  0.1548  1.5568
 1915TIP3    H227161   6.776   2.527  15.402  0.9354 -1.1641  0.2709
 1916TIP3   OH227162   6.313   3.319  10.665 -0.3833  0.1580  0.0137
 1916TIP3    H127163   6.340   3.228  10.679  0.2449  0.3997  0.3911
 1916TIP3    H227164   6.387   3.360  10.621 -1.2869  0.0962 -1.6553
 1917TIP3   OH227165   5.903   5.370  13.748  0.0614  0.1315 -0.1652
 1917TIP3    H127166   5.929   5.394  13.659 -1.4536  1.6117 -0.2673
 1917TIP3    H227167   5.981   5.387  13.801  0.5205  0.6798 -0.9968
 1918TIP3   OH227168   1.982   6.624   2.896 -0.6506  0.4925 -0.2124
 1918TIP3    H127169   1.923   6.678   2.844 -2.1621 -2.9047 -2.3482
 1918TIP3    H227170   2.010   6.555   2.837  1.6208 -0.8119  2.1655
 1919TIP3   OH227171   1.782   0.286  13.412  0.0230 -0.0960  0.0625
 1919TIP3    H127172   1.712   0.279  13.347  0.4555 -1.7976 -0.2870
 1919TIP3    H227173   1.750   0.235  13.487  0.9530 -1.1286 -0.2041
 1920TIP3   OH227174   1.160   3.732   3.022  0.2459  0.1986 -0.8363
 1920TIP3    H127175   1.201   3.758   3.104  1.2587 -0.8728 -0.9775
 1920TIP3    H227176   1.173   3.637   3.017 -1.8404 -0.1207 -1.1291
 1921TIP3   OH227177   2.093   5.558  14.251  0.1958  0.8356 -0.4595
 1921TIP3    H127178   2.021   5.597  14.301 -1.7393 -2.7289 -0.1111
 1921TIP3    H227179   2.084   5.593  14.163 -1.0207  1.6068 -0.0507
 1922TIP3   OH227180   3.103   3.129   0.955  0.0967  0.4055 -0.9419
 1922TIP3    H127181   3.135   3.191   0.889  1.6012  0.0755 -0.5611
 1922TIP3    H227182   3.032   3.175   1.000 -0.9640  0.6488 -2.7493
 1923TIP3   OH227183   2.871   5.168  12.038  0.0613 -0.9062 -0.6000
 1923TIP3    H127184   2.924   5.091  12.017  0.8398 -0.0834 -1.7173
 1923TIP3    H227185   2.781   5.138  12.026  0.3907 -1.3020 -2.3594
 1924TIP3   OH227186   3.558   3.637  12.556  0.1418  0.2158  0.2532
 1924TIP3    H127187   3.643   3.658  12.518  0.3243 -0.4317  0.2968
 1924TIP3    H227188   3.518   3.576  12.493 -0.1091  0.1805  0.4433
 1925TIP3   OH227189   4.928   3.723   3.850 -0.1657 -0.1905  0.5274
 1925TIP3    H127190   4.928   3.691   3.760 -0.4795  1.8491 -0.2743
 1925TIP3    H227191   4.858   3.789   3.852 -0.2501 -0.2883  2.3027
 1926TIP3   OH227192   0.528   3.900   1.984  0.3481 -0.1780  0.5776
 1926TIP3    H127193   0.495   3.840   1.918  0.4983  0.2990  0.0634
 1926TIP3    H227194   0.452   3.917   2.041 -0.1027  0.3262 -0.1611
 1927TIP3   OH227195   6.322   1.824  11.333  0.4295  0.0087  0.7427
 1927TIP3    H127196   6.251   1.784  11.282  2.1640 -2.1634 -0.0984
 1927TIP3    H227197   6.394   1.833  11.272  0.7202  3.0209  1.3573
 1928TIP3   OH227198   5.398   0.085   1.376 -0.3147  0.4586 -0.4825
 1928TIP3    H127199   5.478   0.044   1.342 -1.1633 -3.2867  1.4820
 1928TIP3    H227200   5.327   0.040   1.329 -1.3025  0.4836  0.9447
 1929TIP3   OH227201   5.436   2.746  16.801  0.4153  0.1639 -0.3743
 1929TIP3    H127202   5.461   2.831  16.837  2.8057 -0.2974 -0.7823
 1929TIP3    H227203   5.517   2.696  16.798 -1.0604 -2.5505  0.8252
 1930TIP3   OH227204   5.190   6.183   2.786  0.7853 -0.3440  0.0036
 1930TIP3    H127205   5.122   6.181   2.719 -0.1248  0.1672  0.8876
 1930TIP3    H227206   5.253   6.247   2.754 -0.1038  0.5815  0.0508
 1931TIP3   OH227207   2.413   0.359   0.020 -0.4378  0.9754  0.3046
 1931TIP3    H127208   2.407   0.290  -0.046 -0.6661 -0.3404  1.6503
 1931TIP3    H227209   2.463   0.429  -0.023  2.0710 -1.0377 -0.2752
 1932TIP3   OH227210   6.190   4.003  15.206  0.0052 -0.6445 -0.0440
 1932TIP3    H127211   6.274   4.013  15.161 -0.0208 -0.6240 -0.0867
 1932TIP3    H227212   6.143   3.937  15.155  0.5919 -1.7635  0.8112
 1933TIP3   OH227213   5.309   2.394  11.924  0.3863  0.0158  0.3661
 1933TIP3    H127214   5.316   2.341  12.003 -0.1131 -2.1546 -0.9585
 1933TIP3    H227215   5.355   2.343  11.857 -0.6443  0.9634 -1.1226
 1934TIP3   OH227216   6.101   4.207  14.680  0.0933  0.6208  0.0939
 1934TIP3    H127217   6.062   4.167  14.602  1.1376  0.0921 -0.1690
 1934TIP3    H227218   6.164   4.271  14.646 -0.9240  1.9090  0.5099
 1935TIP3   OH227219   5.038   2.189   4.582  0.0255 -0.1975  0.3593
 1935TIP3    H127220   5.078   2.217   4.665  2.4272 -1.5209 -0.2525
 1935TIP3    H227221   4.964   2.134   4.608 -0.2072  0.6516  1.5862
 1936TIP3   OH227222   2.642   2.536   0.510  0.1273 -0.4488 -0.5693
 1936TIP3    H127223   2.624   2.626   0.484 -1.6773 -0.6813 -0.2375
 1936TIP3    H227224   2.605   2.483   0.439 -0.4783 -0.9579  0.1065
 1937TIP3   OH227225   2.245   4.437  13.960 -0.1432  0.2910 -0.1712
 1937TIP3    H127226   2.300   4.368  13.923  1.8123  2.0810 -0.8597
 1937TIP3    H227227   2.182   4.456  13.891 -1.9406 -1.9670  0.7233
 1938TIP3   OH227228   0.112   5.567   4.888  0.0773  0.2229  0.5479
 1938TIP3    H127229   0.025   5.568   4.928 -0.6414  1.0030 -0.9508
 1938TIP3    H227230   0.158   5.641   4.929 -0.5498  0.8367  0.1721
 1939TIP3   OH227231   1.182   1.972   3.127  0.3332 -0.2298 -0.1848
 1939TIP3    H127232   1.261   1.967   3.073 -1.2061 -2.5506 -2.4510
 1939TIP3    H227233   1.137   1.889   3.111 -2.0431  0.5385  1.8989
 1940TIP3   OH227234   5.799   5.855   1.482  0.4678 -0.0638  0.3433
 1940TIP3    H127235   5.790   5.919   1.552 -3.5380  0.3735 -0.3262
 1940TIP3    H227236   5.755   5.895   1.407 -1.0269 -2.9941 -0.5006
 1941TIP3   OH227237   5.670   0.798   6.311  0.0868  0.2593 -0.0521
 1941TIP3    H127238   5.693   0.876   6.360  1.9490 -0.4421  0.2661
 1941TIP3    H227239   5.752   0.747   6.306 -0.2316 -0.1441 -3.0390
 1942TIP3   OH227240   6.661   5.686   1.484 -0.0891 -0.2205 -0.2309
 1942TIP3    H127241   6.670   5.592   1.500 -0.9873 -0.4709 -1.0823
 1942TIP3    H227242   6.744   5.724   1.514  1.6274 -1.6569 -2.7309
 1943TIP3   OH227243   2.281   5.712  11.888  0.4065 -0.6345  0.1581
 1943TIP3    H127244   2.346   5.669  11.833  1.1378 -1.7510  1.8241
 1943TIP3    H227245   2.229   5.640  11.924 -0.5917  0.1303  0.2672
 1944TIP3   OH227246   0.491   2.861  16.623 -0.4974 -0.0533  0.1492
 1944TIP3    H127247   0.443   2.941  16.603 -1.7280 -0.5453  1.0244
 1944TIP3    H227248   0.515   2.825  16.538 -1.9913  0.0228 -0.3164
 1945TIP3   OH227249   5.737   4.018  13.770 -0.8316 -0.6315 -0.0369
 1945TIP3    H127250   5.826   4.011  13.806  0.1991  1.9151 -1.8231
 1945TIP3    H227251   5.749   4.019  13.675 -2.9189 -1.4131 -0.3707
 1946TIP3   OH227252   5.086   1.065   3.674  0.7540  0.0463 -0.3305
 1946TIP3    H127253   5.111   1.157   3.667 -1.6351  0.7995  0.3996
 1946TIP3    H227254   5.037   1.059   3.756 -1.8244 -1.1538 -1.8394
 1947TIP3   OH227255   3.495   6.190  15.450 -0.5152  0.7817  0.5024
 1947TIP3    H127256   3.465   6.143  15.528 -0.5764 -1.1599 -0.6121
 1947TIP3    H227257   3.480   6.129  15.378 -0.4178  2.4903 -1.0494
 1948TIP3   OH227258   1.682   0.029  16.607  0.2472 -0.0948  0.8175
 1948TIP3    H127259   1.591   0.018  16.579  0.5373 -0.0360 -0.2059
 1948TIP3    H227260   1.729  -0.043  16.563  0.4676 -1.0619  2.5394
 1949TIP3   OH227261   1.679   1.556  16.303 -0.5232 -0.9398 -0.7418
 1949TIP3    H127262   1.709   1.523  16.388  0.7449  0.5448 -0.5836
 1949TIP3    H227263   1.683   1.651  16.311 -3.0911 -0.6926 -1.5454
 1950TIP3   OH227264   2.235   1.425  12.276 -0.5891 -0.0924  0.2991
 1950TIP3    H127265   2.255   1.347  12.329 -0.5468 -0.4325 -0.2151
 1950TIP3    H227266   2.167   1.470  12.326 -1.7782 -1.2981 -0.1783
 1951TIP3   OH227267   1.338   5.949  15.916  0.2481 -0.5535 -0.5311
 1951TIP3    H127268   1.408   6.010  15.938  1.3352 -2.6852  2.6533
 1951TIP3    H227269   1.259   6.002  15.916  1.0615  0.8705  2.5945
 1952TIP3   OH227270   6.377   0.386   4.211  0.0997 -0.8557  0.2370
 1952TIP3    H127271   6.356   0.368   4.303 -1.2963 -2.2705 -0.3050
 1952TIP3    H227272   6.324   0.463   4.189 -0.0629 -0.9081  0.4449
 1953TIP3   OH227273   3.294   5.884  10.946 -0.5023 -0.5585 -0.2584
 1953TIP3    H127274   3.337   5.841  11.020  0.5592 -3.6280 -2.4592
 1953TIP3    H227275   3.201   5.865  10.958 -0.4361 -0.3350  0.6757
 1954TIP3   OH227276   0.650   1.330   3.149 -0.0695  0.2279  0.1581
 1954TIP3    H127277   0.600   1.248   3.154  0.2254  0.0872  1.2329
 1954TIP3    H227278   0.647   1.355   3.057 -1.8048  0.0432  0.1310
 1955TIP3   OH227279   6.178   6.523  16.952  0.1894 -0.1838 -0.3932
 1955TIP3    H127280   6.221   6.543  16.869 -3.3425  0.1386 -2.3192
 1955TIP3    H227281   6.128   6.443  16.935  0.9762 -1.3507  2.1579
 1956TIP3   OH227282   2.454   1.334  13.539 -0.2019 -0.1541 -0.3544
 1956TIP3    H127283   2.365   1.324  13.506 -0.0211 -2.6789 -0.2954
 1956TIP3    H227284   2.453   1.291  13.624  1.0711 -0.2533 -0.3671
 1957TIP3   OH227285   3.927   6.308   5.939 -0.5923  0.0896 -0.2420
 1957TIP3    H127286   3.874   6.380   5.972  2.3105  2.2874 -0.0852
 1957TIP3    H227287   3.918   6.314   5.844  1.3438  2.2092 -0.3787
 1958TIP3   OH227288   6.457   1.213  15.143 -0.1322 -0.0407 -0.3586
 1958TIP3    H127289   6.485   1.159  15.069  1.1160  0.0593  0.0178
 1958TIP3    H227290   6.400   1.156  15.194 -0.7491 -0.2180 -1.2114
 1959TIP3   OH227291   5.331   1.069   3.180  0.0523 -0.3377  0.6118
 1959TIP3    H127292   5.344   1.155   3.219 -0.0240 -0.4154  0.8090
 1959TIP3    H227293   5.388   1.068   3.103  0.0212 -0.0970  0.5873
 1960TIP3   OH227294   4.916   0.785   3.088  0.2705 -0.1779  0.0639
 1960TIP3    H127295   5.006   0.765   3.060  1.2062  2.3275  0.9924
 1960TIP3    H227296   4.880   0.838   3.017  0.5694  1.1834  0.8850
 1961TIP3   OH227297   5.983   6.666  14.129 -0.2962  0.3837 -0.3566
 1961TIP3    H127298   5.977   6.759  14.110 -2.3040  0.5475  0.7593
 1961TIP3    H227299   5.909   6.627  14.083 -0.1309 -0.4735  0.0786
 1962TIP3   OH227300   2.411   6.195  10.546 -0.1129  0.4071  0.1634
 1962TIP3    H127301   2.482   6.212  10.484 -0.9031  2.1950 -0.3432
 1962TIP3    H227302   2.430   6.253  10.620 -2.1112  2.6771 -0.9381
 1963TIP3   OH227303   3.357   3.680   1.496  0.4069  0.9476 -0.5797
 1963TIP3    H127304   3.394   3.619   1.432 -0.0476  1.0279 -0.9219
 1963TIP3    H227305   3.418   3.753   1.498  2.5350 -0.6946  1.8995
 1964TIP3   OH227306   2.297   3.474   0.542 -0.1511 -0.0837 -0.2567
 1964TIP3    H127307   2.224   3.532   0.521 -0.8095 -0.6965  0.2766
 1964TIP3    H227308   2.313   3.487   0.635  1.0988  0.7726 -0.5638
 1965TIP3   OH227309   6.592   2.143  13.078 -0.2634 -0.9063 -0.2367
 1965TIP3    H127310   6.583   2.053  13.047 -1.7709 -1.0072  0.3818
 1965TIP3    H227311   6.580   2.197  13.000  0.6452 -1.2400 -0.6104
 1966TIP3   OH227312   0.148   0.276  11.356  0.4486 -0.1677 -0.2137
 1966TIP3    H127313   0.062   0.254  11.321  0.5904 -0.8557 -0.1397
 1966TIP3    H227314   0.130   0.316  11.441  0.2357 -1.1079  0.1943
 1967TIP3   OH227315   1.284   1.100  11.815 -0.5114  0.1157 -0.0704
 1967TIP3    H127316   1.259   1.017  11.855  0.2233 -0.5906 -1.0191
 1967TIP3    H227317   1.299   1.159  11.889  0.9325 -1.1739  0.7175
 1968TIP3   OH227318   4.628   5.743  14.443 -0.3801 -0.9504 -0.2355
 1968TIP3    H127319   4.535   5.724  14.451 -1.4221  2.9259 -1.0125
 1968TIP3    H227320   4.633   5.839  14.442  3.4828 -0.9872 -1.6379
 1969TIP3   OH227321   1.758   3.431   0.884  0.4396  0.0223 -0.8834
 1969TIP3    H127322   1.851   3.408   0.884  0.2436 -0.8444  0.1748
 1969TIP3    H227323   1.718   3.372   0.948 -1.1488 -0.7807 -2.5238
 1970TIP3   OH227324   5.968   1.437   4.429 -0.0200  0.2834  0.1094
 1970TIP3    H127325   5.920   1.373   4.376 -0.3028  0.4564  0.1573
 1970TIP3    H227326   5.917   1.518   4.421 -1.0126 -0.0960  1.9975
 1971TIP3   OH227327   1.985   0.259   1.332 -0.0371 -0.0239 -0.2618
 1971TIP3    H127328   2.080   0.269   1.340 -0.2023  0.4511  1.4228
 1971TIP3    H227329   1.968   0.169   1.358 -0.1265  0.1660  0.3547
 1972TIP3   OH227330   3.162   5.802  11.406 -0.5889 -0.3080  0.1479
 1972TIP3    H127331   3.186   5.894  11.418 -1.2659 -0.0809 -0.1796
 1972TIP3    H227332   3.098   5.804  11.334 -1.1853 -0.9468  0.6555
 1973TIP3   OH227333   4.355   0.286   4.727 -0.2347  0.3505  0.1409
 1973TIP3    H127334   4.291   0.357   4.740  0.4996  0.9612  0.5159
 1973TIP3    H227335   4.383   0.263   4.816 -2.0022 -1.9014  0.2182
 1974TIP3   OH227336   5.742   6.493  14.110  0.0420 -0.3447 -0.0143
 1974TIP3    H127337   5.763   6.411  14.155 -1.7242 -1.5557 -1.3091
 1974TIP3    H227338   5.766   6.477  14.019  1.2014  1.1893 -0.0118
 1975TIP3   OH227339   0.885   2.829  16.644 -0.4747 -0.0897  0.1542
 1975TIP3    H127340   0.820   2.759  16.642  0.0161 -0.5213 -0.8875
 1975TIP3    H227341   0.834   2.910  16.635 -0.8871 -0.4057 -0.3380
 1976TIP3   OH227342   0.874   6.103  13.713  0.4619 -0.5107  0.2482
 1976TIP3    H127343   0.970   6.106  13.715  0.4725 -0.9843  0.4169
 1976TIP3    H227344   0.853   6.029  13.657  0.2002 -1.0185  1.0082
 1977TIP3   OH227345   0.091   4.580   1.395  0.5726  0.3446  0.3536
 1977TIP3    H127346   0.179   4.614   1.410  0.6872  1.2275 -1.9291
 1977TIP3    H227347   0.080   4.583   1.300 -1.4331 -1.0335  0.4761
 1978TIP3   OH227348   6.335   1.022   3.579 -0.6502  0.5023 -0.3153
 1978TIP3    H127349   6.347   1.109   3.617  1.8407 -0.4612  1.3657
 1978TIP3    H227350   6.383   1.025   3.497 -0.0810  0.5630  0.0170
 1979TIP3   OH227351   4.774   1.419   6.115  0.2204  0.3980  0.5131
 1979TIP3    H127352   4.844   1.431   6.179 -2.1755  0.3740  3.3856
 1979TIP3    H227353   4.778   1.326   6.093 -0.2649 -0.1429  2.4967
 1980TIP3   OH227354   6.224   5.498   2.866 -0.3440 -0.7178  0.1964
 1980TIP3    H127355   6.218   5.518   2.960  2.1594 -1.5176  0.6035
 1980TIP3    H227356   6.162   5.558   2.825 -0.2993  0.8351  2.2209
 1981TIP3   OH227357   1.788   4.466   4.213 -0.7295 -0.5701  0.4433
 1981TIP3    H127358   1.745   4.438   4.294 -0.9007  1.3467  1.0626
 1981TIP3    H227359   1.879   4.480   4.238 -1.0552  1.3817  0.7141
 1982TIP3   OH227360   0.695   0.880  13.265  0.0434 -0.1180 -0.0420
 1982TIP3    H127361   0.758   0.811  13.284 -0.9517 -1.5241 -1.5783
 1982TIP3    H227362   0.616   0.855  13.313 -0.5603 -0.4991 -1.1874
 1983TIP3   OH227363   6.569   1.249   4.216 -0.8436  0.0907 -0.3566
 1983TIP3    H127364   6.599   1.179   4.158 -0.7653 -0.1570 -0.0173
 1983TIP3    H227365   6.628   1.245   4.291 -0.8679  0.4925 -0.3165
 1984TIP3   OH227366   0.108   3.566  16.066 -0.0388 -0.7098  0.1193
 1984TIP3    H127367   0.139   3.486  16.110 -0.3228 -1.3763 -0.8549
 1984TIP3    H227368   0.013   3.567  16.083 -0.0216 -0.5328  0.2032
 1985TIP3   OH227369   0.892   5.317  16.083  0.0531  0.5791  0.2514
 1985TIP3    H127370   0.888   5.412  16.099 -0.4369  1.0937 -2.4439
 1985TIP3    H227371   0.800   5.290  16.081  0.1917  0.0039  1.0020
 1986TIP3   OH227372   4.831   2.845  15.152 -0.9383  0.3217 -0.0359
 1986TIP3    H127373   4.846   2.761  15.195 -2.6654  0.2937  0.5590
 1986TIP3    H227374   4.889   2.842  15.076 -0.5515 -1.1655  0.2676
 1987TIP3   OH227375   5.846   3.277  13.662  0.4444  0.3044 -0.4956
 1987TIP3    H127376   5.934   3.312  13.678 -0.1479  1.8072 -0.3693
 1987TIP3    H227377   5.789   3.331  13.716 -0.3083 -2.4707  1.6580
 1988TIP3   OH227378   5.226   0.548  15.465  0.2638 -0.6478  0.8511
 1988TIP3    H127379   5.251   0.546  15.557 -0.4300  1.1791  1.1105
 1988TIP3    H227380   5.293   0.603  15.423 -0.5122  0.1852  0.6597
 1989TIP3   OH227381   0.466   4.180  11.867  0.1115 -0.0414 -0.0385
 1989TIP3    H127382   0.384   4.220  11.838  0.3283  0.9150  0.6229
 1989TIP3    H227383   0.439   4.104  11.917 -0.4413  0.9086  1.1591
 1990TIP3   OH227384   0.914   3.306   0.534  0.2892 -1.1016  0.0083
 1990TIP3    H127385   0.994   3.258   0.557  0.7706 -0.4168 -0.1910
 1990TIP3    H227386   0.946   3.390   0.502 -0.4892 -1.1393 -0.8787
 1991TIP3   OH227387   5.428   2.503  13.098 -0.0490  0.0103 -0.0597
 1991TIP3    H127388   5.478   2.585  13.093 -1.6244  1.1227  1.2599
 1991TIP3    H227389   5.456   2.463  13.180 -1.8264  1.0764  1.1450
 1992TIP3   OH227390   3.423   6.002   4.259 -0.4474 -0.3231  0.2378
 1992TIP3    H127391   3.506   6.041   4.235 -1.1104  1.0428  0.0639
 1992TIP3    H227392   3.444   5.945   4.333  0.7457 -0.5800 -0.2728
 1993TIP3   OH227393   5.896   5.186   5.723  0.1752  0.7908  0.2816
 1993TIP3    H127394   5.952   5.129   5.775 -0.1610  1.0445  0.9224
 1993TIP3    H227395   5.884   5.139   5.640  0.4971  0.2727  0.5269
 1994TIP3   OH227396   5.724   1.900  14.127  1.1479  0.4679  0.2522
 1994TIP3    H127397   5.756   1.987  14.106  0.7975  0.8866  1.3684
 1994TIP3    H227398   5.629   1.907  14.120  0.9844  0.7036  2.0674
 1995TIP3   OH227399   0.034   4.449  15.496 -0.0939 -1.1203 -0.0778
 1995TIP3    H127400  -0.022   4.380  15.531 -1.1258 -0.3635 -0.1814
 1995TIP3    H227401   0.054   4.421  15.407 -2.8112 -0.0441 -1.1358
 1996TIP3   OH227402   1.963   2.037  14.453 -0.3739  0.2920 -0.0300
 1996TIP3    H127403   1.996   2.092  14.382  2.0143 -0.3403  0.5085
 1996TIP3    H227404   2.038   1.983  14.479 -1.7427 -0.9431  1.6173
 1997TIP3   OH227405   1.056   4.922   1.296 -0.1850 -0.3969  0.0739
 1997TIP3    H127406   1.130   4.887   1.345 -1.5749 -0.0834  2.5992
 1997TIP3    H227407   1.095   4.979   1.229  1.8464 -0.0542  1.4840
 1998TIP3   OH227408   6.646   4.423   2.951 -0.0305 -0.3524 -0.3638
 1998TIP3    H127409   6.678   4.466   2.872  0.7186  1.1484  0.7156
 1998TIP3    H227410   6.597   4.491   2.998  0.0262 -1.0457  0.7401
 1999TIP3   OH227411   4.214   6.717  14.521  0.2109 -0.0083  0.2827
 1999TIP3    H127412   4.156   6.793  14.530 -0.0320 -0.4007  2.7063
 1999TIP3    H227413   4.160   6.643  14.549  0.8970 -0.8702 -0.6335
 2000TIP3   OH227414   4.141   5.563   3.350  0.2230 -0.1372 -0.3645
 2000TIP3    H127415   4.097   5.603   3.276  1.1890  1.1654 -0.2628
 2000TIP3    H227416   4.141   5.469   3.330  0.4484  0.1827 -2.0103
 2001TIP3   OH227417   5.226   6.228   0.719 -0.3748 -0.4247  0.3204
 2001TIP3    H127418   5.185   6.225   0.806  0.7097 -2.9965  0.8382
 2001TIP3    H227419   5.155   6.207   0.658 -0.9689  0.5929  0.6428
 2002TIP3   OH227420   5.628   0.400   3.512  0.1214  0.1119 -0.0900
 2002TIP3    H127421   5.554   0.441   3.467  0.8792  1.4671 -0.1190
 2002TIP3    H227422   5.699   0.463   3.505  0.9645 -0.6970  0.9142
 2003TIP3   OH227423   5.015   5.402  14.621 -0.2879 -0.3218 -0.0221
 2003TIP3    H127424   5.008   5.322  14.673 -0.0738 -0.1305  0.2969
 2003TIP3    H227425   4.935   5.451  14.641  0.3122  0.2647  0.9785
 2004TIP3   OH227426   1.950   4.532   1.797 -0.1558  0.8266 -0.0833
 2004TIP3    H127427   1.855   4.527   1.782 -0.1297 -1.3112  0.1074
 2004TIP3    H227428   1.987   4.551   1.711 -0.6416 -0.9072 -0.7282
 2005TIP3   OH227429   4.493   1.088  12.970 -0.4821  0.5626 -0.1115
 2005TIP3    H127430   4.585   1.079  12.944 -0.8836  0.9749 -1.8158
 2005TIP3    H227431   4.486   1.037  13.050  1.0141 -0.2892 -0.4775
 2006TIP3   OH227432   6.633   5.940  13.569 -0.0007  0.2807  0.2155
 2006TIP3    H127433   6.577   5.993  13.627 -1.5541  0.0475 -1.0019
 2006TIP3    H227434   6.674   5.876  13.627 -2.1353 -0.4643  0.9843
 2007TIP3   OH227435   6.285   3.726   2.173 -0.8895 -0.1727  0.2474
 2007TIP3    H127436   6.284   3.822   2.173 -0.0538 -0.1432 -1.1260
 2007TIP3    H227437   6.300   3.701   2.082 -0.4441 -1.6023  0.6783
 2008TIP3   OH227438   0.545   0.896  11.450 -0.0734  0.6073  0.7426
 2008TIP3    H127439   0.631   0.870  11.484  0.6751  1.6143 -0.2787
 2008TIP3    H227440   0.485   0.830  11.483  1.5336 -1.8312 -0.8790
 2009TIP3   OH227441   2.730   0.283   3.333  0.3697 -0.3544 -0.4292
 2009TIP3    H127442   2.661   0.232   3.289 -1.1027 -0.5377  1.9511
 2009TIP3    H227443   2.732   0.366   3.285 -1.4056 -0.4110 -0.6719
 2010TIP3   OH227444   2.194   2.746  15.807  0.0728  0.1001 -0.0704
 2010TIP3    H127445   2.099   2.744  15.796  0.2070  2.7942 -2.9216
 2010TIP3    H227446   2.217   2.655  15.829 -2.9776 -0.9516 -0.7376
 2011TIP3   OH227447   5.583   6.767  16.565  0.2089  0.3784  0.1414
 2011TIP3    H127448   5.523   6.837  16.589  0.1853  0.4097 -0.0115
 2011TIP3    H227449   5.556   6.693  16.620  0.9850  0.8284  1.1787
 2012TIP3   OH227450   0.040   2.793   4.323  0.4022 -0.1788 -0.0407
 2012TIP3    H127451   0.123   2.789   4.275 -0.4483 -0.5552 -1.5437
 2012TIP3    H227452   0.039   2.713   4.376  0.3577 -0.9249 -1.1409
 2013TIP3   OH227453   0.775   4.197  15.221  0.0224  0.2987 -0.5153
 2013TIP3    H127454   0.728   4.279  15.205  1.0180  1.2321  1.0236
 2013TIP3    H227455   0.724   4.153  15.289 -0.5631 -0.4241 -1.4076
 2014TIP3   OH227456   4.409   1.576  13.547 -0.5102 -0.2805 -0.2869
 2014TIP3    H127457   4.443   1.627  13.474  0.4839 -0.5077  0.0011
 2014TIP3    H227458   4.362   1.504  13.506 -3.7792  1.9120 -0.7433
 2015TIP3   OH227459   0.703   1.494  15.343  0.6235 -0.0291  0.0089
 2015TIP3    H127460   0.642   1.549  15.393  0.9070  0.2013  0.1052
 2015TIP3    H227461   0.654   1.468  15.266 -0.2478 -1.3991  0.9803
 2016TIP3   OH227462   0.189   4.977   3.504 -0.2863  0.0490  0.0378
 2016TIP3    H127463   0.144   4.984   3.419  0.3665  1.4152 -0.2319
 2016TIP3    H227464   0.208   5.068   3.528 -0.4564 -0.3207  1.6638
 2017TIP3   OH227465   0.955   6.194  13.338 -0.4306 -0.6180  0.0417
 2017TIP3    H127466   0.921   6.111  13.306 -0.7365 -0.7450  0.6680
 2017TIP3    H227467   0.891   6.222  13.404  0.4615 -0.6407  0.9362
 2018TIP3   OH227468   3.449   6.405   0.870  0.5240 -0.2076  0.3490
 2018TIP3    H127469   3.518   6.340   0.877 -0.0752 -0.8312  0.5626
 2018TIP3    H227470   3.387   6.382   0.939 -0.5873 -0.5139 -0.7138
 2019TIP3   OH227471   5.122   2.259  13.052  0.8867  0.1311  0.7347
 2019TIP3    H127472   5.170   2.176  13.057  1.6510  0.4598 -0.6141
 2019TIP3    H227473   5.191   2.326  13.054  0.2667  0.7434  1.9398
 2020TIP3   OH227474   1.008   0.126  17.254 -0.1288  0.4233  0.2372
 2020TIP3    H127475   1.006   0.201  17.312 -0.3482 -0.0931  0.9127
 2020TIP3    H227476   0.933   0.073  17.281  0.8327 -0.7321  0.7253
 2021TIP3   OH227477   6.029   6.596  15.010  0.1339 -0.2999 -0.2994
 2021TIP3    H127478   6.033   6.534  14.937  0.8465  0.3389 -0.8199
 2021TIP3    H227479   6.068   6.676  14.975 -0.6236  0.3946  0.4130
 2022TIP3   OH227480   3.687   0.064   1.040 -0.2958  0.4159  0.7256
 2022TIP3    H127481   3.621   0.129   1.013  0.7739  1.3338  0.2194
 2022TIP3    H227482   3.677  -0.008   0.977 -1.7882 -0.1425  1.5601
 2023TIP3   OH227483   5.079   1.324  13.400 -0.1632  0.1979 -0.2820
 2023TIP3    H127484   5.052   1.414  13.381 -2.8835 -0.4544  0.0907
 2023TIP3    H227485   5.077   1.279  13.316 -2.5173 -0.3409 -0.0059
 2024TIP3   OH227486   5.292   2.128   3.594 -0.0616  0.0100  0.1820
 2024TIP3    H127487   5.376   2.175   3.586  0.5840 -1.3298 -1.3610
 2024TIP3    H227488   5.228   2.197   3.612  1.0803  1.2973 -0.4858
 2025TIP3   OH227489   6.266   5.854   2.187 -0.2012 -0.2724  0.9667
 2025TIP3    H127490   6.298   5.943   2.173 -2.2995  0.2414 -1.5620
 2025TIP3    H227491   6.171   5.864   2.195 -0.3102 -2.1282  2.7845
 2026TIP3   OH227492   0.089   5.264  15.776 -0.4923 -0.2232  0.1911
 2026TIP3    H127493   0.056   5.353  15.760  1.6476  0.4870 -0.7116
 2026TIP3    H227494   0.119   5.266  15.867  0.4528  0.3385 -0.1127
 2027TIP3   OH227495   1.872   2.046   1.381 -0.2109  0.4091  0.3547
 2027TIP3    H127496   1.851   2.129   1.337 -1.3349  2.6534  4.5321
 2027TIP3    H227497   1.800   2.033   1.443  0.1939 -3.5302  0.2230
 2028TIP3   OH227498   6.492   4.648   1.150 -0.4429  0.2158  0.3035
 2028TIP3    H127499   6.554   4.623   1.081 -0.3749 -0.2798  0.5390
 2028TIP3    H227500   6.522   4.734   1.180 -1.1456  0.9660 -1.0692
 2029TIP3   OH227501   5.531   6.682  14.035  0.7921  0.1576 -0.4004
 2029TIP3    H127502   5.461   6.619  14.021  0.7151 -0.1656  1.2302
 2029TIP3    H227503   5.599   6.632  14.081  1.6543  0.7347 -1.0016
 2030TIP3   OH227504   6.784   5.285  12.057  0.3059  0.0006  0.2295
 2030TIP3    H127505   6.722   5.354  12.031 -0.6018 -1.2207 -1.0329
 2030TIP3    H227506   6.749   5.251  12.139 -0.9634 -0.9044 -0.6387
 2031TIP3   OH227507   2.812   1.610   1.683  0.0796 -0.9426  0.4997
 2031TIP3    H127508   2.834   1.537   1.740  1.3107  0.4051  1.8613
 2031TIP3    H227509   2.847   1.687   1.729  0.0373  0.3436 -1.5102
 2032TIP3   OH227510   4.874   0.845   4.894 -0.4607  0.0972 -0.0934
 2032TIP3    H127511   4.819   0.917   4.924  0.4209  0.5858  0.4000
 2032TIP3    H227512   4.902   0.871   4.806 -0.5851  0.1059 -0.1298
 2033TIP3   OH227513   1.985   1.882   6.417  0.2771  0.0408 -0.4480
 2033TIP3    H127514   1.997   1.834   6.499 -0.5034  0.8171  0.1428
 2033TIP3    H227515   1.939   1.821   6.360 -0.5647  0.0205  0.2391
 2034TIP3   OH227516   1.658   1.737  11.181 -0.2804  0.1362  0.2492
 2034TIP3    H127517   1.721   1.766  11.115 -0.9462 -1.0145 -0.9135
 2034TIP3    H227518   1.696   1.767  11.264  1.0345  0.7879 -0.5540
 2035TIP3   OH227519   3.023   5.360   5.926 -0.3738 -0.1737  0.4863
 2035TIP3    H127520   2.999   5.363   6.018 -0.2467  0.8863  0.4912
 2035TIP3    H227521   2.970   5.428   5.885 -0.0803 -0.3189 -0.1476
 2036TIP3   OH227522   1.574   4.295  12.139  0.0710 -0.5187  0.5471
 2036TIP3    H127523   1.578   4.220  12.079  2.2632  0.0927 -0.1870
 2036TIP3    H227524   1.631   4.271  12.212  0.8659  0.4221  0.2656
 2037TIP3   OH227525   1.449   0.911  13.949  0.5413  0.3890  0.0420
 2037TIP3    H127526   1.369   0.951  13.982 -1.1721 -0.6920 -2.4594
 2037TIP3    H227527   1.463   0.834  14.005  0.8395  1.4938  1.5326
 2038TIP3   OH227528   2.643   5.302  12.170  0.4602 -0.4112 -0.2776
 2038TIP3    H127529   2.554   5.332  12.153  0.7325 -0.5639 -2.2102
 2038TIP3    H227530   2.671   5.352  12.246 -1.3953 -0.6372  0.6066
 2039TIP3   OH227531   3.150   6.038   3.669  0.4692 -0.5308 -0.2264
 2039TIP3    H127532   3.184   6.122   3.640  0.0265 -0.1181  0.4086
 2039TIP3    H227533   3.056   6.053   3.680  0.4418 -1.0078  0.2222
 2040TIP3   OH227534   3.375   6.515   5.202  0.3488  0.0621  0.2330
 2040TIP3    H127535   3.393   6.606   5.183  3.3290 -0.6737 -0.9881
 2040TIP3    H227536   3.416   6.466   5.130 -2.6878 -2.2203 -0.1587
 2041TIP3   OH227537   6.002   2.625  13.811 -0.1456 -0.3116  0.2430
 2041TIP3    H127538   5.952   2.659  13.736 -0.0348  0.9759  0.7250
 2041TIP3    H227539   6.085   2.596  13.773  0.0419  0.6444 -0.1033
 2042TIP3   OH227540   2.135   3.407   1.380 -0.3983  0.3046 -0.4096
 2042TIP3    H127541   2.063   3.345   1.385  0.4358 -0.5918  1.1561
 2042TIP3    H227542   2.152   3.433   1.471  1.9338 -0.3518 -0.5808
 2043TIP3   OH227543   4.668   4.660  11.602 -0.2796  0.0274  0.1714
 2043TIP3    H127544   4.667   4.664  11.507 -1.6636  0.5472  0.1963
 2043TIP3    H227545   4.628   4.742  11.630  0.8476  0.2505  1.2299
 2044TIP3   OH227546   2.949   0.117  12.723  0.0491 -0.2435  0.5099
 2044TIP3    H127547   2.929   0.210  12.733  2.3569  0.5121 -1.0390
 2044TIP3    H227548   2.898   0.089  12.647 -0.4312 -0.2018  0.8097
 2045TIP3   OH227549   0.296   3.200   6.670  0.4471  0.4007 -0.6204
 2045TIP3    H127550   0.314   3.147   6.591 -1.1144  0.4230 -1.0263
 2045TIP3    H227551   0.381   3.211   6.711  0.8116 -3.1935 -0.0283
 2046TIP3   OH227552   5.703   2.446  14.169 -0.1275 -0.0484  0.6887
 2046TIP3    H127553   5.620   2.467  14.212  0.7095  1.7982  1.4551
 2046TIP3    H227554   5.759   2.412  14.238  0.8946  2.0157  0.9434
 2047TIP3   OH227555   0.235   0.991   4.552  0.2397 -0.3843  0.7226
 2047TIP3    H127556   0.170   1.061   4.550  0.5238 -0.1215  0.3740
 2047TIP3    H227557   0.279   1.002   4.636  1.5079  1.0218 -0.0674
 2048TIP3   OH227558   0.237   2.016  14.381 -0.5061  0.3284  0.1806
 2048TIP3    H127559   0.205   2.106  14.375  0.8554  0.8226 -0.0790
 2048TIP3    H227560   0.192   1.969  14.311 -1.3113  0.7674  0.3899
 2049TIP3   OH227561   5.689   5.605   4.115 -0.0188 -0.2500 -0.3612
 2049TIP3    H127562   5.712   5.636   4.028  1.0764  2.8349  0.8877
 2049TIP3    H227563   5.772   5.604   4.163 -0.8559  0.1121  1.1777
 2050TIP3   OH227564   4.755   5.665   0.537 -0.2366  0.2698  0.3467
 2050TIP3    H127565   4.803   5.731   0.486  0.6017 -0.2325  0.4709
 2050TIP3    H227566   4.675   5.710   0.565 -0.5430  0.6586 -1.1012
 2051TIP3   OH227567   4.999   5.929  16.629 -0.1175  0.2204 -0.0955
 2051TIP3    H127568   5.048   5.980  16.565  0.0248  0.2435  0.0311
 2051TIP3    H227569   4.922   5.898  16.581  0.5248 -0.6624 -0.5818
 2052TIP3   OH227570   1.494   3.162   3.260 -0.4736  0.1660 -0.2284
 2052TIP3    H127571   1.538   3.169   3.344 -0.0026  1.2221 -0.5468
 2052TIP3    H227572   1.502   3.070   3.236  0.2148  0.0447  0.4312
 2053TIP3   OH227573   6.607   0.781   1.692  0.1791  0.3880 -0.8351
 2053TIP3    H127574   6.522   0.796   1.650  0.2249  1.0637 -0.6935
 2053TIP3    H227575   6.669   0.783   1.619  0.3144  2.0368 -0.7082
 2054TIP3   OH227576   0.889   4.784   0.894 -0.2022 -0.1292  0.4694
 2054TIP3    H127577   0.857   4.705   0.938 -1.0569 -1.4574 -2.2953
 2054TIP3    H227578   0.817   4.809   0.836  0.8638  1.4693 -0.2071
 2055TIP3   OH227579   6.493   0.245  16.804  0.3229 -0.0008 -0.7515
 2055TIP3    H127580   6.561   0.254  16.737 -0.1376 -1.4486 -1.4748
 2055TIP3    H227581   6.456   0.158  16.788 -2.5199  1.1706 -1.1906
 2056TIP3   OH227582   5.686   5.524   3.634  0.3263  0.2935  0.5662
 2056TIP3    H127583   5.658   5.509   3.724 -0.9276  0.0793  0.1695
 2056TIP3    H227584   5.635   5.600   3.606 -0.2057 -0.3681 -0.3257
 2057TIP3   OH227585   5.482   0.932  15.522 -0.5122  0.5529 -0.2975
 2057TIP3    H127586   5.543   0.967  15.587  0.8130 -0.3162 -1.0170
 2057TIP3    H227587   5.446   1.009  15.478 -0.7587  1.1168  0.8617
 2058TIP3   OH227588   2.280   6.401   1.631 -0.2890 -0.1090  0.0284
 2058TIP3    H127589   2.233   6.404   1.548  0.3685 -2.2210 -0.4697
 2058TIP3    H227590   2.259   6.485   1.673 -1.6311  0.4841 -1.6974
 2059TIP3   OH227591   5.243   2.881  13.449  0.2873  0.1391  0.4306
 2059TIP3    H127592   5.195   2.945  13.501  0.4882  0.6468  0.0011
 2059TIP3    H227593   5.181   2.810  13.434 -0.7623  1.3283 -1.1700
 2060TIP3   OH227594   6.609   1.253   3.212  0.2209  0.0514 -0.0486
 2060TIP3    H127595   6.677   1.194   3.242  0.6822  0.6808  0.1603
 2060TIP3    H227596   6.600   1.317   3.282 -0.0562  0.4059 -0.4023
 2061TIP3   OH227597   4.575   4.374  16.651 -0.5673 -0.2256 -0.3594
 2061TIP3    H127598   4.618   4.341  16.730  0.1783 -0.6579 -0.9371
 2061TIP3    H227599   4.495   4.321  16.644 -0.3168 -0.6290 -0.2365
 2062TIP3   OH227600   3.043   3.765   1.129  0.3770 -0.4503 -0.2364
 2062TIP3    H127601   3.026   3.675   1.104  0.1694  0.2930 -3.1171
 2062TIP3    H227602   2.959   3.797   1.163  0.3893 -1.2302  0.5534
 2063TIP3   OH227603   6.329   5.613  13.504  0.2882 -0.1944  0.3319
 2063TIP3    H127604   6.292   5.548  13.444 -0.7407  1.0800 -0.4757
 2063TIP3    H227605   6.372   5.677  13.448  1.3844 -0.2225  1.1112
 2064TIP3   OH227606   5.058   6.277  14.908 -0.1397 -0.8505  0.7502
 2064TIP3    H127607   5.109   6.322  14.841 -0.5589 -1.4621 -0.0003
 2064TIP3    H227608   5.077   6.184  14.893 -2.1799 -1.1642 -0.1695
 2065TIP3   OH227609   6.446   4.981   0.713  0.1942 -0.0807  0.4329
 2065TIP3    H127610   6.425   5.020   0.628  0.9321  1.5349  0.9562
 2065TIP3    H227611   6.541   4.986   0.719  0.2924 -1.6725  0.7005
 2066TIP3   OH227612   2.643   1.058  16.058  0.2053 -0.5568 -0.0200
 2066TIP3    H127613   2.715   1.010  16.018 -0.5409 -0.2166 -1.9301
 2066TIP3    H227614   2.673   1.149  16.062  0.2744 -0.5880  0.1393
 2067TIP3   OH227615   3.056   6.323   3.809  0.1951 -0.2376  0.2060
 2067TIP3    H127616   3.116   6.338   3.735 -1.5500 -0.8644 -1.4376
 2067TIP3    H227617   2.991   6.393   3.801  0.7698  0.5610  2.0856
 2068TIP3   OH227618   3.776   0.805  14.029 -0.4279 -0.2099 -0.4909
 2068TIP3    H127619   3.810   0.892  14.047 -0.2464 -0.1617 -1.0654
 2068TIP3    H227620   3.709   0.792  14.096  1.5072 -0.7982  1.4553
 2069TIP3   OH227621   4.884   3.262  12.517 -0.7062  0.3098 -0.0314
 2069TIP3    H127622   4.857   3.220  12.599 -0.2850  1.5572  0.7872
 2069TIP3    H227623   4.802   3.288  12.475 -0.9004  0.6151  0.5268
 2070TIP3   OH227624   3.935   5.970   4.878  0.1790  0.0410  0.2275
 2070TIP3    H127625   4.026   5.951   4.858  0.1722  0.7100 -0.4748
 2070TIP3    H227626   3.885   5.902   4.833  0.3286 -0.3914  0.7048
 2071TIP3   OH227627   1.857   6.757  14.949  0.3545  0.0285  0.4542
 2071TIP3    H127628   1.914   6.729  14.877 -1.2651 -0.4830 -0.6835
 2071TIP3    H227629   1.905   6.829  14.990  2.5556 -1.4474  0.6067
 2072TIP3   OH227630   4.272   0.621  11.216 -0.3472 -0.2751 -0.2340
 2072TIP3    H127631   4.340   0.573  11.170  0.3730 -0.6854  1.2093
 2072TIP3    H227632   4.228   0.556  11.270 -1.0885  0.2119 -0.2335
 2073TIP3   OH227633   5.324   3.236   0.761  0.4015  0.3875  0.5194
 2073TIP3    H127634   5.394   3.203   0.706 -2.5275 -2.7848 -1.6583
 2073TIP3    H227635   5.311   3.168   0.827 -2.0618 -0.3097 -0.5797
 2074TIP3   OH227636   1.121   0.659  10.972  0.3292  0.5349 -0.0209
 2074TIP3    H127637   1.031   0.628  10.959 -0.2268  1.8960  0.4040
 2074TIP3    H227638   1.142   0.707  10.892 -0.1108  1.9843  0.6971
 2075TIP3   OH227639   0.836   2.585  10.739  0.5610 -0.0580  0.6456
 2075TIP3    H127640   0.876   2.498  10.749  2.0568  0.5982  0.6352
 2075TIP3    H227641   0.820   2.593  10.645  1.5272  0.1154  0.4790
 2076TIP3   OH227642   3.588   3.396   2.407  0.4485 -0.2263  0.2653
 2076TIP3    H127643   3.611   3.330   2.473  1.4126  1.4007  1.6405
 2076TIP3    H227644   3.615   3.479   2.446 -2.6081  1.2734 -0.5145
 2077TIP3   OH227645   1.910   2.168  14.994 -0.5285 -0.5757 -0.9299
 2077TIP3    H127646   1.924   2.172  14.899 -0.2051 -0.6634 -0.8858
 2077TIP3    H227647   1.964   2.095  15.024  0.2866  0.1796 -0.5172
 2078TIP3   OH227648   2.576   0.676  14.339  0.5665 -0.0387 -0.5143
 2078TIP3    H127649   2.569   0.582  14.319 -1.4661 -0.0386 -0.0721
 2078TIP3    H227650   2.555   0.682  14.432  2.4017  0.7140 -0.1173
 2079TIP3   OH227651   2.798   1.542   4.445  0.1685  0.1904 -0.7606
 2079TIP3    H127652   2.764   1.631   4.431  1.5620  0.7773 -0.5898
 2079TIP3    H227653   2.734   1.485   4.403 -1.5401  1.1523  0.3865
 2080TIP3   OH227654   1.448   3.406   2.005 -0.0063 -0.4544  0.1820
 2080TIP3    H127655   1.511   3.354   2.055  0.2572  0.5796  0.9369
 2080TIP3    H227656   1.496   3.485   1.981 -1.1299  0.5375  1.1218
 2081TIP3   OH227657   5.221   1.748   5.426 -0.0902 -0.1248 -0.4832
 2081TIP3    H127658   5.247   1.840   5.425  0.6013 -0.2858  0.6765
 2081TIP3    H227659   5.128   1.749   5.446  0.1467  0.3028  0.6806
 2082TIP3   OH227660   3.014   4.926  12.355  0.1186 -0.1051  0.4623
 2082TIP3    H127661   2.971   5.009  12.336  1.7494  0.7566  0.3145
 2082TIP3    H227662   2.986   4.867  12.284 -1.4122  0.1520  0.8278
 2083TIP3   OH227663   3.059   4.374  11.768 -0.1129 -0.5719 -0.1659
 2083TIP3    H127664   3.092   4.301  11.715 -0.1059 -1.2546  0.7567
 2083TIP3    H227665   3.135   4.431  11.779  0.5828 -1.7108  1.2326
 2084TIP3   OH227666   6.469   5.891  11.047  0.0674 -0.3212  0.3479
 2084TIP3    H127667   6.456   5.828  10.975  1.7382 -1.4877  1.0047
 2084TIP3    H227668   6.381   5.923  11.066 -0.4499  0.0008 -2.1551
 2085TIP3   OH227669   6.255   1.632   4.285  0.8875 -0.0532 -0.1537
 2085TIP3    H127670   6.266   1.546   4.324 -1.6837  0.4068  1.8584
 2085TIP3    H227671   6.298   1.692   4.347 -0.1920  0.3747  0.1964
 2086TIP3   OH227672   5.810   3.016  13.366  0.6160 -0.9345 -0.7466
 2086TIP3    H127673   5.803   2.921  13.356  0.0834 -0.7863 -2.1643
 2086TIP3    H227674   5.808   3.049  13.276  0.8394  0.4168 -0.2785
 2087TIP3   OH227675   0.765   2.146  14.494 -0.4250  0.5201 -0.1249
 2087TIP3    H127676   0.802   2.230  14.468  1.1328  0.4906  1.7391
 2087TIP3    H227677   0.696   2.167  14.557 -0.0515  0.4216  0.3237
 2088TIP3   OH227678   1.285   1.627   4.456  0.2216 -0.2437  0.0018
 2088TIP3    H127679   1.199   1.595   4.486  0.4065  0.1819  1.0024
 2088TIP3    H227680   1.275   1.636   4.361 -0.1676 -2.2767 -0.1970
 2089TIP3   OH227681   0.244   2.741  11.133  0.3254 -0.2521  0.7223
 2089TIP3    H127682   0.185   2.669  11.157  1.5350 -1.5976 -0.1628
 2089TIP3    H227683   0.331   2.703  11.136  1.1212  1.4966  1.2582
 2090TIP3   OH227684   5.219   6.344  13.748  0.8248  0.0731 -0.0490
 2090TIP3    H127685   5.244   6.366  13.658  0.1598  1.0755 -0.0059
 2090TIP3    H227686   5.156   6.272  13.738  0.5631  0.3439 -0.4099
 2091TIP3   OH227687   0.444   4.891  12.124 -0.0199  0.3040 -0.0074
 2091TIP3    H127688   0.414   4.900  12.033  2.5541  0.5055 -0.9310
 2091TIP3    H227689   0.471   4.800  12.131 -0.0863  0.3239  0.5341
 2092TIP3   OH227690   0.663   4.101   2.544  0.7191 -0.2357  0.7825
 2092TIP3    H127691   0.678   4.192   2.570 -0.5227  0.2583 -0.1921
 2092TIP3    H227692   0.568   4.092   2.539  0.8529 -1.2916 -0.1884
 2093TIP3   OH227693   2.552   2.692  17.162  0.3356  0.0535 -0.3041
 2093TIP3    H127694   2.519   2.667  17.248  0.4114 -1.1286 -0.5938
 2093TIP3    H227695   2.644   2.712  17.176  0.1089  0.8901  0.0613
 2094TIP3   OH227696   0.252   4.302  15.099  0.4650 -0.1861  0.3507
 2094TIP3    H127697   0.316   4.234  15.076  0.3558 -0.1342 -0.1159
 2094TIP3    H227698   0.266   4.370  15.033 -0.0216 -0.1431  0.2894
 2095TIP3   OH227699   3.324   2.407  12.546  0.3864  0.0918  0.5643
 2095TIP3    H127700   3.277   2.420  12.464 -0.1329  1.1394  1.0181
 2095TIP3    H227701   3.258   2.416  12.614  1.1555  1.2827  1.1951
 2096TIP3   OH227702   2.276   5.656   2.763 -0.0564 -0.3473  0.3065
 2096TIP3    H127703   2.329   5.613   2.696  0.4850 -1.7432  1.5881
 2096TIP3    H227704   2.220   5.587   2.798 -1.0699  0.5928  0.6097
 2097TIP3   OH227705   2.417   6.512   4.288  0.8044  0.4362  0.2203
 2097TIP3    H127706   2.360   6.441   4.259  1.5449 -0.3946  0.7353
 2097TIP3    H227707   2.419   6.573   4.214 -2.3503  1.5606  0.9268
 2098TIP3   OH227708   1.967   0.262  15.787  0.4121 -0.3439 -0.0999
 2098TIP3    H127709   1.931   0.341  15.746 -0.0881  0.4509  1.7185
 2098TIP3    H227710   2.054   0.288  15.816  0.7058 -0.8436 -0.5280
 2099TIP3   OH227711   2.734   2.869   2.124  0.1332  0.2718 -0.8069
 2099TIP3    H127712   2.728   2.773   2.124  1.9127  0.1045 -1.4038
 2099TIP3    H227713   2.664   2.898   2.066  0.7508 -0.8197 -2.1614
 2100TIP3   OH227714   5.653   1.660   1.753  0.0657 -0.5675 -0.5807
 2100TIP3    H127715   5.704   1.725   1.705  1.3943 -1.1609 -0.0303
 2100TIP3    H227716   5.620   1.707   1.830  1.2397 -0.5848 -0.0460
 2101TIP3   OH227717   3.059   0.361   1.424  0.1526 -0.6056  0.1348
 2101TIP3    H127718   3.102   0.441   1.451  0.8765 -0.3852 -1.5514
 2101TIP3    H227719   3.110   0.291   1.464  1.2847 -0.3002 -0.7363
 2102TIP3   OH227720   0.826   0.507   0.458 -0.0331  0.1198 -0.1813
 2102TIP3    H127721   0.783   0.587   0.487 -1.0611 -0.6816  0.5505
 2102TIP3    H227722   0.854   0.463   0.539  2.5627  0.8007 -0.6286
 2103TIP3   OH227723   0.367   1.005   2.641 -0.1580 -0.2455  0.2693
 2103TIP3    H127724   0.279   1.040   2.624 -0.2042 -0.3943  0.2010
 2103TIP3    H227725   0.410   1.073   2.693  0.3222  0.6677 -1.2759
 2104TIP3   OH227726   2.599   3.809   5.137  0.7676 -0.4130 -0.4735
 2104TIP3    H127727   2.536   3.753   5.182 -0.0180 -0.0371 -1.0855
 2104TIP3    H227728   2.683   3.788   5.177  0.1903 -0.6015  0.6718
 2105TIP3   OH227729   1.089   0.079  16.107 -0.2011  0.1783 -0.5668
 2105TIP3    H127730   1.083   0.067  16.013  0.6629  0.1783 -0.6235
 2105TIP3    H227731   1.160   0.142  16.120 -1.1687  1.1852  0.0152
 2106TIP3   OH227732   6.755   4.196  13.544 -0.5095  0.2646 -0.0676
 2106TIP3    H127733   6.792   4.141  13.475  2.0082  2.0401 -0.2461
 2106TIP3    H227734   6.700   4.259  13.498 -0.7045  0.0085 -0.1907
 2107TIP3   OH227735   4.366   2.293   2.605 -0.2816 -0.0748 -0.3548
 2107TIP3    H127736   4.410   2.306   2.689 -0.2548  1.7198 -0.6075
 2107TIP3    H227737   4.307   2.220   2.619 -0.4476  0.3482  1.2951
 2108TIP3   OH227738   6.258   0.278  14.151  0.5783 -0.0571 -0.2193
 2108TIP3    H127739   6.249   0.291  14.246  1.5780  0.5536 -0.1992
 2108TIP3    H227740   6.237   0.186  14.138  2.1873 -0.6331  0.8685
 2109TIP3   OH227741   5.571   1.285   4.246  0.9780  0.0229 -0.1121
 2109TIP3    H127742   5.583   1.348   4.318 -1.3543 -2.2439  2.5207
 2109TIP3    H227743   5.639   1.219   4.261  0.6895 -0.2850 -0.1479
 2110TIP3   OH227744   0.610   0.266   2.025 -0.3367 -0.4244 -0.3864
 2110TIP3    H127745   0.531   0.287   1.976 -1.6020 -1.9571  0.8567
 2110TIP3    H227746   0.658   0.205   1.969 -1.5925 -1.8777  0.0346
 2111TIP3   OH227747   6.552   0.232   2.168  0.4541  0.1928 -0.0352
 2111TIP3    H127748   6.485   0.277   2.219 -0.4783  0.0609 -1.1116
 2111TIP3    H227749   6.634   0.272   2.196 -0.0037  0.0807  1.6052
 2112TIP3   OH227750   2.256   5.392  14.082  0.1568  0.2328 -0.2713
 2112TIP3    H127751   2.327   5.351  14.131 -0.4575 -0.6569 -0.0960
 2112TIP3    H227752   2.180   5.386  14.140 -0.7488 -1.4294 -1.5445
 2113TIP3   OH227753   0.404   1.960   3.241  0.1934 -0.3911  0.2013
 2113TIP3    H127754   0.390   1.874   3.200 -1.0904  1.0360 -2.6795
 2113TIP3    H227755   0.325   1.976   3.292 -0.8416  0.1149 -1.4617
 2114TIP3   OH227756   1.619   6.172  12.771 -0.3174  0.4662 -0.0812
 2114TIP3    H127757   1.590   6.080  12.771  0.0394  0.3546  0.0726
 2114TIP3    H227758   1.679   6.178  12.697  0.1379  0.4225  0.2801
 2115TIP3   OH227759   3.738   4.184   3.689  0.3085  0.1394  0.6306
 2115TIP3    H127760   3.670   4.165   3.753 -0.7206  0.4318 -0.3299
 2115TIP3    H227761   3.712   4.269   3.652  0.5912 -0.2559 -0.5111
 2116TIP3   OH227762   0.864   1.968  14.206 -0.2976  0.1826 -0.3194
 2116TIP3    H127763   0.879   1.887  14.156 -1.4371 -0.5176  0.4285
 2116TIP3    H227764   0.853   2.035  14.139 -0.0614 -0.4156 -0.9749
 2117TIP3   OH227765   4.201   1.806   5.993  0.5634 -0.0052  0.4471
 2117TIP3    H127766   4.155   1.873   6.042  4.4837  2.2826  1.3686
 2117TIP3    H227767   4.225   1.848   5.910  0.9222 -1.1385 -0.0521
 2118TIP3   OH227768   0.586   6.099  15.739  0.6208  0.1487 -0.0292
 2118TIP3    H127769   0.677   6.081  15.765 -0.0632 -2.4099  0.8573
 2118TIP3    H227770   0.571   6.042  15.664 -0.2096  0.6740 -0.2694
 2119TIP3   OH227771   0.217   6.333  10.359 -0.0589  0.2034 -0.4310
 2119TIP3    H127772   0.148   6.273  10.387  0.5595 -0.4734 -0.3184
 2119TIP3    H227773   0.179   6.381  10.286 -0.8526  0.2650  0.0137
 2120TIP3   OH227774   4.365   0.225  11.196  0.2769 -0.2459  0.0458
 2120TIP3    H127775   4.451   0.194  11.165  0.4666 -0.4601  0.7695
 2120TIP3    H227776   4.375   0.321  11.200  0.2018 -0.1986 -0.6734
 2121TIP3   OH227777   6.074   5.022   2.247  0.2722 -0.2093  0.4938
 2121TIP3    H127778   6.121   4.976   2.177 -0.1201 -0.9558  0.7062
 2121TIP3    H227779   6.062   5.110   2.214 -0.0990 -0.6142 -0.4823
 2122TIP3   OH227780   5.964   2.974   2.777 -0.0064  0.5447  0.4262
 2122TIP3    H127781   5.992   3.035   2.709  2.1701 -0.9538 -0.1262
 2122TIP3    H227782   5.870   2.967   2.766  0.1065  1.4629 -1.4900
 2123TIP3   OH227783   2.272   0.721  14.817  0.3253  0.4625 -0.2574
 2123TIP3    H127784   2.332   0.657  14.781  0.5453  0.8206 -0.5365
 2123TIP3    H227785   2.321   0.764  14.888  0.0445  0.0597  0.1858
 2124TIP3   OH227786   3.975   2.342  13.061 -0.3230  0.1896  0.6412
 2124TIP3    H127787   3.923   2.280  13.010 -1.9388 -0.4415  2.9275
 2124TIP3    H227788   4.065   2.311  13.050 -0.9547 -1.8691  0.7526
 2125TIP3   OH227789   3.294   6.416   4.170 -0.8455 -0.0380  0.2362
 2125TIP3    H127790   3.280   6.481   4.239  0.0427 -0.0777  0.4668
 2125TIP3    H227791   3.214   6.419   4.117 -1.3328  0.3368  0.9830
 2126TIP3   OH227792   1.709   1.377  14.520  0.1014  0.3476 -0.1700
 2126TIP3    H127793   1.771   1.386  14.448  0.2405  1.4795  0.0826
 2126TIP3    H227794   1.747   1.310  14.577  0.5263  0.2325 -0.5873
 2127TIP3   OH227795   6.280   3.391  14.895 -0.5851  0.1065  0.7763
 2127TIP3    H127796   6.191   3.417  14.918 -0.9159 -1.2677  1.0955
 2127TIP3    H227797   6.270   3.321  14.831  0.2798  0.4190  0.2804
 2128TIP3   OH227798   6.426   3.688   4.236  0.0161  0.1850  0.2160
 2128TIP3    H127799   6.395   3.709   4.148  1.3077  0.3757 -0.2143
 2128TIP3    H227800   6.395   3.599   4.252  1.0875 -0.4500 -1.0679
 2129TIP3   OH227801   6.324   5.125   5.731  0.7757 -0.3577  0.7374
 2129TIP3    H127802   6.320   5.151   5.823  1.8583 -0.3104  0.7894
 2129TIP3    H227803   6.269   5.189   5.686  1.1786  0.3410  1.2106
 2130TIP3   OH227804   2.023   0.626  12.284  0.1624 -0.3715 -0.1179
 2130TIP3    H127805   1.954   0.561  12.270  0.2959 -0.8115  1.1566
 2130TIP3    H227806   2.053   0.648  12.196 -1.2739 -0.5226 -0.6704
 2131TIP3   OH227807   3.313   6.119   0.418  0.9809 -0.3096 -0.1978
 2131TIP3    H127808   3.288   6.162   0.336  3.3902 -0.7574 -1.2394
 2131TIP3    H227809   3.338   6.191   0.476 -1.4124  0.0615  0.4700
 2132TIP3   OH227810   5.121   5.865   3.721 -0.7704  0.4207  0.1865
 2132TIP3    H127811   5.181   5.940   3.715 -0.7153  0.4097  0.5833
 2132TIP3    H227812   5.087   5.869   3.810 -1.2629  0.3469  0.0057
 2133TIP3   OH227813   5.495   5.326  11.497  0.3609  0.6268  0.0682
 2133TIP3    H127814   5.511   5.260  11.564  0.9929  0.5387 -0.1650
 2133TIP3    H227815   5.416   5.295  11.451 -0.5575  1.1005  1.2717
 2134TIP3   OH227816   5.726   0.081  11.206  0.1535  0.0502  0.0996
 2134TIP3    H127817   5.698   0.086  11.297  0.5004 -2.4842  0.4178
 2134TIP3    H227818   5.651   0.113  11.156  0.1551  1.9900  1.2459
 2135TIP3   OH227819   3.862   4.209   2.835 -0.0048  0.3061 -0.0699
 2135TIP3    H127820   3.934   4.193   2.896 -0.2290  0.0755  0.1303
 2135TIP3    H227821   3.906   4.238   2.754  0.3975 -1.0056 -0.3478
 2136TIP3   OH227822   1.163   4.652   4.002 -0.4699  0.0026  0.5103
 2136TIP3    H127823   1.177   4.644   4.096 -0.1355 -0.4927  0.4286
 2136TIP3    H227824   1.122   4.569   3.977  1.3310 -0.7752 -0.0893
 2137TIP3   OH227825   3.346   5.187   2.310 -0.5163 -0.8278 -0.1013
 2137TIP3    H127826   3.416   5.140   2.354 -0.9839  0.7030  2.5538
 2137TIP3    H227827   3.266   5.156   2.353 -1.0518  0.4180 -0.1465
 2138TIP3   OH227828   4.969   1.698   1.541  0.1714 -0.1238  0.9260
 2138TIP3    H127829   4.944   1.769   1.600 -0.8270 -0.5905  1.0854
 2138TIP3    H227830   5.059   1.677   1.566 -0.4929 -0.8755  2.8682
 2139TIP3   OH227831   1.433   3.609  11.298  0.7694 -0.2368  0.4510
 2139TIP3    H127832   1.524   3.612  11.329  0.6124  1.4326  0.8584
 2139TIP3    H227833   1.441   3.616  11.203  1.0933 -1.4141  0.3693
 2140TIP3   OH227834   5.924   6.342   3.850  0.3818 -0.1811 -0.4866
 2140TIP3    H127835   5.925   6.384   3.764  0.3237  0.8481 -0.0018
 2140TIP3    H227836   5.944   6.413   3.912 -0.2695 -0.7545  0.4101
 2141TIP3   OH227837   5.451   0.399  14.063 -0.2929  0.0293 -0.6287
 2141TIP3    H127838   5.484   0.320  14.106 -1.1862  0.5559  1.1210
 2141TIP3    H227839   5.524   0.428  14.007  0.7764 -0.9328  0.2117
 2142TIP3   OH227840   0.482   0.965  14.062  0.1299  0.1678 -0.2624
 2142TIP3    H127841   0.504   0.988  14.152 -0.9978  0.1118  0.0478
 2142TIP3    H227842   0.435   0.882  14.070 -0.9850  0.7238 -0.7658
 2143TIP3   OH227843   2.709   1.702   3.834 -0.2214  0.2229 -0.2054
 2143TIP3    H127844   2.764   1.702   3.913  0.3033  3.6826 -0.3889
 2143TIP3    H227845   2.621   1.723   3.866  0.1232  2.3561 -0.4742
 2144TIP3   OH227846   3.150   3.849  15.466  0.0014 -0.4155  0.1703
 2144TIP3    H127847   3.090   3.846  15.540 -0.6702  2.4058 -0.1496
 2144TIP3    H227848   3.097   3.824  15.390  0.1865 -1.3606  0.3346
 2145TIP3   OH227849   3.474   3.267   5.085 -0.3716  0.4539  0.5119
 2145TIP3    H127850   3.527   3.202   5.130  0.5145  1.0777  0.4119
 2145TIP3    H227851   3.538   3.328   5.048 -1.1887  1.8160  1.2639
 2146TIP3   OH227852   1.865   2.184   2.352  0.6674  0.0181 -0.0803
 2146TIP3    H127853   1.838   2.275   2.346 -0.5721 -0.3774 -0.9508
 2146TIP3    H227854   1.811   2.148   2.423  0.4024 -0.2783 -0.4283
 2147TIP3   OH227855   5.903   4.358  15.195 -0.1118  0.3756 -0.0093
 2147TIP3    H127856   5.902   4.314  15.280 -1.6228  0.4313  0.0204
 2147TIP3    H227857   5.850   4.302  15.139  2.9487 -1.0608 -1.6854
 2148TIP3   OH227858   1.649   5.498   5.031 -0.3857  0.0192  0.4317
 2148TIP3    H127859   1.562   5.469   5.004 -0.2723 -0.0949  0.1863
 2148TIP3    H227860   1.709   5.435   4.991 -0.1863  0.1310  0.5523
 2149TIP3   OH227861   6.381   6.344  15.493  0.0739  0.0775 -0.0369
 2149TIP3    H127862   6.437   6.267  15.484 -1.1144 -1.0133  1.3375
 2149TIP3    H227863   6.412   6.405  15.426  1.8575 -1.0939 -0.3405
 2150TIP3   OH227864   4.582   1.354   2.024 -0.5150  0.6057  0.5823
 2150TIP3    H127865   4.543   1.442   2.026  2.3378  1.9959  1.0452
 2150TIP3    H227866   4.647   1.359   1.954 -0.5497 -1.3085  0.3710
 2151TIP3   OH227867   1.459   3.309  12.606  0.4079 -0.2431 -0.0295
 2151TIP3    H127868   1.550   3.288  12.587  0.4660  2.0141 -2.8022
 2151TIP3    H227869   1.410   3.231  12.578  1.3016 -0.6777 -0.4072
 2152TIP3   OH227870   2.129   6.429  16.750 -0.4527  0.0157 -0.2953
 2152TIP3    H127871   2.196   6.376  16.707 -0.0140 -0.1057  0.5138
 2152TIP3    H227872   2.069   6.365  16.790 -1.6679  0.1037 -1.8892
 2153TIP3   OH227873   5.003   0.883  14.388  0.6880 -0.1358  0.1521
 2153TIP3    H127874   4.949   0.936  14.329  0.2847  1.5431  1.8980
 2153TIP3    H227875   4.954   0.802  14.400  0.5084 -0.2631 -1.3403
 2154TIP3   OH227876   2.075   4.213   5.347 -0.0468  0.7389  0.0441
 2154TIP3    H127877   2.085   4.307   5.338 -2.4569  1.1272  0.7284
 2154TIP3    H227878   2.029   4.201   5.429  0.2360 -1.0575 -0.0072
 2155TIP3   OH227879   5.382   0.492  12.469 -0.1509 -0.1720 -0.0555
 2155TIP3    H127880   5.457   0.543  12.437  1.5919 -2.4600  0.1036
 2155TIP3    H227881   5.327   0.480  12.391  1.3021 -1.1407 -0.9807
 2156TIP3   OH227882   1.279   2.539   5.448  0.6553 -0.2350  0.6472
 2156TIP3    H127883   1.359   2.558   5.400  1.6789 -0.4702  2.1914
 2156TIP3    H227884   1.266   2.616   5.503 -0.8617  0.3158 -0.4117
 2157TIP3   OH227885   3.909   2.621  12.710 -0.3549 -0.3047  0.2006
 2157TIP3    H127886   3.898   2.700  12.657  1.5791  1.2259  1.9388
 2157TIP3    H227887   3.984   2.576  12.671  2.6049  2.0049  2.7289
 2158TIP3   OH227888   2.208   5.290   0.136  0.7304 -0.1187  0.3804
 2158TIP3    H127889   2.171   5.257   0.054 -0.0916  1.6159 -0.0102
 2158TIP3    H227890   2.156   5.248   0.205  0.1773 -0.1781 -0.0668
 2159TIP3   OH227891   5.910   0.566   5.737 -0.1143  0.1140  0.2491
 2159TIP3    H127892   5.815   0.567   5.724  0.0522  0.8214 -1.1665
 2159TIP3    H227893   5.926   0.630   5.805 -0.6349  0.1367  0.3523
 2160TIP3   OH227894   6.173   1.374  16.816 -0.0753  0.1579 -0.1856
 2160TIP3    H127895   6.092   1.363  16.865 -0.8469  0.0990 -1.4264
 2160TIP3    H227896   6.164   1.315  16.741  2.0858 -1.5696  0.7763
 2161TIP3   OH227897   0.019   1.075  15.131  0.1633 -0.1901 -0.5581
 2161TIP3    H127898  -0.044   1.013  15.168  0.3244 -0.0351 -0.0182
 2161TIP3    H227899   0.074   1.100  15.205  0.5732  0.0250 -0.9333
 2162TIP3   OH227900   0.840   6.036  11.427  0.1317  0.0418 -0.0295
 2162TIP3    H127901   0.879   6.007  11.345  3.2005  0.7327  1.0581
 2162TIP3    H227902   0.816   6.127  11.410  0.5908  0.1311 -0.2219
 2163TIP3   OH227903   3.686   5.295  15.934  0.9147  0.6638 -0.0654
 2163TIP3    H127904   3.692   5.227  16.002  1.4068  1.5493  0.8071
 2163TIP3    H227905   3.642   5.368  15.978 -1.3265  0.2866 -1.5212
 2164TIP3   OH227906   2.791   0.520  17.136  0.1956  0.8561  0.5649
 2164TIP3    H127907   2.789   0.464  17.058  1.6145 -0.7855  1.6423
 2164TIP3    H227908   2.700   0.548  17.147 -0.5913 -1.2484 -0.0328
 2165TIP3   OH227909   3.247   3.422  12.327  0.0781  0.0972 -0.3969
 2165TIP3    H127910   3.263   3.329  12.315 -1.3287 -0.4362  1.3020
 2165TIP3    H227911   3.210   3.429  12.415 -0.5989  2.1617 -0.7701
 2166TIP3   OH227912   4.033   3.731   4.394  0.5362  0.1204  0.2184
 2166TIP3    H127913   3.945   3.692   4.387  0.1197  0.6800  1.7619
 2166TIP3    H227914   4.075   3.711   4.311 -1.4685  0.8578 -1.0363
 2167TIP3   OH227915   1.987   3.716   0.891  0.5506 -0.1655  0.3864
 2167TIP3    H127916   2.022   3.803   0.910 -0.3980  0.2536  0.2777
 2167TIP3    H227917   1.957   3.684   0.976 -0.2560  0.1444  0.2233
 2168TIP3   OH227918   0.184   1.842   1.876 -0.0223  0.2733 -0.3378
 2168TIP3    H127919   0.148   1.931   1.870 -0.8956 -0.1388 -1.5309
 2168TIP3    H227920   0.228   1.840   1.961  1.8792  2.5162 -1.1639
 2169TIP3   OH227921   1.932   0.094  16.346 -0.0571 -0.1110 -0.1519
 2169TIP3    H127922   2.008   0.144  16.316  0.3609 -0.1158  0.8678
 2169TIP3    H227923   1.965   0.005  16.358 -0.3043 -0.1861 -0.0228
 2170TIP3   OH227924   4.950   5.378  13.176  0.3690  0.1622  0.1921
 2170TIP3    H127925   4.893   5.305  13.153 -0.5361  1.2985 -1.3795
 2170TIP3    H227926   5.036   5.354  13.141  1.1211 -1.7501  2.9363
 2171TIP3   OH227927   1.658   6.350   2.394 -0.1518  0.2095  0.0476
 2171TIP3    H127928   1.660   6.444   2.413  1.5573  0.4504 -1.1624
 2171TIP3    H227929   1.648   6.345   2.299  2.5058 -0.7327 -0.2657
 2172TIP3   OH227930   5.141   6.611  15.352  0.0649  0.0087  0.4621
 2172TIP3    H127931   5.059   6.611  15.402 -0.0714  3.7051  0.5515
 2172TIP3    H227932   5.116   6.581  15.264 -1.3757  0.8515  0.5564
 2173TIP3   OH227933   0.655   6.183  15.118  0.5426 -0.2506 -0.5183
 2173TIP3    H127934   0.637   6.235  15.196 -1.1534 -0.7163 -0.5623
 2173TIP3    H227935   0.711   6.239  15.064 -0.1902  1.0177 -0.0048
 2174TIP3   OH227936   2.767   2.740   6.320 -0.5598  0.3866  0.2657
 2174TIP3    H127937   2.832   2.751   6.390 -0.9287 -0.7668  0.8062
 2174TIP3    H227938   2.708   2.815   6.331  0.1946  0.9933  0.2806
 2175TIP3   OH227939   5.306   5.945  10.584 -0.5541  0.0794  0.0373
 2175TIP3    H127940   5.223   5.901  10.568 -1.8560  2.0963  0.8158
 2175TIP3    H227941   5.282   6.036  10.599  1.8504  0.7941 -0.0211
 2176TIP3   OH227942   3.846   5.891  15.898 -0.7298  0.0267 -0.0653
 2176TIP3    H127943   3.804   5.884  15.812  0.1607  0.2337 -0.5337
 2176TIP3    H227944   3.916   5.956  15.885 -0.1150 -0.4833  0.6286
 2177TIP3   OH227945   0.080   5.176  17.218  0.2302  0.1926 -0.3789
 2177TIP3    H127946   0.078   5.092  17.172 -1.8080 -0.6916  1.2037
 2177TIP3    H227947   0.158   5.171  17.273  3.2865  1.6294 -4.0441
 2178TIP3   OH227948   2.400   6.049  11.739 -0.2647  0.1702 -0.0033
 2178TIP3    H127949   2.432   6.098  11.814  1.7663 -2.6075  1.0700
 2178TIP3    H227950   2.313   6.019  11.765 -0.0720  0.2503  0.7374
 2179TIP3   OH227951   4.620   6.727  11.260  0.0091 -0.4927  0.0696
 2179TIP3    H127952   4.571   6.650  11.235 -0.8913  0.2034 -0.3537
 2179TIP3    H227953   4.604   6.790  11.190  2.0715 -0.4608 -0.4501
 2180TIP3   OH227954   5.681   1.305  15.583 -0.4653  0.1753  0.0743
 2180TIP3    H127955   5.747   1.370  15.605 -1.3820  0.7208  1.4060
 2180TIP3    H227956   5.702   1.229  15.638 -0.6590  0.1801  0.1587
 2181TIP3   OH227957   1.323   6.479  15.872  0.1438  0.2220  0.1432
 2181TIP3    H127958   1.311   6.409  15.808  0.3438 -0.3521  0.7202
 2181TIP3    H227959   1.350   6.434  15.952  1.0408  1.0258  0.3080
 2182TIP3   OH227960   5.658   6.476   6.437 -0.0945 -0.1853 -0.2213
 2182TIP3    H127961   5.694   6.399   6.480 -0.7022  0.6753  1.9355
 2182TIP3    H227962   5.715   6.490   6.361  1.8880 -0.9557  1.0528
 2183TIP3   OH227963   4.519   4.513   4.192 -0.1631  0.5426 -0.0465
 2183TIP3    H127964   4.479   4.599   4.182  2.6714  2.2317  1.8121
 2183TIP3    H227965   4.612   4.531   4.204  0.3118 -2.6537  2.1789
 2184TIP3   OH227966   2.387   2.986  14.893  0.4907  0.2825  0.4889
 2184TIP3    H127967   2.407   2.918  14.829  0.3601  1.8783 -1.3518
 2184TIP3    H227968   2.418   3.067  14.852 -0.5068  1.5102  2.0301
 2185TIP3   OH227969   2.789   3.128   1.625 -0.2311 -0.0013 -1.1328
 2185TIP3    H127970   2.750   3.107   1.710 -1.4819  2.2322 -1.1004
 2185TIP3    H227971   2.878   3.154   1.646 -0.5094  0.4794 -0.5009
 2186TIP3   OH227972   4.566   4.199  13.044 -0.4745 -0.0907 -0.3673
 2186TIP3    H127973   4.551   4.135  12.974  1.1538  0.0470 -0.8853
 2186TIP3    H227974   4.489   4.256  13.041 -1.0931 -0.9379 -1.0968
 2187TIP3   OH227975   1.243   2.752  14.298  0.4220 -0.7290 -0.5676
 2187TIP3    H127976   1.183   2.766  14.225 -0.9511  0.8989  0.7614
 2187TIP3    H227977   1.253   2.657  14.304  0.7560 -0.8942 -2.9508
 2188TIP3   OH227978   0.040   4.300  15.274  0.1213  0.0171  0.0556
 2188TIP3    H127979   0.126   4.313  15.234 -0.5258  1.3574 -0.9976
 2188TIP3    H227980   0.048   4.217  15.321  2.2438  0.5135  0.7076
 2189TIP3   OH227981   2.361   3.188  12.647 -0.3931  0.8255  0.3167
 2189TIP3    H127982   2.309   3.170  12.568 -0.6636 -0.0673  0.6751
 2189TIP3    H227983   2.424   3.254  12.620 -0.4165  0.4659 -0.6784
 2190TIP3   OH227984   0.540   2.925   1.899  0.4209 -0.1852 -0.6112
 2190TIP3    H127985   0.558   2.991   1.831  1.8867 -1.4175 -1.4603
 2190TIP3    H227986   0.571   2.966   1.980  1.5572  0.1017 -1.1634
 2191TIP3   OH227987   3.559   0.025   2.389  0.5821 -0.4527  1.0230
 2191TIP3    H127988   3.618   0.045   2.462 -1.1062  1.2792  2.0309
 2191TIP3    H227989   3.505   0.104   2.380  0.1897 -0.9365 -1.6077
 2192TIP3   OH227990   3.743   4.492   2.867  0.6901  0.2544 -0.0346
 2192TIP3    H127991   3.770   4.407   2.832  1.3953  0.0015  1.0750
 2192TIP3    H227992   3.824   4.532   2.898  0.0545  0.2864  1.6618
 2193TIP3   OH227993   0.970   2.140   6.080  0.9989 -0.0770 -0.4865
 2193TIP3    H127994   0.955   2.235   6.079  0.0547 -0.0756  2.3824
 2193TIP3    H227995   0.883   2.102   6.068  1.1514 -0.5191 -0.2314
 2194TIP3   OH227996   1.238   3.090   5.377  0.4050 -0.1946 -0.6275
 2194TIP3    H127997   1.259   3.036   5.301  1.1986 -0.7824 -0.0038
 2194TIP3    H227998   1.169   3.149   5.346 -0.6432 -1.6928 -1.2825
 2195TIP3   OH227999   1.068   6.531  15.237 -0.0327 -0.4926  0.1986
 2195TIP3    H128000   1.013   6.488  15.171  0.0554  1.3047 -1.1349
 2195TIP3    H228001   1.131   6.581  15.186  1.1112 -0.3539  1.6991
 2196TIP3   OH228002   4.108   0.079   0.056 -0.6526 -0.9395  0.0815
 2196TIP3    H128003   4.039   0.146   0.054  1.0319  0.8914 -1.2063
 2196TIP3    H228004   4.177   0.118   0.110  0.4775 -1.4929 -0.9194
 2197TIP3   OH228005   0.075   4.526   3.076 -0.3280  0.0261  0.2971
 2197TIP3    H128006   0.003   4.465   3.091 -0.2225  0.4245  2.6488
 2197TIP3    H228007   0.049   4.607   3.121 -0.5293  1.8864 -2.8402
 2198TIP3   OH228008   0.006   2.498  13.920 -0.2479 -0.1597 -0.4341
 2198TIP3    H128009   0.019   2.562  13.990  2.4451  0.5215 -1.4419
 2198TIP3    H228010   0.022   2.547  13.840 -1.9684 -1.2342 -1.4895
 2199TIP3   OH228011   1.854   5.720   1.277 -0.0436 -0.0474  0.7286
 2199TIP3    H128012   1.891   5.809   1.276 -0.0098  0.0165 -2.6928
 2199TIP3    H228013   1.763   5.731   1.250 -0.0377 -1.0532  0.2564
 2200TIP3   OH228014   1.570   5.701   4.832 -0.4366 -0.4009  0.5839
 2200TIP3    H128015   1.627   5.778   4.824  1.8778 -2.1761 -2.3082
 2200TIP3    H228016   1.621   5.639   4.883 -0.3158 -1.5264 -0.8504
 2201TIP3   OH228017   1.854   1.322   0.507 -0.6606 -0.4085  0.4812
 2201TIP3    H128018   1.826   1.357   0.422  0.2495 -1.8910 -0.4865
 2201TIP3    H228019   1.893   1.397   0.552 -0.8367  0.3314 -0.5520
 2202TIP3   OH228020   4.882   0.449  13.806 -0.2535  0.2212 -0.8195
 2202TIP3    H128021   4.914   0.396  13.879 -1.2900  0.7205  0.0211
 2202TIP3    H228022   4.925   0.534  13.818 -2.9764  1.4733  1.3160
 2203TIP3   OH228023   2.653   0.845   3.179  0.0549 -0.0855  0.1192
 2203TIP3    H128024   2.725   0.881   3.127  0.1393  0.0777  0.3468
 2203TIP3    H228025   2.602   0.794   3.116  2.0063 -2.7238  0.5176
 2204TIP3   OH228026   1.634   3.651  12.865 -0.1719 -0.0747  0.0562
 2204TIP3    H128027   1.557   3.594  12.865  0.3425 -0.8436 -1.7092
 2204TIP3    H228028   1.708   3.590  12.862  0.4964  0.6753  0.8345
 2205TIP3   OH228029   2.449   4.043   0.646  0.5502 -0.1797  0.3448
 2205TIP3    H128030   2.427   3.952   0.666 -3.3214  1.0895  3.2569
 2205TIP3    H228031   2.403   4.061   0.564  1.7344 -0.8899 -0.5041
 2206TIP3   OH228032   1.779   5.868   4.642 -0.5437  0.0177 -0.7757
 2206TIP3    H128033   1.858   5.815   4.627 -0.1353  0.1086  0.8141
 2206TIP3    H228034   1.791   5.945   4.587  0.6952  0.2212 -0.2563
 2207TIP3   OH228035   6.581   6.663  17.105 -0.0115  0.5346  0.4357
 2207TIP3    H128036   6.502   6.713  17.088 -0.3539  0.7681  2.4926
 2207TIP3    H228037   6.651   6.728  17.107 -0.1587  0.6776  1.1246
 2208TIP3   OH228038   3.280   1.338   4.751  0.1302 -0.4581 -0.5592
 2208TIP3    H128039   3.199   1.387   4.750 -0.2821 -1.1307 -0.6999
 2208TIP3    H228040   3.253   1.246   4.756  0.8804 -0.6477  0.7273
 2209TIP3   OH228041   0.483   3.408  12.342 -0.1121 -0.4376 -0.1634
 2209TIP3    H128042   0.490   3.359  12.260  2.7994  0.2391 -0.4578
 2209TIP3    H228043   0.529   3.491  12.323 -2.3540  1.2160  1.1652
 2210TIP3   OH228044   6.399   0.298  11.317  0.0489  0.0066  1.0164
 2210TIP3    H128045   6.345   0.225  11.347 -0.3559  0.3598  1.1576
 2210TIP3    H228046   6.409   0.283  11.223  0.9161 -0.8357  1.2298
 2211TIP3   OH228047   1.192   4.742   2.814  0.2730 -0.3823  0.4499
 2211TIP3    H128048   1.208   4.833   2.790  0.5905 -0.3788  0.6583
 2211TIP3    H228049   1.163   4.700   2.733 -0.4173  0.0285  0.4836
 2212TIP3   OH228050   5.732   4.540   4.876  0.3343  0.2418 -0.0333
 2212TIP3    H128051   5.807   4.557   4.819 -0.4476  0.6235 -0.9753
 2212TIP3    H228052   5.683   4.471   4.831 -0.3847  0.6662  0.0862
 2213TIP3   OH228053   2.674   2.949  10.983 -0.4301  0.2488  0.3121
 2213TIP3    H128054   2.756   2.962  11.030  0.1751  0.8847 -0.8770
 2213TIP3    H228055   2.620   3.024  11.008 -0.0317  0.6962 -0.1605
 2214TIP3   OH228056   0.130   1.847   3.113 -0.0973  0.6210 -0.0444
 2214TIP3    H128057   0.153   1.768   3.065 -1.1682 -0.1452  0.6605
 2214TIP3    H228058   0.139   1.917   3.049 -1.9922 -0.4212 -1.5548
 2215TIP3   OH228059   6.367   0.261   3.566  0.0622 -0.1100 -0.8159
 2215TIP3    H128060   6.422   0.304   3.501  3.0915 -1.8305  0.3817
 2215TIP3    H228061   6.367   0.322   3.641 -1.1196  0.6321 -1.3959
 2216TIP3   OH228062   4.371   5.776   4.332 -0.0076  0.0707 -0.1901
 2216TIP3    H128063   4.287   5.752   4.293 -0.6469  1.4372  0.2726
 2216TIP3    H228064   4.347   5.830   4.408  1.2990  1.5397 -0.7712
 2217TIP3   OH228065   2.508   3.979   1.428  0.4632  0.4295  0.2306
 2217TIP3    H128066   2.483   3.918   1.497  0.7422  0.7433  0.6103
 2217TIP3    H228067   2.428   4.030   1.411 -0.0395 -0.6145 -0.7103
 2218TIP3   OH228068   1.792   1.414   0.238  0.3134 -0.4224  0.6805
 2218TIP3    H128069   1.713   1.373   0.202  0.1157  0.3337  0.2358
 2218TIP3    H228070   1.864   1.378   0.187  0.2798 -1.1514  1.1174
 2219TIP3   OH228071   5.655   1.604   0.663  0.0664  0.0559 -0.4732
 2219TIP3    H128072   5.728   1.626   0.605 -0.6137 -0.2500 -1.4822
 2219TIP3    H228073   5.665   1.662   0.738  0.3033  1.3273 -1.4453
 2220TIP3   OH228074   4.326   0.496  16.579  0.1050 -0.0878  0.7694
 2220TIP3    H128075   4.329   0.457  16.491 -1.8198  0.7928  0.2706
 2220TIP3    H228076   4.301   0.424  16.636 -0.0646 -0.3435  0.3782
 2221TIP3   OH228077   1.004   0.216   0.334  0.2258 -0.6262 -0.5187
 2221TIP3    H128078   1.060   0.244   0.407  0.5916  1.4978 -1.5314
 2221TIP3    H228079   1.050   0.142   0.295  1.5389  0.0613 -0.3473
 2222TIP3   OH228080   4.685   0.438  16.856  0.8536 -0.3398 -0.2668
 2222TIP3    H128081   4.719   0.421  16.944  1.7568  0.6880 -0.3989
 2222TIP3    H228082   4.591   0.425  16.864  1.0938 -1.9714  0.4294
 2223TIP3   OH228083   2.587   1.540  15.052  0.0929  0.5559 -0.1327
 2223TIP3    H128084   2.510   1.562  15.104  0.3176  0.9780  0.0270
 2223TIP3    H228085   2.552   1.508  14.969 -0.2568  0.7578 -0.0648
 2224TIP3   OH228086   3.790   0.322   1.926  0.4364  0.7146 -0.0430
 2224TIP3    H128087   3.841   0.277   1.858 -0.2135  0.9249 -0.6824
 2224TIP3    H228088   3.720   0.365   1.878  0.4862  1.6155  0.6669
 2225TIP3   OH228089   0.062   2.330   2.273  0.1088  0.2389 -0.0961
 2225TIP3    H128090   0.143   2.375   2.249  0.4121 -0.7385 -0.9741
 2225TIP3    H228091   0.006   2.339   2.196 -0.2762  0.1395  0.1711
 2226TIP3   OH228092   2.254   3.010  17.070  0.0062  0.2143 -0.3077
 2226TIP3    H128093   2.219   3.049  16.990 -1.2900 -1.5126 -0.6492
 2226TIP3    H228094   2.303   2.933  17.040  0.8477  0.4238  0.4686
 2227TIP3   OH228095   2.143   2.006   2.494 -0.0309  0.8039  0.4418
 2227TIP3    H128096   2.109   2.061   2.564 -1.2654 -0.5688  0.9678
 2227TIP3    H228097   2.096   1.923   2.503  1.0928 -0.0287 -0.8972
 2228TIP3   OH228098   6.276   2.554  16.022 -0.6958 -0.0208  0.9115
 2228TIP3    H128099   6.213   2.614  15.982 -1.7309 -1.1214  0.8263
 2228TIP3    H228100   6.324   2.517  15.948 -0.3134  0.4228  0.9370
 2229TIP3   OH228101   5.691   5.479  12.389  0.4912  0.1600  0.2337
 2229TIP3    H128102   5.619   5.421  12.412  1.3890  0.1301  3.3565
 2229TIP3    H228103   5.707   5.461  12.296 -2.8078 -0.5180 -0.3100
 2230TIP3   OH228104   5.930   3.045   5.758  1.1031  0.1415 -0.3957
 2230TIP3    H128105   5.931   3.138   5.738 -0.4124  0.7378  1.9553
 2230TIP3    H228106   5.932   3.002   5.672  2.0541  2.2884 -1.5189
 2231TIP3   OH228107   6.720   0.909  12.148 -0.4785 -0.0733 -0.1691
 2231TIP3    H128108   6.654   0.882  12.085 -0.2774 -2.2027  0.4777
 2231TIP3    H228109   6.670   0.933  12.226 -0.7647  3.0014 -1.1494
 2232TIP3   OH228110   4.050   0.136   5.400  0.3277 -0.0404 -0.0820
 2232TIP3    H128111   4.143   0.113   5.397  0.6434  0.9820  0.9700
 2232TIP3    H228112   4.005   0.052   5.411  1.0661 -0.6052 -1.1573
 2233TIP3   OH228113   3.338   0.350  16.426 -0.3717  0.1281  0.2814
 2233TIP3    H128114   3.343   0.402  16.506  0.2584  2.1877 -1.0158
 2233TIP3    H228115   3.246   0.324  16.420 -0.8464  1.6247  0.6720
 2234TIP3   OH228116   3.713   2.088   4.373 -0.1942 -0.5150 -0.6985
 2234TIP3    H128117   3.807   2.072   4.377 -0.0752 -0.5624 -2.8793
 2234TIP3    H228118   3.677   2.015   4.323 -1.1376  0.3864 -1.3880
 2235TIP3   OH228119   5.793   5.802   3.517 -0.0026 -0.3566 -0.0565
 2235TIP3    H128120   5.705   5.796   3.481 -0.2325 -0.8780  0.5608
 2235TIP3    H228121   5.780   5.824   3.609  0.4579 -1.3848  0.2767
 2236TIP3   OH228122   1.396   1.129  12.715  0.0831  0.1119  0.0495
 2236TIP3    H128123   1.428   1.140  12.626  0.1158  1.4233  0.2051
 2236TIP3    H228124   1.400   1.034  12.731 -1.7705 -0.3969 -2.0085
 2237TIP3   OH228125   3.908   5.174  13.441  0.0888 -0.9164  0.0029
 2237TIP3    H128126   4.000   5.189  13.418 -0.2326 -1.1002 -1.5494
 2237TIP3    H228127   3.865   5.156  13.357 -1.2976 -1.2211  0.7406
 2238TIP3   OH228128   3.845   5.927   5.997  0.7247 -0.2623 -0.7999
 2238TIP3    H128129   3.800   5.850   6.032 -1.2405  0.8983 -0.6317
 2238TIP3    H228130   3.892   5.963   6.072  1.1033 -0.9106 -0.7196
 2239TIP3   OH228131   0.457   0.078  14.806  0.2277  0.0950  0.0600
 2239TIP3    H128132   0.511   0.062  14.728 -3.0907 -3.3071 -1.8738
 2239TIP3    H228133   0.460  -0.005  14.854  0.0651  1.2665  2.1777
 2240TIP3   OH228134   0.369   6.757  15.067 -0.2707 -0.0264  0.7804
 2240TIP3    H128135   0.432   6.696  15.030 -1.2037  0.2752 -1.4259
 2240TIP3    H228136   0.284   6.713  15.057 -0.6057  0.1304  2.4986
 2241TIP3   OH228137   0.080   0.210   6.371 -0.4358  0.4499 -0.6600
 2241TIP3    H128138   0.085   0.271   6.297 -3.6076  0.3472 -1.0784
 2241TIP3    H228139  -0.014   0.195   6.383 -0.3690  2.3318  4.9491
 2242TIP3   OH228140   5.522   1.562   3.325 -0.5526  0.2646  0.7109
 2242TIP3    H128141   5.525   1.481   3.375 -6.4730 -1.6642 -1.2953
 2242TIP3    H228142   5.491   1.628   3.387 -2.4692 -0.7788  0.9226
 2243TIP3   OH228143   6.157   4.255  12.999  0.2723  0.4110  0.0837
 2243TIP3    H128144   6.064   4.276  13.011  0.4165  1.0276  0.1290
 2243TIP3    H228145   6.157   4.164  12.970 -0.4116  0.7075 -0.8843
 2244TIP3   OH228146   4.103   4.478  11.177  0.0979 -0.3970 -0.1866
 2244TIP3    H128147   4.144   4.489  11.092  1.4695  1.4482  0.6545
 2244TIP3    H228148   4.017   4.440  11.158  1.4887 -2.9093 -2.1347
 2245TIP3   OH228149   0.522   3.229   3.267  1.0606  0.2674  0.3095
 2245TIP3    H128150   0.438   3.250   3.309  0.9153  0.1919  0.0582
 2245TIP3    H228151   0.525   3.285   3.189  0.3703 -1.0725 -0.7279
 2246TIP3   OH228152   3.476   0.495  14.258 -0.6663 -0.2171 -0.3068
 2246TIP3    H128153   3.400   0.544  14.227 -0.7347 -1.2759 -1.9093
 2246TIP3    H228154   3.510   0.547  14.331 -2.5746  0.5751  0.0694
 2247TIP3   OH228155   2.769   1.525  14.691  0.1699 -0.8473 -0.0720
 2247TIP3    H128156   2.830   1.592  14.721  0.6401 -0.3757 -1.9575
 2247TIP3    H228157   2.811   1.442  14.713  2.1524 -0.5638 -2.3844
 2248TIP3   OH228158   2.005   1.777  12.017  0.4041  0.3584  0.0438
 2248TIP3    H128159   1.962   1.858  11.988 -0.1016 -0.5261 -1.7876
 2248TIP3    H228160   2.069   1.807  12.082 -1.6501  1.9078  1.4895
 2249TIP3   OH228161   2.475   5.204  16.113  0.1732  0.4899  0.0052
 2249TIP3    H128162   2.526   5.185  16.034  1.5065 -1.8821  1.3108
 2249TIP3    H228163   2.540   5.208  16.183 -1.0443  1.7641  1.1276
 2250TIP3   OH228164   4.992   1.662   3.128 -0.0461  0.0277 -0.6012
 2250TIP3    H128165   4.978   1.581   3.079  1.4552 -1.5300  1.3538
 2250TIP3    H228166   5.055   1.711   3.075 -0.4634 -0.3662 -1.4872
 2251TIP3   OH228167   6.452   2.345   5.317  0.1143 -1.1851 -0.0319
 2251TIP3    H128168   6.374   2.393   5.344  0.3541 -0.2340 -0.9673
 2251TIP3    H228169   6.525   2.400   5.346  0.3887 -0.7110 -1.5370
 2252TIP3   OH228170   5.076   4.751  12.397  0.0356  0.2725 -0.1498
 2252TIP3    H128171   5.072   4.767  12.302  0.3835 -0.9806 -0.3926
 2252TIP3    H228172   5.135   4.677  12.406 -0.9808 -0.4316  0.9570
 2253TIP3   OH228173   1.918   2.263  11.999 -0.8406  0.7795 -0.1367
 2253TIP3    H128174   1.937   2.356  11.993 -0.8410  0.7582 -0.5085
 2253TIP3    H228175   1.823   2.257  11.997 -0.8607  0.8109  0.5465
 2254TIP3   OH228176   2.854   4.538  10.620 -0.3540 -0.4109 -0.1188
 2254TIP3    H128177   2.877   4.480  10.547  1.1945  1.4328 -1.2212
 2254TIP3    H228178   2.783   4.493  10.665 -1.3172 -1.7291 -2.7002
 2255TIP3   OH228179   5.875   1.874  12.553  0.8213 -0.1641 -0.2485
 2255TIP3    H128180   5.922   1.940  12.604 -1.0740  1.2085 -0.1463
 2255TIP3    H228181   5.824   1.826  12.618 -2.0367  1.9534 -0.7368
 2256TIP3   OH228182   1.017   3.590  13.982  0.0922  0.2121 -0.0026
 2256TIP3    H128183   0.956   3.548  14.043 -0.2471  0.9429  0.1721
 2256TIP3    H228184   1.102   3.550  14.002  0.1621  1.0941  1.5880
 2257TIP3   OH228185   4.007   6.573   4.586 -0.0390  0.2261 -0.7741
 2257TIP3    H128186   3.977   6.508   4.649  2.5848  0.5966  1.0426
 2257TIP3    H228187   3.938   6.639   4.583 -1.0403 -0.7423  0.3012
 2258TIP3   OH228188   1.465   0.162   1.785  0.2855 -0.0813  0.0617
 2258TIP3    H128189   1.386   0.198   1.825  0.5304  0.1174  0.3702
 2258TIP3    H228190   1.438   0.136   1.697 -0.7359 -2.2385  0.9477
 2259TIP3   OH228191   0.266   3.179   4.761 -0.5836 -0.3190  0.0071
 2259TIP3    H128192   0.214   3.252   4.726  0.5379  0.7389  0.4755
 2259TIP3    H228193   0.221   3.155   4.842  0.0534  1.1021  0.8126
 2260TIP3   OH228194   4.932   1.995   1.577 -0.4622  0.1597  0.4881
 2260TIP3    H128195   5.008   2.038   1.537  0.6361 -1.7208  0.4185
 2260TIP3    H228196   4.963   1.967   1.664 -0.9007 -1.0138  0.2943
 2261TIP3   OH228197   1.496   1.031   4.901  0.6786 -0.4636  0.3470
 2261TIP3    H128198   1.462   0.943   4.887  3.3222 -1.6088  0.5398
 2261TIP3    H228199   1.579   1.033   4.854 -0.6911  3.0467 -2.3746
 2262TIP3   OH228200   5.068   1.515   2.830  0.0437  0.2660  0.4820
 2262TIP3    H128201   5.074   1.502   2.736 -0.4890  0.2978  0.4403
 2262TIP3    H228202   5.064   1.427   2.866  0.2427  0.2540  0.4769
 2263TIP3   OH228203   5.489   0.947   5.484 -0.2523  0.3891  0.6484
 2263TIP3    H128204   5.507   0.962   5.576  0.2510  2.1590  0.2965
 2263TIP3    H228205   5.508   1.031   5.441 -0.0578 -0.4998 -1.1226
 2264TIP3   OH228206   6.280   0.491  14.829 -0.3596  0.5658  0.0913
 2264TIP3    H128207   6.366   0.478  14.790 -0.8724  0.2558 -0.9755
 2264TIP3    H228208   6.243   0.403  14.835 -0.8625  0.7613 -0.0795
 2265TIP3   OH228209   3.983   2.416   0.589 -0.1049  0.0610 -0.1724
 2265TIP3    H128210   3.944   2.490   0.636 -0.7837  0.1774 -0.8786
 2265TIP3    H228211   4.030   2.456   0.516  1.5086 -0.0748  0.7557
 2266TIP3   OH228212   4.517   4.048   0.872 -0.3098  0.1644  0.2771
 2266TIP3    H128213   4.445   3.986   0.881 -0.7159  0.6674  0.5597
 2266TIP3    H228214   4.588   3.997   0.834 -0.2897 -0.7391  1.4863
 2267TIP3   OH228215   4.965   6.369   4.181 -0.3929  0.1963 -0.3064
 2267TIP3    H128216   5.021   6.356   4.104  1.2603  0.5638  0.7894
 2267TIP3    H228217   5.000   6.446   4.224 -1.3099  0.0163  0.8190
 2268TIP3   OH228218   6.528   3.480  13.272 -0.6772  0.0737 -0.4936
 2268TIP3    H128219   6.543   3.521  13.187 -0.7675  0.2569 -0.4212
 2268TIP3    H228220   6.590   3.523  13.331 -0.1197 -0.5525 -0.6164
 2269TIP3   OH228221   2.709   1.848   2.654  0.7152  0.3212  0.1722
 2269TIP3    H128222   2.769   1.793   2.704  0.7204  0.1533 -0.0175
 2269TIP3    H228223   2.621   1.816   2.677  0.7196  0.2040  0.0304
 2270TIP3   OH228224   5.750   3.965   5.982  0.1792 -0.3920  0.4492
 2270TIP3    H128225   5.715   3.944   5.896  1.3519 -2.9424  0.4840
 2270TIP3    H228226   5.845   3.972   5.968  0.3736 -0.7397  1.5004
 2271TIP3   OH228227   1.107   0.911   6.468 -0.6704  0.3160  0.3770
 2271TIP3    H128228   1.056   0.950   6.539  1.6777  2.3814  1.0649
 2271TIP3    H228229   1.155   0.985   6.430  1.0693 -1.3377 -0.8113
 2272TIP3   OH228230   5.242   6.700   1.685  0.4314 -0.2665  0.4292
 2272TIP3    H128231   5.332   6.666   1.687  0.6126  0.2143  0.7404
 2272TIP3    H228232   5.196   6.644   1.623  0.7811 -0.9358  0.7659
 2273TIP3   OH228233   0.923   0.394   4.619  0.4153 -0.3174  0.6696
 2273TIP3    H128234   0.991   0.364   4.679  0.9765  1.6565  1.1121
 2273TIP3    H228235   0.864   0.446   4.675 -2.1199 -2.8103  0.5214
 2274TIP3   OH228236   0.663   3.107   5.818  0.0742  0.7842 -0.4757
 2274TIP3    H128237   0.694   3.165   5.748  2.9327  0.3836  0.3111
 2274TIP3    H228238   0.732   3.042   5.827 -1.5773 -0.8779  0.8138
 2275TIP3   OH228239   1.363   1.994   2.485  0.7633  0.1683 -0.2358
 2275TIP3    H128240   1.315   2.072   2.513  0.7234  0.5902 -1.4149
 2275TIP3    H228241   1.431   2.027   2.427  1.5652 -0.5642  0.2710
 2276TIP3   OH228242   2.121   2.292  15.603 -0.2286  0.5762  0.6544
 2276TIP3    H128243   2.167   2.375  15.610  1.3291 -0.2619  0.7806
 2276TIP3    H228244   2.111   2.261  15.693 -2.0066  1.2207  0.7154
 2277TIP3   OH228245   0.033   5.364  14.798 -0.1074 -0.3063  0.2394
 2277TIP3    H128246   0.048   5.320  14.881 -1.3765 -0.0230  0.6506
 2277TIP3    H228247   0.049   5.457  14.817  0.2792 -0.3208 -0.0134
 2278TIP3   OH228248   4.470   2.550  15.715  0.4322  0.8270 -0.5397
 2278TIP3    H128249   4.489   2.628  15.662 -1.2370  1.6840  0.0366
 2278TIP3    H228250   4.375   2.551  15.725  0.6795  0.9374  2.7629
 2279TIP3   OH228251   1.159   4.570  12.816 -0.0103  0.0052 -0.0868
 2279TIP3    H128252   1.076   4.610  12.788 -1.1252 -1.5199  0.8299
 2279TIP3    H228253   1.192   4.525  12.739  1.4005  2.7475 -1.2171
 2280TIP3   OH228254   1.515   0.843   1.890 -0.3883  0.2969  0.0522
 2280TIP3    H128255   1.538   0.859   1.798  1.4372 -0.7138  0.2964
 2280TIP3    H228256   1.471   0.758   1.889 -1.2247  0.7178  0.0172
 2281TIP3   OH228257   0.476   0.638  16.312  0.1206 -0.3553 -0.5666
 2281TIP3    H128258   0.443   0.648  16.401  0.2345  2.7319 -0.7421
 2281TIP3    H228259   0.553   0.582  16.321 -0.0407 -0.3580  1.2347
 2282TIP3   OH228260   0.967   3.569   0.593  0.3020  0.9313  0.7983
 2282TIP3    H128261   0.996   3.542   0.680 -1.3626 -0.8860  0.8646
 2282TIP3    H228262   0.872   3.580   0.601  0.1710  1.1586 -0.6846
 2283TIP3   OH228263   5.942   5.314  11.276 -0.5716 -0.7269  0.3503
 2283TIP3    H128264   6.031   5.294  11.246 -0.3330  1.0207 -0.2253
 2283TIP3    H228265   5.903   5.362  11.203 -2.3919 -2.3619  0.1720
 2284TIP3   OH228266   4.787   0.824  12.263 -0.3409  0.3036 -0.1395
 2284TIP3    H128267   4.782   0.781  12.177 -0.5436  2.2471 -1.1634
 2284TIP3    H228268   4.870   0.870  12.261 -0.6632  0.9130  0.4328
 2285TIP3   OH228269   3.323   3.508  12.033 -0.1317 -0.1254 -0.6658
 2285TIP3    H128270   3.377   3.433  12.059 -0.8024 -1.1011 -1.9294
 2285TIP3    H228271   3.259   3.517  12.104  0.6170 -0.0650  0.0059
 2286TIP3   OH228272   4.679   6.767   3.968 -0.0598 -0.1659  0.7746
 2286TIP3    H128273   4.668   6.706   4.041 -1.0607  0.0646  0.8406
 2286TIP3    H228274   4.621   6.732   3.900  0.5784 -0.1710  0.2310
 2287TIP3   OH228275   5.356   3.777   5.865 -0.5037  0.7141 -0.2598
 2287TIP3    H128276   5.264   3.799   5.850  0.3460  3.5224 -2.1008
 2287TIP3    H228277   5.363   3.765   5.960 -2.4671  2.0876  0.1113
 2288TIP3   OH228278   5.888   0.134   4.715  0.1610  0.4691 -0.2340
 2288TIP3    H128279   5.805   0.092   4.690 -0.1319  1.3489 -0.7886
 2288TIP3    H228280   5.882   0.144   4.810  0.8600 -2.0202  0.1451
 2289TIP3   OH228281   3.645   5.206  13.691 -0.1178 -0.2429 -0.0190
 2289TIP3    H128282   3.619   5.151  13.764 -0.2471  0.0977  0.1923
 2289TIP3    H228283   3.565   5.217  13.639  0.0177 -0.6455 -0.3216
 2290TIP3   OH228284   2.727   5.951  15.983 -0.1626 -0.0061  0.3150
 2290TIP3    H128285   2.638   5.931  16.012 -1.5716  0.6298 -3.1110
 2290TIP3    H228286   2.740   6.043  16.007  0.8802 -0.8394  3.4818
 2291TIP3   OH228287   3.986   5.440   0.892  0.2578 -0.2395  0.1217
 2291TIP3    H128288   4.039   5.360   0.885 -0.7554 -1.0410  1.3536
 2291TIP3    H228289   3.953   5.454   0.803  1.4957 -0.4190 -0.4001
 2292TIP3   OH228290   1.836   1.727   2.058  0.3957  0.2214  0.5259
 2292TIP3    H128291   1.886   1.733   2.140  0.6327 -0.4389  0.4335
 2292TIP3    H228292   1.826   1.633   2.043  2.6570  0.2040 -1.5868
 2293TIP3   OH228293   2.467   1.444  16.670 -0.2978 -0.6499 -0.3993
 2293TIP3    H128294   2.539   1.456  16.608  0.4955 -1.0213  0.4331
 2293TIP3    H228295   2.505   1.463  16.755 -1.0017 -1.5209  0.1286
 2294TIP3   OH228296   0.484   6.272   0.779 -0.4550 -0.1473 -0.3391
 2294TIP3    H128297   0.526   6.232   0.855 -1.2826  0.1957  0.3106
 2294TIP3    H228298   0.408   6.216   0.762 -0.2983 -0.2004 -0.9065
 2295TIP3   OH228299   6.257   2.853  16.553 -0.2907  0.3517 -0.5500
 2295TIP3    H128300   6.298   2.792  16.614 -1.7164  0.5473  0.6668
 2295TIP3    H228301   6.167   2.821  16.544  0.2406 -0.5709 -3.7961
 2296TIP3   OH228302   1.073   0.940   3.748 -0.2317  0.2326 -0.2516
 2296TIP3    H128303   1.103   0.924   3.838 -0.5633  0.4502 -0.0991
 2296TIP3    H228304   1.082   0.856   3.704 -0.7236 -0.0527  0.1787
 2297TIP3   OH228305   2.786   2.354   5.821 -0.4091  0.1431 -0.2782
 2297TIP3    H128306   2.741   2.386   5.900  0.9092  0.6676  0.2900
 2297TIP3    H228307   2.878   2.349   5.847 -0.3615 -3.0197 -0.7170
 2298TIP3   OH228308   3.645   4.084  12.217 -0.0551 -0.7065 -0.0414
 2298TIP3    H128309   3.721   4.143  12.221  0.9553 -1.9325 -0.4677
 2298TIP3    H228310   3.672   4.015  12.157 -2.5735  0.2622 -2.4806
 2299TIP3   OH228311   4.835   5.615  14.548 -0.5270  0.4284 -0.2601
 2299TIP3    H128312   4.764   5.666  14.510 -1.3973 -1.8817 -1.8940
 2299TIP3    H228313   4.904   5.617  14.482  0.5942  1.7704  0.8747
 2300TIP3   OH228314   1.319   5.426   1.755  0.2730  0.2045 -0.5431
 2300TIP3    H128315   1.248   5.457   1.812  0.0158  0.1205 -0.8125
 2300TIP3    H228316   1.278   5.356   1.703  1.4544 -2.4120  1.8005
 2301TIP3   OH228317   4.206   3.745   3.303 -0.0244 -0.9494 -0.5276
 2301TIP3    H128318   4.292   3.727   3.341 -1.5108 -3.9631  1.8536
 2301TIP3    H228319   4.203   3.692   3.224  0.5478 -0.2661 -1.0151
 2302TIP3   OH228320   0.948   3.625   2.237 -0.5811 -0.1295  0.2326
 2302TIP3    H128321   0.864   3.669   2.254  0.0792  0.9253  0.8906
 2302TIP3    H228322   1.014   3.692   2.254  0.3649 -0.4800 -1.7361
 2303TIP3   OH228323   5.679   2.657   0.184 -1.0475 -0.6185 -0.2146
 2303TIP3    H128324   5.654   2.713   0.258 -1.3613  0.2711 -0.9705
 2303TIP3    H228325   5.630   2.576   0.197  0.8256 -1.5387  1.9430
 2304TIP3   OH228326   1.053   1.461  12.231  0.0928 -0.5551  0.2425
 2304TIP3    H128327   1.134   1.410  12.233  0.8429  0.6030  0.7095
 2304TIP3    H228328   1.001   1.427  12.304  0.8299 -0.2743  0.9092
 2305TIP3   OH228329   4.387   5.358   5.670  0.0756 -0.3487 -0.2321
 2305TIP3    H128330   4.459   5.413   5.702  2.4680 -2.8532 -0.9841
 2305TIP3    H228331   4.401   5.273   5.710 -1.3037 -1.4809 -1.9723
 2306TIP3   OH228332   5.913   5.295   6.172  0.1114  0.2162  0.2033
 2306TIP3    H128333   5.981   5.303   6.238  0.4251  0.5246 -0.1475
 2306TIP3    H228334   5.906   5.202   6.154  0.9328  0.2395 -0.2593
 2307TIP3   OH228335   1.062   0.557  11.218 -0.4027  0.6545  0.6400
 2307TIP3    H128336   1.082   0.593  11.132 -0.2710 -1.5384 -0.3088
 2307TIP3    H228337   0.967   0.569  11.227 -0.4321  0.8166  0.1493
 2308TIP3   OH228338   6.279   2.368   1.541  0.0766  0.4856  0.3296
 2308TIP3    H128339   6.300   2.325   1.624  2.1752  0.7669 -0.0120
 2308TIP3    H228340   6.302   2.460   1.555 -1.5466  0.9667  0.0812
 2309TIP3   OH228341   0.431   4.527  12.353  0.7043 -0.0682  0.1941
 2309TIP3    H128342   0.442   4.448  12.299  1.5221  1.5316 -2.1493
 2309TIP3    H228343   0.519   4.549  12.383  0.1407 -1.5617  3.3348
 2310TIP3   OH228344   1.799   0.025  11.924  0.2953  0.0595 -0.2423
 2310TIP3    H128345   1.740   0.028  11.848  1.0218 -1.6330 -0.9041
 2310TIP3    H228346   1.865   0.092  11.905  0.3318 -0.1771 -0.9865
 2311TIP3   OH228347   5.305   0.281  16.215 -0.1101 -0.5613 -0.0803
 2311TIP3    H128348   5.244   0.340  16.259  1.8779  0.1568  1.9811
 2311TIP3    H228349   5.388   0.294  16.263  0.9915 -3.3274 -1.0628
 2312TIP3   OH228350   6.322   5.898   1.611 -0.6766  0.4269 -0.8659
 2312TIP3    H128351   6.306   5.869   1.701  0.4918  0.0926 -0.7580
 2312TIP3    H228352   6.357   5.987   1.620 -1.5954  0.8232 -1.0603
 2313TIP3   OH228353   6.375   5.036   5.066  0.4803 -0.8020  0.2470
 2313TIP3    H128354   6.360   5.130   5.078  1.2152 -0.2919 -2.2403
 2313TIP3    H228355   6.467   5.023   5.088  0.2775 -1.0272  0.9760
 2314TIP3   OH228356   1.010   3.014  10.929  0.1069 -0.3008  0.2809
 2314TIP3    H128357   1.087   2.963  10.953  0.6606  0.3879 -0.0177
 2314TIP3    H228358   1.016   3.024  10.834  0.4844  1.0582  0.4220
 2315TIP3   OH228359   5.467   0.534   0.159 -0.5409  0.0848  0.4744
 2315TIP3    H128360   5.454   0.510   0.250  0.4892 -1.4518  0.2706
 2315TIP3    H228361   5.533   0.472   0.127  1.5668  2.5767 -0.4464
 2316TIP3   OH228362   3.011   6.336  11.786 -0.4764  0.3001 -0.0410
 2316TIP3    H128363   2.937   6.303  11.836 -0.5280 -0.8338 -0.8052
 2316TIP3    H228364   3.005   6.289  11.702  0.6453  0.7775 -0.4024
 2317TIP3   OH228365   2.005   5.206   0.351  0.0618  0.0462  0.2847
 2317TIP3    H128366   1.964   5.120   0.346 -1.6315  0.4604  3.6689
 2317TIP3    H228367   2.088   5.191   0.397 -0.7865  0.2833  1.9630
 2318TIP3   OH228368   0.382   3.381   0.874 -0.4475  0.2898 -0.6110
 2318TIP3    H128369   0.433   3.458   0.847  1.7699 -0.9286 -0.1469
 2318TIP3    H228370   0.423   3.353   0.956  0.2905 -2.6746 -1.8919
 2319TIP3   OH228371   0.448   6.378  13.631 -0.1457 -0.6093  0.0632
 2319TIP3    H128372   0.501   6.446  13.590 -1.0152  1.5042  2.2219
 2319TIP3    H228373   0.402   6.337  13.558  0.1018  1.3988 -1.3123
 2320TIP3   OH228374   5.529   0.941  14.319 -0.8057  0.3301 -0.3313
 2320TIP3    H128375   5.453   0.974  14.367 -1.7065 -0.9355 -0.8322
 2320TIP3    H228376   5.510   0.963  14.227 -1.2804 -1.2475 -0.6356
 2321TIP3   OH228377   3.019   5.338   3.507 -0.2007  0.1182 -0.4392
 2321TIP3    H128378   2.949   5.294   3.458  0.0756  0.1490 -0.8680
 2321TIP3    H228379   2.995   5.325   3.599 -0.1638 -0.8888 -0.5517
 2322TIP3   OH228380   1.059   0.116  10.915  0.5198  0.2867  0.4472
 2322TIP3    H128381   1.036   0.094  11.005  0.0010 -1.0235  0.0252
 2322TIP3    H228382   1.128   0.054  10.892  0.0076 -0.0049 -0.3485
 2323TIP3   OH228383   4.846   6.670  14.896 -0.4078 -0.6441 -0.3619
 2323TIP3    H128384   4.915   6.709  14.949 -0.5668 -1.0331  0.1437
 2323TIP3    H228385   4.888   6.651  14.812 -0.1534 -0.0154 -0.3810
 2324TIP3   OH228386   4.245   6.577  13.799 -0.1329  0.2998  0.1813
 2324TIP3    H128387   4.285   6.501  13.756  0.0857  0.6803 -0.3054
 2324TIP3    H228388   4.258   6.562  13.892  0.2896 -0.0552  0.0679
 2325TIP3   OH228389   4.077   5.501   2.095 -0.3596  0.2925  0.2808
 2325TIP3    H128390   4.145   5.517   2.030 -0.3970 -0.0385  0.1561
 2325TIP3    H228391   4.125   5.477   2.174 -0.3295  0.1201  0.2106
 2326TIP3   OH228392   1.064   0.099  15.821  0.3542  0.3017 -0.0144
 2326TIP3    H128393   1.018   0.146  15.752 -0.9105  1.5166  1.5597
 2326TIP3    H228394   1.077   0.011  15.786 -0.6293  0.7514 -1.6094
 2327TIP3   OH228395   5.305   4.485   0.381 -0.1409 -0.0472  0.7964
 2327TIP3    H128396   5.223   4.523   0.414 -0.4952 -0.7323  0.7177
 2327TIP3    H228397   5.285   4.393   0.365  0.2664  0.0584 -0.4884
 2328TIP3   OH228398   6.754   6.407  12.290 -0.4734  0.6478 -0.2256
 2328TIP3    H128399   6.798   6.331  12.252 -1.0301  0.3755 -0.3327
 2328TIP3    H228400   6.692   6.369  12.352 -0.5966  1.0296 -0.1167
 2329TIP3   OH228401   4.201   2.999  14.094 -0.5901 -0.7385  0.4509
 2329TIP3    H128402   4.116   2.989  14.052 -0.3885  0.1512 -0.2042
 2329TIP3    H228403   4.225   2.911  14.122 -1.1821 -1.1883 -0.4172
 2330TIP3   OH228404   0.467   2.054   4.524 -0.0748 -0.4719 -0.8698
 2330TIP3    H128405   0.401   1.993   4.493  0.6129 -1.1119 -1.1095
 2330TIP3    H228406   0.433   2.085   4.608 -1.6097  0.7458 -1.8879
 2331TIP3   OH228407   5.050   5.066  12.254  0.2984 -0.5242 -0.0373
 2331TIP3    H128408   5.064   4.999  12.188  0.2812 -0.3137 -0.2562
 2331TIP3    H228409   5.094   5.033  12.332  0.3387 -0.7622 -0.1620
 2332TIP3   OH228410   0.151   2.808  16.317 -0.3728 -0.0572  0.2260
 2332TIP3    H128411   0.134   2.867  16.390 -1.6575 -0.1889  0.0528
 2332TIP3    H228412   0.070   2.758  16.307  1.3288 -3.4501  1.7816
 2333TIP3   OH228413   1.267   2.936  12.786  0.5240 -0.7060  0.7242
 2333TIP3    H128414   1.254   2.847  12.753  0.6260 -1.5798  2.8857
 2333TIP3    H228415   1.352   2.933  12.830  1.3618  0.9781 -0.6560
 2334TIP3   OH228416   0.927   2.237  16.483 -0.3124  0.4717  0.4746
 2334TIP3    H128417   0.987   2.163  16.473 -0.1727  0.7132 -0.5880
 2334TIP3    H228418   0.930   2.259  16.576 -0.0015 -0.5599  0.7189
 2335TIP3   OH228419   3.685   2.659  17.191  1.2352  0.5828 -0.1000
 2335TIP3    H128420   3.660   2.716  17.118 -1.6434 -1.1014 -0.6048
 2335TIP3    H228421   3.753   2.602  17.154 -1.1043 -1.1693 -2.1388
 2336TIP3   OH228422   0.113   0.550   3.204  0.6379 -0.0551 -0.1959
 2336TIP3    H128423   0.051   0.605   3.155 -0.4174 -2.2538 -1.5466
 2336TIP3    H228424   0.185   0.536   3.143  1.2462  0.4081  0.4113
 2337TIP3   OH228425   5.456   0.715  14.018  0.1056 -0.3062  0.2482
 2337TIP3    H128426   5.432   0.775  14.090 -0.3058  1.1549 -1.0488
 2337TIP3    H228427   5.551   0.713  14.020  0.0893 -1.0709  1.4345
 2338TIP3   OH228428   3.645   0.635   4.640 -0.0424 -0.3038 -0.2475
 2338TIP3    H128429   3.680   0.594   4.719  1.0702  2.2603  0.6843
 2338TIP3    H228430   3.665   0.572   4.570  3.1999 -0.6426  0.8046
 2339TIP3   OH228431   4.080   1.234  15.463  0.4483 -0.1955  0.2032
 2339TIP3    H128432   4.120   1.169  15.406  2.0423  0.3088  0.6981
 2339TIP3    H228433   4.130   1.314  15.448 -0.8090  0.6611  0.3781
 2340TIP3   OH228434   0.603   3.572   4.505 -0.8735 -0.2887  0.2560
 2340TIP3    H128435   0.518   3.543   4.539 -0.7372 -0.5051  0.4097
 2340TIP3    H228436   0.664   3.559   4.578 -0.9173  0.9263  0.5367
 2341TIP3   OH228437   1.207   4.230  17.057 -0.1751 -0.3385  0.5920
 2341TIP3    H128438   1.157   4.292  17.003  0.1221 -0.0582  0.6362
 2341TIP3    H228439   1.296   4.234  17.022 -0.1510 -0.7262  0.6090
 2342TIP3   OH228440   5.749   4.790   5.789 -0.2523  0.0976 -0.0633
 2342TIP3    H128441   5.784   4.875   5.812 -0.3766 -0.2476  1.5092
 2342TIP3    H228442   5.809   4.727   5.830 -2.8492 -0.5106  3.2013
 2343TIP3   OH228443   1.149   4.798   2.040  0.2251 -0.3743  0.2411
 2343TIP3    H128444   1.157   4.812   1.946  0.7368 -0.6333  0.2443
 2343TIP3    H228445   1.098   4.873   2.071  0.2896 -0.1460 -0.1963
 2344TIP3   OH228446   2.339   5.535  12.705  0.2156 -0.4069  0.3767
 2344TIP3    H128447   2.245   5.515  12.713  0.1228 -0.2619 -0.3248
 2344TIP3    H228448   2.350   5.613  12.760 -0.5680  1.0166 -1.3852
 2345TIP3   OH228449   3.104   4.674   4.982 -0.0621  0.5740 -0.0051
 2345TIP3    H128450   3.185   4.701   5.025  0.3327  0.8170 -0.8608
 2345TIP3    H228451   3.036   4.726   5.024  0.0378 -0.4751  1.5391
 2346TIP3   OH228452   4.585   4.308  14.208 -0.0117  0.0840  0.0311
 2346TIP3    H128453   4.499   4.338  14.179  0.3471  0.6284 -0.5030
 2346TIP3    H228454   4.605   4.234  14.151 -2.6672 -4.1644  3.8683
 2347TIP3   OH228455   2.317   0.619   2.114  0.0200 -0.2052  0.0801
 2347TIP3    H128456   2.248   0.686   2.110 -1.3161 -1.4307  1.4435
 2347TIP3    H228457   2.322   0.585   2.024 -0.2607  0.7579 -0.3153
 2348TIP3   OH228458   5.710   6.018   0.033  0.2952 -0.1179  0.2341
 2348TIP3    H128459   5.662   6.030   0.115 -0.9494  1.0132 -0.6312
 2348TIP3    H228460   5.767   5.943   0.051  1.0116  0.8760  2.5544
 2349TIP3   OH228461   5.212   1.028  14.789 -0.0834  0.0178  0.0867
 2349TIP3    H128462   5.139   1.079  14.755  0.0023  0.3608  0.4097
 2349TIP3    H228463   5.180   0.938  14.790 -0.4741  0.1537  0.1449
 2350TIP3   OH228464   5.786   2.197  13.154 -0.0020 -0.0443 -0.7074
 2350TIP3    H128465   5.830   2.215  13.237  0.3172 -0.2606 -0.8281
 2350TIP3    H228466   5.694   2.218  13.171  0.0542 -0.1201 -0.2882
 2351TIP3   OH228467   0.543   5.181   5.507 -0.3896 -0.0305 -0.2727
 2351TIP3    H128468   0.516   5.241   5.576  0.4667 -0.2233  0.2484
 2351TIP3    H228469   0.601   5.232   5.451 -0.3754 -0.1166 -0.3378
 2352TIP3   OH228470   0.771   3.264  12.486 -0.0875  0.4578 -0.1720
 2352TIP3    H128471   0.687   3.288  12.525  0.5984  1.0000  1.0288
 2352TIP3    H228472   0.758   3.276  12.392 -1.6845 -0.5667 -0.1206
 2353TIP3   OH228473   0.329   4.114   0.841 -0.2628  0.2767  0.1513
 2353TIP3    H128474   0.360   4.197   0.805 -1.0593  0.7416  0.5238
 2353TIP3    H228475   0.402   4.053   0.828 -0.1602  0.6940 -1.3188
 2354TIP3   OH228476   5.131   1.656  13.854  0.2355  0.2749 -0.3016
 2354TIP3    H128477   5.193   1.583  13.850 -0.1008 -0.5329  4.1679
 2354TIP3    H228478   5.046   1.614  13.869 -0.1014  1.4672  1.4361
 2355TIP3   OH228479   4.349   2.371   0.387  0.1029  0.0517 -0.4627
 2355TIP3    H128480   4.332   2.318   0.309 -1.6546 -0.8062  0.4479
 2355TIP3    H228481   4.334   2.312   0.461  0.3533  1.2130  0.5554
 2356TIP3   OH228482   6.497   4.714  13.944 -0.0049  0.1981  0.9159
 2356TIP3    H128483   6.460   4.646  13.999 -1.6642  0.2918 -0.0178
 2356TIP3    H228484   6.430   4.730  13.877  1.6127  0.5985 -0.6941
 2357TIP3   OH228485   4.841   0.896   1.616 -0.3716 -0.5922  0.2237
 2357TIP3    H128486   4.898   0.942   1.677  0.7767 -1.4140 -0.1995
 2357TIP3    H228487   4.819   0.961   1.549  0.3273 -0.3583  0.2201
 2358TIP3   OH228488   3.039   2.190   5.526 -0.3470  0.2779  0.2767
 2358TIP3    H128489   3.125   2.209   5.488 -0.9078  1.2305 -0.5898
 2358TIP3    H228490   2.983   2.261   5.495 -1.4685 -0.3503  0.7810
 2359TIP3   OH228491   3.323   1.842  15.191  0.1824 -0.1332  0.2310
 2359TIP3    H128492   3.388   1.807  15.252 -0.0122  1.5944  1.4975
 2359TIP3    H228493   3.339   1.936  15.189 -1.3416  0.1471 -0.5506
 2360TIP3   OH228494   4.995   5.316   1.448 -0.1990 -0.1845 -0.3616
 2360TIP3    H128495   4.933   5.330   1.520  0.8640  1.9212  0.2155
 2360TIP3    H228496   5.061   5.257   1.485  2.7440  4.0973  2.1704
 2361TIP3   OH228497   5.973   2.154   3.467  0.2691  0.0180  0.1197
 2361TIP3    H128498   5.885   2.119   3.470  0.0804  0.4885  0.1597
 2361TIP3    H228499   6.003   2.137   3.377  0.6409 -1.3216  0.4692
 2362TIP3   OH228500   1.627   2.546  11.822  0.1464 -0.0422  0.3591
 2362TIP3    H128501   1.677   2.473  11.786 -0.3007  0.1540 -0.6888
 2362TIP3    H228502   1.540   2.537  11.783 -0.3578  0.1800  1.3995
 2363TIP3   OH228503   3.888   6.229   4.992 -0.4475 -0.1021  0.3926
 2363TIP3    H128504   3.824   6.209   5.061  0.0745 -1.4069  0.5202
 2363TIP3    H228505   3.915   6.143   4.959  0.1549  0.4799 -0.6702
 2364TIP3   OH228506   3.345   3.448  14.891 -0.0494  0.3679  0.3404
 2364TIP3    H128507   3.419   3.392  14.913  0.7495  1.1335 -0.3018
 2364TIP3    H228508   3.286   3.392  14.841  0.3497 -0.1043  0.3911
 2365TIP3   OH228509   3.130   3.894   1.525  0.1134 -0.3196  0.1701
 2365TIP3    H128510   3.077   3.814   1.525 -0.3650 -0.0335 -1.2401
 2365TIP3    H228511   3.216   3.865   1.496 -0.2566 -0.2275 -1.0689
 2366TIP3   OH228512   6.321   2.028   5.039 -0.4048 -0.0130  0.1329
 2366TIP3    H128513   6.403   2.031   5.088  1.0517 -1.2791 -2.0477
 2366TIP3    H228514   6.324   2.104   4.982 -0.1110 -0.7024 -0.8067
 2367TIP3   OH228515   5.440   6.047   0.698  0.1444  0.0526 -0.1689
 2367TIP3    H128516   5.382   6.122   0.693  1.4806  1.0396 -1.7504
 2367TIP3    H228517   5.425   5.999   0.617  0.5742 -0.4168  0.0212
 2368TIP3   OH228518   3.875   3.199  16.538 -0.1879  0.3282  0.4276
 2368TIP3    H128519   3.805   3.264  16.540 -0.0263  0.4911  0.9104
 2368TIP3    H228520   3.841   3.125  16.588 -0.4460 -0.0421 -0.2804
 2369TIP3   OH228521   3.779   5.221   2.116 -0.1643  0.0558  0.0063
 2369TIP3    H128522   3.734   5.305   2.127 -2.1580 -0.8915 -0.4103
 2369TIP3    H228523   3.843   5.219   2.187 -0.3839  1.7104  0.3093
 2370TIP3   OH228524   6.225   1.529   4.024 -0.0652  0.6342  0.1412
 2370TIP3    H128525   6.221   1.578   4.106  1.9003  0.4873  0.3770
 2370TIP3    H228526   6.193   1.441   4.046  1.9369  0.1123  1.2045
 2371TIP3   OH228527   0.790   4.885  12.925 -0.3479  0.4721 -0.4212
 2371TIP3    H128528   0.812   4.938  13.001  1.2824 -1.1241  0.2926
 2371TIP3    H228529   0.748   4.807  12.961  0.8332 -0.5076 -1.0877
 2372TIP3   OH228530   1.379   5.425  15.782 -0.3560 -0.7450  0.0959
 2372TIP3    H128531   1.300   5.437  15.729 -1.0232 -2.0098  0.7653
 2372TIP3    H228532   1.384   5.504  15.837 -0.8015 -0.3814 -0.3760
 2373TIP3   OH228533   0.400   2.831   2.357 -0.5151 -1.0376  0.3564
 2373TIP3    H128534   0.331   2.828   2.423 -0.1808 -0.3810  0.7514
 2373TIP3    H228535   0.465   2.893   2.393 -0.2947 -0.7224 -0.5477
 2374TIP3   OH228536   6.449   6.293   3.298  0.0607 -0.9831 -0.0745
 2374TIP3    H128537   6.353   6.289   3.299 -0.0783  1.0539  1.7667
 2374TIP3    H228538   6.475   6.273   3.388  1.2427  0.0256 -0.1636
 2375TIP3   OH228539   3.953   1.498  13.538  0.5965  0.2972  0.2121
 2375TIP3    H128540   3.952   1.427  13.601  0.8818  0.6063  0.5680
 2375TIP3    H228541   3.937   1.577  13.590 -1.3338  0.3384 -0.3928
 2376TIP3   OH228542   0.102   5.982  14.841 -0.3431  0.6610 -0.0062
 2376TIP3    H128543   0.024   5.929  14.857  0.3404 -0.3145  0.2180
 2376TIP3    H228544   0.070   6.061  14.797 -1.2614 -0.5153 -1.5640
 2377TIP3   OH228545   5.558   5.937   3.244 -0.1702 -0.1902  0.0694
 2377TIP3    H128546   5.560   5.999   3.317 -0.5594  0.4340 -0.4417
 2377TIP3    H228547   5.594   5.857   3.280  2.8012  1.0339  0.0890
 2378TIP3   OH228548   3.050   5.203  12.551  0.9790  0.5009  0.0518
 2378TIP3    H128549   3.007   5.134  12.502  0.7924  0.5313  0.1697
 2378TIP3    H228550   2.978   5.260  12.580  1.0954  0.5462  0.2581
 2379TIP3   OH228551   5.126   3.336   2.783  0.2958 -0.1106  0.0437
 2379TIP3    H128552   5.118   3.247   2.750  0.5928  0.1837 -0.8331
 2379TIP3    H228553   5.213   3.339   2.823  0.3972 -0.1331 -0.1747
 2380TIP3   OH228554   6.558   3.062  17.267  0.0931 -0.2214  0.4751
 2380TIP3    H128555   6.646   3.039  17.240 -0.5780 -1.5788 -0.6834
 2380TIP3    H228556   6.566   3.150  17.304  1.5433  0.6962 -1.8244
 2381TIP3   OH228557   6.554   5.357   2.676 -0.3189  0.0088 -0.0806
 2381TIP3    H128558   6.531   5.386   2.764 -2.2199 -1.6612  0.0526
 2381TIP3    H228559   6.637   5.400   2.657 -0.3854  1.2236  2.1052
 2382TIP3   OH228560   2.658   5.264   5.827 -0.1797  0.0496  0.4739
 2382TIP3    H128561   2.632   5.354   5.844  0.4372  0.3828 -0.2784
 2382TIP3    H228562   2.686   5.263   5.736  1.2237 -0.5574  0.8735
 2383TIP3   OH228563   1.961   5.030   4.723 -0.6283  0.3344 -0.4647
 2383TIP3    H128564   1.896   5.060   4.788 -0.0446  0.8882 -0.1245
 2383TIP3    H228565   1.966   5.102   4.660 -0.4694  0.2155 -0.5855
 2384TIP3   OH228566   0.104   2.990   0.846  0.1768 -0.4313 -0.6375
 2384TIP3    H128567   0.106   2.914   0.787  0.6074 -0.6150 -0.3875
 2384TIP3    H228568   0.018   3.030   0.830  0.1391 -0.6930 -1.1199
 2385TIP3   OH228569   2.641   6.629   3.310  0.2804 -0.6243  0.2374
 2385TIP3    H128570   2.706   6.559   3.323  1.8585  0.4602 -1.3621
 2385TIP3    H228571   2.672   6.676   3.233 -0.4875  2.1120  1.4860
 2386TIP3   OH228572   3.435   2.884   3.472  0.5575  0.0808  0.1101
 2386TIP3    H128573   3.349   2.851   3.498  0.7578 -0.5286  0.0132
 2386TIP3    H228574   3.472   2.922   3.552  0.1818  0.3787  0.1415
 2387TIP3   OH228575   3.073   6.650  14.397 -0.1724  0.4232  0.1351
 2387TIP3    H128576   3.103   6.601  14.474 -1.8571  1.0079  1.2213
 2387TIP3    H228577   3.112   6.605  14.323  0.9953 -0.5423  1.2912
 2388TIP3   OH228578   2.081   6.430  17.106 -0.0662  0.0222  0.0986
 2388TIP3    H128579   2.051   6.386  17.185 -0.7165 -0.5990 -0.4717
 2388TIP3    H228580   2.034   6.386  17.035 -1.2964  2.0702 -0.4591
 2389TIP3   OH228581   6.692   3.594   5.928 -0.1100 -0.1849  0.1693
 2389TIP3    H128582   6.739   3.675   5.906  1.0968 -1.0903 -0.7505
 2389TIP3    H228583   6.601   3.613   5.908  0.1618  0.9140 -0.1158
 2390TIP3   OH228584   2.932   3.865  15.271  0.5554  0.2324  0.0725
 2390TIP3    H128585   2.892   3.902  15.193 -0.7016 -0.0709  0.5418
 2390TIP3    H228586   2.950   3.774  15.248 -1.7968 -0.4893  0.7502
 2391TIP3   OH228587   4.013   1.050  15.994 -0.0036  0.2237 -0.5097
 2391TIP3    H128588   4.030   1.112  16.065 -0.3867  0.0781 -0.2846
 2391TIP3    H228589   4.077   1.072  15.927  0.5640  0.1698  0.0024
 2392TIP3   OH228590   0.134   4.567  17.242  0.5749  0.5438  0.0529
 2392TIP3    H128591   0.203   4.540  17.182  1.0345  1.7342  0.0291
 2392TIP3    H228592   0.053   4.543  17.197  0.9545 -0.8078  0.0604
 2393TIP3   OH228593   0.236   3.867  16.575  0.4386 -0.0730  0.1299
 2393TIP3    H128594   0.294   3.920  16.629 -0.7126  1.5657 -0.1444
 2393TIP3    H228595   0.239   3.909  16.489 -1.7683  0.6298  0.3310
 2394TIP3   OH228596   5.975   1.169  12.152 -0.5197 -0.3857 -0.4029
 2394TIP3    H128597   6.066   1.149  12.177  0.4711  1.4920 -2.2051
 2394TIP3    H228598   5.925   1.152  12.232  1.2107 -2.5403  0.3504
 2395TIP3   OH228599   1.545   2.643  13.203 -0.0493 -0.3761 -0.0406
 2395TIP3    H128600   1.465   2.592  13.189  0.0570 -0.0906 -1.9545
 2395TIP3    H228601   1.514   2.733  13.216 -0.0228 -0.1389 -1.5382
 2396TIP3   OH228602   0.488   2.212  14.424  0.3916  0.7905 -0.1125
 2396TIP3    H128603   0.552   2.248  14.485  0.9143 -0.2322 -0.0358
 2396TIP3    H228604   0.420   2.280  14.417 -0.1220  0.5741  2.2559
 2397TIP3   OH228605   5.158   3.962   4.348 -0.2452 -0.0028 -0.0993
 2397TIP3    H128606   5.092   4.012   4.300 -1.2694  1.1956  2.3965
 2397TIP3    H228607   5.124   3.872   4.348 -0.9965  0.2746 -0.2716
 2398TIP3   OH228608   1.208   4.888   4.908  0.0904 -0.3378 -0.1008
 2398TIP3    H128609   1.127   4.906   4.860 -0.0074  0.4132  0.3090
 2398TIP3    H228610   1.191   4.806   4.955  0.2228 -1.1190 -1.3849
 2399TIP3   OH228611   6.479   5.797   0.072  0.1873  0.0132 -0.2700
 2399TIP3    H128612   6.525   5.878   0.091  0.0643  0.4275 -1.5943
 2399TIP3    H228613   6.388   5.815   0.095  0.3285 -0.0919  0.3751
 2400TIP3   OH228614   5.719   0.736   3.957  0.0752 -0.5423  0.0089
 2400TIP3    H128615   5.634   0.732   4.001  0.0490 -1.7151 -0.1263
 2400TIP3    H228616   5.698   0.741   3.863  0.1475 -0.8419 -0.0256
 2401TIP3   OH228617   3.600   0.915  10.753  0.8093  0.0994 -0.0174
 2401TIP3    H128618   3.560   0.965  10.824 -0.5439 -1.5690  0.4516
 2401TIP3    H228619   3.689   0.896  10.786  0.8915  1.0300  0.3486
 2402TIP3   OH228620   2.682   5.812  15.440  0.3464  0.0595  0.1160
 2402TIP3    H128621   2.591   5.809  15.410  0.0407 -0.7076  1.0843
 2402TIP3    H228622   2.683   5.879  15.508  0.9380  1.4482 -1.2052
 2403TIP3   OH228623   5.924   6.729  10.996 -0.5004 -0.0822 -0.2389
 2403TIP3    H128624   5.918   6.652  11.053  1.5268 -0.1843 -0.0901
 2403TIP3    H228625   5.833   6.753  10.979 -1.1792 -1.8418  0.6063
 2404TIP3   OH228626   6.029   3.842  14.937 -0.3708 -0.0534  0.4946
 2404TIP3    H128627   6.096   3.908  14.920 -1.6739  1.4684  0.9721
 2404TIP3    H228628   5.977   3.840  14.857 -0.3964 -0.4262  0.5208
 2405TIP3   OH228629   0.560   5.697  15.481  0.2530 -0.3184  0.0156
 2405TIP3    H128630   0.478   5.725  15.440 -0.0980  0.6775  1.3125
 2405TIP3    H228631   0.587   5.620  15.432 -0.8123  0.0730 -1.2262
 2406TIP3   OH228632   0.003   1.194  17.211  1.0109 -0.2655 -0.0530
 2406TIP3    H128633  -0.087   1.204  17.242  1.2845  1.7747  0.1769
 2406TIP3    H228634   0.058   1.218  17.285  1.7678 -1.0688 -0.3257
 2407TIP3   OH228635   5.736   6.428   0.091 -0.3234  0.2963  0.1705
 2407TIP3    H128636   5.759   6.396   0.003  1.0014 -1.7182  1.1879
 2407TIP3    H228637   5.759   6.520   0.089 -0.8196  0.4289 -1.7670
 2408TIP3   OH228638   2.613   2.153  15.871  0.3532 -0.0357  0.8922
 2408TIP3    H128639   2.655   2.239  15.875  1.4726 -0.4111 -1.2192
 2408TIP3    H228640   2.520   2.172  15.863  0.5842  0.9870  0.5208
 2409TIP3   OH228641   3.791   5.733   0.836 -0.0222 -0.0596 -0.0044
 2409TIP3    H128642   3.762   5.675   0.907 -0.4135 -1.1310 -1.0032
 2409TIP3    H228643   3.845   5.677   0.780 -1.4203  0.1725 -1.6787
 2410TIP3   OH228644   2.161   2.298   2.939 -0.3194 -0.0220  0.4476
 2410TIP3    H128645   2.116   2.215   2.955 -1.0730  0.2420 -0.2275
 2410TIP3    H228646   2.167   2.340   3.025 -3.4431  0.9654  0.2885
 2411TIP3   OH228647   6.316   3.748  17.213 -0.1077  0.2304  0.8213
 2411TIP3    H128648   6.279   3.720  17.297  0.7477  0.0170  1.1370
 2411TIP3    H228649   6.406   3.774  17.234  0.0134  0.4776  0.0220
 2412TIP3   OH228650   2.051   3.353  15.607  0.5425  0.0331 -0.1156
 2412TIP3    H128651   1.989   3.281  15.598  0.2600  0.1874  0.5543
 2412TIP3    H228652   2.107   3.346  15.529  0.1641 -0.5623 -0.3425
 2413TIP3   OH228653   3.532   0.323  17.052 -0.0243 -0.0121  0.6678
 2413TIP3    H128654   3.570   0.353  17.135  0.4258 -0.8035  0.7487
 2413TIP3    H228655   3.605   0.283  17.005  0.0066  1.4747 -0.6367
 2414TIP3   OH228656   0.817   0.854   1.640 -0.1371 -0.2127 -0.3067
 2414TIP3    H128657   0.784   0.824   1.556 -0.0076 -0.9389 -0.1032
 2414TIP3    H228658   0.840   0.774   1.687  0.4658  0.2168  0.1437
 2415TIP3   OH228659   4.888   0.374   5.289  0.1232  0.1114 -0.3961
 2415TIP3    H128660   4.904   0.313   5.361  0.4276  0.8044  0.1429
 2415TIP3    H228661   4.938   0.452   5.313 -2.5863  1.7201  0.4505
 2416TIP3   OH228662   3.282   3.188   4.037  0.2949  0.0566  0.0265
 2416TIP3    H128663   3.239   3.138   3.968 -1.3843  0.8431  0.4337
 2416TIP3    H228664   3.299   3.273   3.997  0.9307 -0.0563  0.0553
 2417TIP3   OH228665   0.994   3.692   4.978  0.3818  0.0304  0.0362
 2417TIP3    H128666   1.043   3.691   4.896 -0.4566 -1.7785 -0.4855
 2417TIP3    H228667   1.061   3.700   5.046  1.2142 -0.1309 -0.7463
 2418TIP3   OH228668   5.979   6.194  14.033  0.1065 -0.1156  0.0815
 2418TIP3    H128669   6.053   6.247  14.064 -1.1429  2.2609 -0.7380
 2418TIP3    H228670   5.981   6.203  13.938 -0.5445 -0.9924 -0.0206
 2419TIP3   OH228671   6.111   0.346  12.982 -0.0754 -0.4812 -0.0430
 2419TIP3    H128672   6.043   0.388  12.931  1.1114  1.2502 -0.2840
 2419TIP3    H228673   6.130   0.264  12.936 -2.4192 -1.3560  0.4217
 2420TIP3   OH228674   2.799   5.869  13.980 -0.2614 -0.5431  0.4301
 2420TIP3    H128675   2.819   5.775  13.982 -0.0996 -0.4934  1.3584
 2420TIP3    H228676   2.711   5.874  13.943 -0.1804 -1.0419  0.1596
 2421TIP3   OH228677   1.335   1.614   2.554 -0.4298  0.2440 -0.1128
 2421TIP3    H128678   1.419   1.647   2.587  0.3748 -0.4849 -1.3755
 2421TIP3    H228679   1.272   1.682   2.579  0.3494  0.3948  1.6550
 2422TIP3   OH228680   1.981   3.839   3.534 -0.4676  0.7356  0.2948
 2422TIP3    H128681   2.042   3.785   3.584 -1.2333 -1.2920 -0.8216
 2422TIP3    H228682   1.929   3.884   3.600  0.1361  0.0238  1.2912
 2423TIP3   OH228683   1.555   2.765   1.811 -0.5601 -0.6236 -0.2921
 2423TIP3    H128684   1.587   2.676   1.823 -0.3448 -0.6100 -0.7353
 2423TIP3    H228685   1.625   2.822   1.844  0.0263 -0.5868 -1.5556
 2424TIP3   OH228686   1.636   3.327   4.373  0.1901  0.3683 -0.2353
 2424TIP3    H128687   1.712   3.279   4.405  1.0672  0.8418 -1.5328
 2424TIP3    H228688   1.589   3.353   4.452  2.1765  1.3330  0.6771
 2425TIP3   OH228689   2.098   3.693  15.415 -0.2313  0.0611 -0.5456
 2425TIP3    H128690   2.116   3.762  15.479 -1.1146  0.7571 -1.0306
 2425TIP3    H228691   2.170   3.700  15.352  0.0710  0.0561 -0.2083
 2426TIP3   OH228692   4.986   5.663  15.934  0.0534 -0.3688  0.3702
 2426TIP3    H128693   4.898   5.661  15.896  1.0447 -1.2737 -2.1074
 2426TIP3    H228694   4.974   5.636  16.025 -2.2836  0.2115  0.2995
 2427TIP3   OH228695   1.023   0.945  15.888  0.0472 -0.2255  0.2267
 2427TIP3    H128696   1.009   1.039  15.881 -0.0836 -0.0874  1.9258
 2427TIP3    H228697   0.941   0.911  15.924  0.1518 -0.9826 -0.2148
 2428TIP3   OH228698   4.912   4.352  14.644 -0.4093  0.1215  0.0642
 2428TIP3    H128699   4.964   4.424  14.608 -1.5472  1.0937  0.2648
 2428TIP3    H228700   4.844   4.336  14.578 -1.6429  0.9447  1.0664
 2429TIP3   OH228701   1.017   3.459  16.141  0.2738  0.0859 -0.5284
 2429TIP3    H128702   0.960   3.399  16.092  0.2263 -0.6037  0.3429
 2429TIP3    H228703   1.076   3.496  16.075 -0.9849  0.5907 -1.4063
 2430TIP3   OH228704   0.373   0.528  13.023 -0.3250 -0.4780  0.0203
 2430TIP3    H128705   0.348   0.465  13.090  0.4892 -2.6943 -1.6476
 2430TIP3    H228706   0.296   0.536  12.967  0.3509 -1.9990 -1.1926
 2431TIP3   OH228707   1.304   0.285  16.142  0.4328 -0.2184 -0.0559
 2431TIP3    H128708   1.368   0.272  16.212 -1.4596 -1.6785  1.5150
 2431TIP3    H228709   1.260   0.367  16.165  0.0493 -0.5185  0.3047
 2432TIP3   OH228710   6.051   0.297   5.520  0.1529 -0.2120 -0.2304
 2432TIP3    H128711   6.069   0.325   5.430 -1.0666  1.4688 -0.0141
 2432TIP3    H228712   6.112   0.347   5.573 -2.3067  2.6548  0.1947
 2433TIP3   OH228713   3.626   0.694  16.040 -0.1134 -0.3193  0.2815
 2433TIP3    H128714   3.533   0.677  16.054 -0.4215  0.9489 -0.0886
 2433TIP3    H228715   3.668   0.662  16.120 -1.2166  1.8025  1.8131
 2434TIP3   OH228716   6.460   5.478  14.000  0.2007 -0.8250  0.1873
 2434TIP3    H128717   6.495   5.485  13.911  0.8562 -3.5526  0.1354
 2434TIP3    H228718   6.388   5.541  14.003  1.7805  1.2004 -1.3895
 2435TIP3   OH228719   0.616   0.842   1.818  0.7019 -0.6613 -0.2914
 2435TIP3    H128720   0.700   0.863   1.778  0.4818 -1.8874 -1.4705
 2435TIP3    H228721   0.555   0.835   1.744 -0.1158 -1.2046  0.4129
 2436TIP3   OH228722   0.553   1.058   1.994 -0.1653  0.0203 -0.0680
 2436TIP3    H128723   0.592   0.977   1.961 -2.0478 -1.1364  0.4238
 2436TIP3    H228724   0.627   1.118   2.002  0.9928 -0.9281 -2.4683
 2437TIP3   OH228725   3.332   6.101   4.677 -0.5563 -0.1952  0.2426
 2437TIP3    H128726   3.252   6.103   4.625 -0.7098  1.6335  0.4531
 2437TIP3    H228727   3.302   6.088   4.767 -0.4475 -1.3485  0.1267
 2438TIP3   OH228728   2.442   4.146   0.047  0.1830  0.3663 -0.1507
 2438TIP3    H128729   2.510   4.137   0.113 -0.4471 -0.9450  0.3431
 2438TIP3    H228730   2.453   4.070  -0.010 -2.0595 -0.9841  1.0934
 2439TIP3   OH228731   6.590   5.012   5.422  0.1415  0.2942 -0.1769
 2439TIP3    H128732   6.593   5.039   5.514  1.0175  1.7246 -0.5840
 2439TIP3    H228733   6.669   5.049   5.384 -0.3355 -0.0629 -1.5672
 2440TIP3   OH228734   5.552   4.086  12.196 -0.1623 -0.2248  0.0248
 2440TIP3    H128735   5.574   4.008  12.247  0.6642 -0.6125 -0.8889
 2440TIP3    H228736   5.630   4.140  12.201 -0.2845 -0.0116 -0.3550
 2441TIP3   OH228737   3.897   2.164   3.069  0.6286  0.6957  0.0346
 2441TIP3    H128738   3.858   2.186   2.984  0.7420  2.1083  0.3155
 2441TIP3    H228739   3.868   2.235   3.127 -0.5414 -0.9250  1.5234
 2442TIP3   OH228740   5.164   4.687  11.979 -0.5681 -0.6908 -0.0124
 2442TIP3    H128741   5.070   4.672  11.993 -0.3113 -1.8225  0.7121
 2442TIP3    H228742   5.183   4.643  11.896 -0.7486 -0.0790 -0.3865
 2443TIP3   OH228743   2.296   5.123  13.627 -0.7844  0.3042  0.2780
 2443TIP3    H128744   2.251   5.075  13.696 -1.5388  1.3972  0.5739
 2443TIP3    H228745   2.378   5.075  13.614 -1.2158 -0.6694  1.0085
 2444TIP3   OH228746   6.134   0.413   2.027  0.2870  0.1907 -0.5394
 2444TIP3    H128747   6.148   0.396   2.120 -1.7491  0.1659 -0.1889
 2444TIP3    H228748   6.176   0.497   2.011 -0.1569  0.6591  0.6503
 2445TIP3   OH228749   2.074   4.079  12.450 -0.3474 -0.2084 -0.3148
 2445TIP3    H128750   2.131   4.078  12.373 -0.1063  2.0737 -0.2343
 2445TIP3    H228751   2.010   4.147  12.432 -3.2489 -2.7227 -0.4253
 2446TIP3   OH228752   4.622   6.404  12.935  0.4258  0.3963  0.2435
 2446TIP3    H128753   4.654   6.315  12.951  1.8397  1.0631  1.3739
 2446TIP3    H228754   4.692   6.445  12.884 -0.1195  0.9364 -0.0815
 2447TIP3   OH228755   5.104   1.184   0.716 -0.3654  0.4017  0.5162
 2447TIP3    H128756   5.191   1.203   0.750 -0.5045  1.0839  0.5079
 2447TIP3    H228757   5.051   1.165   0.794 -0.4385  0.9490  0.6047
 2448TIP3   OH228758   6.250   1.977   1.867 -0.7594  0.1276  0.0332
 2448TIP3    H128759   6.234   1.934   1.951  1.0345  0.1102  0.4096
 2448TIP3    H228760   6.307   2.051   1.888 -0.3673  0.1812 -1.1371
 2449TIP3   OH228761   4.137   0.966   0.735  0.3613  0.0861  0.3090
 2449TIP3    H128762   4.103   0.888   0.779 -1.4653  0.1574 -0.8609
 2449TIP3    H228763   4.075   0.982   0.664 -0.8647  4.1118  2.0237
 2450TIP3   OH228764   2.443   3.271  15.208 -0.3422 -0.0801  0.1548
 2450TIP3    H128765   2.360   3.258  15.164  0.1598 -0.7096 -0.6467
 2450TIP3    H228766   2.499   3.312  15.142 -0.3414  1.3990  1.0394
 2451TIP3   OH228767   5.217   4.000  17.246 -0.1290 -0.1685  0.1175
 2451TIP3    H128768   5.308   4.022  17.226 -0.4186  0.7379 -0.2753
 2451TIP3    H228769   5.216   3.984  17.340  0.0580  1.9146  0.5110
 2452TIP3   OH228770   2.805   2.455  14.513  0.5189 -0.5872  0.1165
 2452TIP3    H128771   2.733   2.518  14.518  1.2027  0.3235 -1.0203
 2452TIP3    H228772   2.818   2.441  14.419  0.6339 -2.1605  0.3300
 2453TIP3   OH228773   0.893   3.259  13.031  0.1128 -0.0774 -0.2231
 2453TIP3    H128774   0.842   3.295  12.958  1.7451  0.0065 -1.3638
 2453TIP3    H228775   0.921   3.173  13.000  0.4142 -0.2528  0.5191
 2454TIP3   OH228776   4.406   6.435   1.611  0.5215  0.3585 -0.1411
 2454TIP3    H128777   4.463   6.471   1.680  0.8530 -0.2207 -0.1056
 2454TIP3    H228778   4.324   6.415   1.656  1.0648 -0.9463  0.3259
 2455TIP3   OH228779   3.392   6.110  15.036 -0.0198 -0.5111 -0.4421
 2455TIP3    H128780   3.402   6.074  15.124 -2.0556  0.1262  0.1159
 2455TIP3    H228781   3.382   6.204  15.049  3.7388  0.2288 -1.7727
 2456TIP3   OH228782   1.846   5.347  14.360 -0.6084 -0.6685 -0.6105
 2456TIP3    H128783   1.932   5.315  14.386 -0.7295  0.3664  1.1948
 2456TIP3    H228784   1.784   5.301  14.417 -1.1105 -0.2328 -0.7945
 2457TIP3   OH228785   4.257   5.527  16.865 -0.2281 -0.6384  0.1294
 2457TIP3    H128786   4.183   5.478  16.829  0.3378 -1.4489  0.0443
 2457TIP3    H228787   4.239   5.618  16.842 -1.4809 -0.7504  0.6044
 2458TIP3   OH228788   6.517   4.948   2.021 -0.1870 -0.0431 -0.2184
 2458TIP3    H128789   6.493   4.887   1.951  0.5782  0.4904 -0.9708
 2458TIP3    H228790   6.528   5.032   1.976  1.3838  0.0884  0.3548
 2459TIP3   OH228791   1.913   3.002  16.972  0.2290 -0.4760  0.1411
 2459TIP3    H128792   1.902   3.064  17.044  0.1478  0.6722 -0.8249
 2459TIP3    H228793   2.001   3.018  16.939  0.3665 -1.1832  0.1461
 2460TIP3   OH228794   4.662   6.008   1.970 -0.0290  0.0400 -0.0086
 2460TIP3    H128795   4.714   6.086   1.986  3.0000 -1.7071 -0.5197
 2460TIP3    H228796   4.715   5.936   2.005 -2.6319 -1.8422  0.3900
 2461TIP3   OH228797   4.462   5.394  12.855  0.1737  0.0001 -0.6608
 2461TIP3    H128798   4.452   5.431  12.767  3.2763  2.6072 -0.0995
 2461TIP3    H228799   4.547   5.352  12.854  0.7411  0.9718  1.3264
 2462TIP3   OH228800   6.620   0.595  15.698  0.1917  0.1078  0.1888
 2462TIP3    H128801   6.537   0.617  15.740 -1.7389 -0.8735 -2.8013
 2462TIP3    H228802   6.635   0.666  15.635 -0.0677 -1.2514 -1.4651
 2463TIP3   OH228803   0.505   4.769   3.732  0.1826  0.0048 -0.1820
 2463TIP3    H128804   0.589   4.777   3.687 -1.2437  1.5665 -2.7635
 2463TIP3    H228805   0.472   4.683   3.707 -0.8190  1.0326 -2.7925
 2464TIP3   OH228806   3.646   1.505  16.419  0.7413  0.0734  0.2274
 2464TIP3    H128807   3.620   1.471  16.505  0.6080  0.1358  0.2120
 2464TIP3    H228808   3.739   1.487  16.413  0.8754  0.5850  0.6311
 2465TIP3   OH228809   3.655   0.108  16.249  0.0389 -0.5455 -0.2228
 2465TIP3    H128810   3.565   0.084  16.227 -0.0754  0.2494 -0.6794
 2465TIP3    H228811   3.673   0.185  16.194 -0.4673  1.9936  2.8939
 2466TIP3   OH228812   6.474   3.529   1.042  0.2996  0.0705 -0.5887
 2466TIP3    H128813   6.395   3.483   1.014  0.9505 -1.0093 -0.7258
 2466TIP3    H228814   6.542   3.500   0.981  0.7537  1.2056 -0.6571
 2467TIP3   OH228815   0.403   1.288  11.647  0.2619 -0.1115 -0.1546
 2467TIP3    H128816   0.329   1.342  11.674  1.1914  0.3824  1.5591
 2467TIP3    H228817   0.455   1.345  11.590 -0.3370 -0.2522 -0.8528
 2468TIP3   OH228818   3.122   2.922   4.070 -0.3525  0.1122 -0.0601
 2468TIP3    H128819   3.133   2.967   3.986 -0.4464  2.4720  1.0989
 2468TIP3    H228820   3.206   2.933   4.114 -0.3073 -1.0937  0.1838
 2469TIP3   OH228821   4.076   3.637  13.304  0.0643 -0.1021  0.2027
 2469TIP3    H128822   4.051   3.729  13.316 -0.2988 -0.3120  1.1781
 2469TIP3    H228823   4.023   3.590  13.368 -0.1387 -1.0614 -0.6466
 2470TIP3   OH228824   5.272   6.347  15.899 -0.0397  0.1226  0.1859
 2470TIP3    H128825   5.357   6.389  15.896 -0.5142  1.0663 -0.4431
 2470TIP3    H228826   5.291   6.255  15.918  1.1530  0.1668 -0.7304
 2471TIP3   OH228827   0.010   0.697   1.154 -0.2570  0.1553  0.1419
 2471TIP3    H128828   0.034   0.700   1.246  0.6203  0.3364 -0.0804
 2471TIP3    H228829   0.094   0.696   1.107 -0.6877  0.4789 -0.6622
 2472TIP3   OH228830   5.219   4.599   3.367  0.4694 -0.2982  0.2301
 2472TIP3    H128831   5.162   4.546   3.311  2.2692 -2.2662  0.1244
 2472TIP3    H228832   5.266   4.656   3.307 -0.6605  0.6766  0.2293
 2473TIP3   OH228833   2.345   3.831   0.764 -0.7763  0.3948 -0.3744
 2473TIP3    H128834   2.377   3.787   0.843  0.2693  1.9041  0.0778
 2473TIP3    H228835   2.254   3.851   0.783 -1.0480 -0.8210 -0.2783
 2474TIP3   OH228836   3.513   2.897   0.935  0.1739  0.5496  0.1078
 2474TIP3    H128837   3.542   2.961   0.869 -0.7786  0.2995 -0.5728
 2474TIP3    H228838   3.426   2.870   0.906  0.7583 -1.4506  0.0760
 2475TIP3   OH228839   3.411   2.457   4.249  0.1847  0.4453  0.5293
 2475TIP3    H128840   3.331   2.499   4.282 -1.3067 -1.5206 -0.4090
 2475TIP3    H228841   3.415   2.373   4.296  0.6770 -0.2819 -0.7782
 2476TIP3   OH228842   6.441   0.674  11.117  0.0407 -0.1473 -0.2724
 2476TIP3    H128843   6.389   0.597  11.095 -1.5508  1.1196 -1.1341
 2476TIP3    H228844   6.528   0.639  11.138 -0.7225 -2.1834 -0.3147
 2477TIP3   OH228845   6.757   3.251  14.591  0.4126 -0.2719 -0.6185
 2477TIP3    H128846   6.776   3.217  14.503 -0.5800 -0.3164 -0.8298
 2477TIP3    H228847   6.817   3.325  14.601  0.9677 -0.6433 -1.0843
 2478TIP3   OH228848   4.146   3.174   5.661  0.0083 -0.4339  0.1587
 2478TIP3    H128849   4.108   3.249   5.614  1.8554  0.9376  0.7137
 2478TIP3    H228850   4.213   3.141   5.601 -0.9599 -1.8499 -0.1822
 2479TIP3   OH228851   5.505   4.368   3.206  0.0232 -0.0620  0.1493
 2479TIP3    H128852   5.425   4.338   3.250 -0.9942  1.8651 -0.2670
 2479TIP3    H228853   5.538   4.290   3.160 -3.0213 -0.3972 -1.7369
 2480TIP3   OH228854   4.646   2.498   1.990  0.6245 -0.2507 -0.2946
 2480TIP3    H128855   4.587   2.570   1.966  0.1811 -0.4473  0.1921
 2480TIP3    H228856   4.724   2.513   1.937  0.4450  0.4575 -0.3739
 2481TIP3   OH228857   0.405   1.094   5.702  0.2773 -0.3507  0.1534
 2481TIP3    H128858   0.313   1.110   5.725  0.3912 -0.5633  0.7580
 2481TIP3    H228859   0.423   1.158   5.632 -0.9468 -1.7362 -1.5257
 2482TIP3   OH228860   3.706   2.515   4.556  0.4693 -0.3317 -0.6680
 2482TIP3    H128861   3.730   2.516   4.648 -0.8816  2.7174 -0.2494
 2482TIP3    H228862   3.768   2.577   4.515 -1.6304  1.7233 -0.9264
 2483TIP3   OH228863   1.522   6.155  14.680  0.1992 -0.1558 -0.1773
 2483TIP3    H128864   1.547   6.245  14.698 -0.2003 -0.2497  0.8998
 2483TIP3    H228865   1.594   6.120  14.628  0.4121  0.7411 -0.4951
 2484TIP3   OH228866   5.749   4.996  15.844 -0.1836  0.4621  0.2061
 2484TIP3    H128867   5.823   4.935  15.841 -0.8200 -0.3133 -0.0932
 2484TIP3    H228868   5.726   5.010  15.752 -2.7739 -2.2841  0.3074
 2485TIP3   OH228869   5.583   4.947  15.002  0.3681 -0.3574 -0.1582
 2485TIP3    H128870   5.497   4.985  15.017 -0.4215 -2.2810  0.5606
 2485TIP3    H228871   5.645   5.009  15.041 -0.6241  1.2715 -1.0822
 2486TIP3   OH228872   6.724   1.279   2.500  0.1648  0.4515 -0.1650
 2486TIP3    H128873   6.632   1.261   2.482  0.6502 -1.6233 -0.9311
 2486TIP3    H228874   6.748   1.345   2.435 -0.4920  0.0555 -0.8381
 2487TIP3   OH228875   1.302   5.662   4.420 -0.3307  0.1947 -0.1896
 2487TIP3    H128876   1.350   5.702   4.492  2.1524 -0.6117 -1.2862
 2487TIP3    H228877   1.268   5.736   4.370  2.4531  0.9964 -1.0695
 2488TIP3   OH228878   3.508   6.394  16.751 -0.1300 -0.3335 -0.4515
 2488TIP3    H128879   3.504   6.463  16.685 -0.1590  0.0549 -0.0523
 2488TIP3    H228880   3.423   6.400  16.796  0.4995  0.4816  0.6783
 2489TIP3   OH228881   3.123   1.993  17.235  0.6753 -0.2534 -0.2644
 2489TIP3    H128882   3.102   1.901  17.252 -0.4094 -0.1061 -0.6928
 2489TIP3    H228883   3.056   2.042  17.283  0.3993  0.2661 -1.1607
 2490TIP3   OH228884   0.495   0.152  11.705  0.0052  0.9249  0.1639
 2490TIP3    H128885   0.549   0.200  11.767 -0.8382  0.9412  0.9077
 2490TIP3    H228886   0.528   0.062  11.709  0.0187  0.9472  0.5547
 2491TIP3   OH228887   6.674   2.226   0.731  0.0888 -0.3609  0.3305
 2491TIP3    H128888   6.737   2.165   0.769  2.3705  1.0739 -0.9640
 2491TIP3    H228889   6.726   2.300   0.700 -2.0478  0.3262 -2.0519
 2492TIP3   OH228890   0.354   2.904   4.878  0.0921 -0.1912 -0.5956
 2492TIP3    H128891   0.314   2.827   4.919 -1.2344 -0.1503 -1.7547
 2492TIP3    H228892   0.422   2.931   4.940 -2.0321  0.0918  1.7832
 2493TIP3   OH228893   4.911   4.902  14.899  0.1622 -0.1912  0.1123
 2493TIP3    H128894   4.926   4.813  14.869  1.4345  0.0200  0.0434
 2493TIP3    H228895   4.818   4.906  14.918  0.0165 -1.4153 -0.2612
 2494TIP3   OH228896   6.213   2.584  15.678 -1.0828  0.1893  0.3388
 2494TIP3    H128897   6.294   2.579  15.727 -1.1405  1.0729  0.5395
 2494TIP3    H228898   6.240   2.591  15.586 -0.9206  1.0395  0.4502
 2495TIP3   OH228899   1.623   3.792   0.798  0.7458 -0.3707  0.3583
 2495TIP3    H128900   1.571   3.713   0.806 -0.0974  0.1534  0.2272
 2495TIP3    H228901   1.559   3.860   0.776  1.5796  0.1597 -0.4795
 2496TIP3   OH228902   3.626   1.705  14.853  0.0393  0.1039 -0.5932
 2496TIP3    H128903   3.715   1.675  14.836  0.5249  1.1613 -0.0494
 2496TIP3    H228904   3.585   1.632  14.899  0.8080 -0.1864 -0.3395
 2497TIP3   OH228905   5.399   2.920  15.307  0.0014 -0.2820 -0.0221
 2497TIP3    H128906   5.411   2.825  15.311  0.6037 -0.3092 -1.5065
 2497TIP3    H228907   5.477   2.956  15.350 -0.1902 -0.4565  0.4750
 2498TIP3   OH228908   2.997   6.317  14.859 -0.6566  0.4107 -0.0020
 2498TIP3    H128909   3.076   6.286  14.814  0.0479  1.2276  0.6503
 2498TIP3    H228910   2.989   6.259  14.934 -0.6947  0.3110 -0.0824
 2499TIP3   OH228911   0.347   1.508  13.937 -0.2722  0.6910  0.1009
 2499TIP3    H128912   0.335   1.449  13.863 -0.3469  1.3424 -0.4132
 2499TIP3    H228913   0.262   1.510  13.980 -0.4105  0.8144 -0.1757
 2500TIP3   OH228914   3.262   2.970  12.051  0.1448 -0.5613  0.2638
 2500TIP3    H128915   3.246   2.908  12.122  0.9292 -0.9133  0.1481
 2500TIP3    H228916   3.181   2.969  12.000  0.4507 -2.1730 -0.2401
 2501TIP3   OH228917   4.347   6.284   4.327  0.0304 -0.9561 -0.2613
 2501TIP3    H128918   4.416   6.288   4.262  2.2286  0.4736  2.0023
 2501TIP3    H228919   4.385   6.236   4.400 -0.4128  1.8230  1.9890
 2502TIP3   OH228920   1.981   3.791   5.019  0.0343 -0.4738 -0.2340
 2502TIP3    H128921   2.025   3.708   5.000 -0.1369 -1.3191  2.6665
 2502TIP3    H228922   1.966   3.790   5.113  0.1438  2.9572 -0.0555
 2503TIP3   OH228923   3.424   5.339  13.092 -1.1489  0.3229  0.2258
 2503TIP3    H128924   3.388   5.331  13.180 -1.2437  0.4397  0.1974
 2503TIP3    H228925   3.514   5.369  13.105 -0.7223 -0.9851  0.3394
 2504TIP3   OH228926   0.434   4.806  15.568 -0.1116 -0.4244 -0.1722
 2504TIP3    H128927   0.509   4.858  15.538  0.2755  0.1651  1.6789
 2504TIP3    H228928   0.464   4.715  15.560  0.7406 -0.2028  0.3467
 2505TIP3   OH228929   2.114   4.103   3.983 -0.2574  0.3309  0.1271
 2505TIP3    H128930   2.096   4.048   4.059 -1.3117  0.0498 -0.3059
 2505TIP3    H228931   2.073   4.187   4.004  0.6647  0.7117  0.4510
 2506TIP3   OH228932   3.681   5.713   0.300  1.0059 -0.0339 -0.4031
 2506TIP3    H128933   3.675   5.688   0.208 -0.2769 -0.3324 -0.2541
 2506TIP3    H228934   3.767   5.754   0.308  1.6106 -1.0260 -1.4838
 2507TIP3   OH228935   0.528   4.179  12.200  0.0522 -0.3620 -0.2216
 2507TIP3    H128936   0.564   4.260  12.162  0.2990  0.1471  1.0241
 2507TIP3    H228937   0.606   4.126  12.219 -0.1001 -0.8286 -0.8797
 2508TIP3   OH228938   4.838   5.229  11.915  0.0996 -0.3496 -0.2355
 2508TIP3    H128939   4.884   5.276  11.846  0.7361 -0.0318  0.3955
 2508TIP3    H228940   4.745   5.244  11.897  0.2558 -0.3463 -1.0688
 2509TIP3   OH228941   0.547   1.418  11.446  1.1297 -0.4731  0.5284
 2509TIP3    H128942   0.590   1.480  11.505 -1.1180  1.4196  0.2980
 2509TIP3    H228943   0.563   1.454  11.359  3.5576 -2.7002 -0.0580
 2510TIP3   OH228944   2.077   3.458   4.490  0.1746 -0.0171  0.1854
 2510TIP3    H128945   2.129   3.417   4.421 -0.2485 -0.0766 -0.1002
 2510TIP3    H228946   2.063   3.548   4.460  1.9611  0.6763  1.2766
 2511TIP3   OH228947   2.604   3.508   0.055 -0.3278 -0.1302  0.1383
 2511TIP3    H128948   2.655   3.429   0.072 -0.3212  0.2817  2.2726
 2511TIP3    H228949   2.652   3.578   0.100 -1.3389  0.7574 -0.1074
 2512TIP3   OH228950   1.337   3.244   1.484 -0.0490 -0.3008  0.1433
 2512TIP3    H128951   1.254   3.199   1.470 -1.1159  1.2513  1.2111
 2512TIP3    H228952   1.343   3.255   1.579  1.8726 -1.2293  0.1820
 2513TIP3   OH228953   6.037   0.747  10.668  0.1765  0.2655 -0.6333
 2513TIP3    H128954   5.986   0.810  10.719  1.9141  2.5144 -1.4984
 2513TIP3    H228955   6.099   0.710  10.731  0.6250  1.1382 -0.5424
 2514TIP3   OH228956   2.919   1.491  12.945 -1.2673  0.3956  0.2849
 2514TIP3    H128957   3.008   1.471  12.916 -0.9922  0.9128  0.7388
 2514TIP3    H228958   2.872   1.513  12.864 -2.0055 -3.3592 -0.4605
 2515TIP3   OH228959   2.465   1.401  12.415 -0.0641  0.0560  0.1609
 2515TIP3    H128960   2.535   1.359  12.465 -0.4176 -0.6852  0.0447
 2515TIP3    H228961   2.478   1.371  12.326 -0.3633  0.1416  0.0878
 2516TIP3   OH228962   4.177   2.306   6.280  0.1988  0.1853  0.0391
 2516TIP3    H128963   4.173   2.249   6.203 -0.8007  2.2529 -1.5134
 2516TIP3    H228964   4.091   2.296   6.321 -1.2760  2.8480 -2.0671
 2517TIP3   OH228965   2.038   6.384  13.553  0.1190 -0.8198 -0.5640
 2517TIP3    H128966   1.947   6.411  13.561 -0.5238 -2.6269 -1.2257
 2517TIP3    H228967   2.088   6.453  13.598 -1.2337  1.9302 -2.9493
 2518TIP3   OH228968   4.136   0.607   0.056  0.5286 -0.0077 -0.3241
 2518TIP3    H128969   4.147   0.685   0.111 -0.2442  0.3129 -0.6151
 2518TIP3    H228970   4.085   0.637  -0.019 -0.6544 -0.9911  0.0392
 2519TIP3   OH228971   6.599   2.874  10.705 -0.2327 -0.1988 -0.1601
 2519TIP3    H128972   6.670   2.861  10.642  1.7143 -0.0322  1.8634
 2519TIP3    H228973   6.632   2.837  10.787 -2.5697 -0.2387  0.8626
 2520TIP3   OH228974   0.126   3.048   0.168  0.0357 -0.1232 -0.3717
 2520TIP3    H128975   0.129   3.142   0.184 -1.4910 -0.3538  1.8289
 2520TIP3    H228976   0.053   3.017   0.222 -0.4707 -2.3748 -2.1643
 2521TIP3   OH228977   4.875   2.391  11.367  0.1109 -0.3423  0.0792
 2521TIP3    H128978   4.882   2.438  11.284 -0.5718 -2.8864 -1.5416
 2521TIP3    H228979   4.964   2.360  11.383  0.1530 -0.2357  0.0564
 2522TIP3   OH228980   4.934   4.393   5.246  0.5386 -0.2250 -0.3842
 2522TIP3    H128981   4.905   4.448   5.173  1.5291  1.3452  0.3279
 2522TIP3    H228982   4.905   4.440   5.324  1.7666 -0.4763  0.2560
 2523TIP3   OH228983   2.280   3.441  16.645 -0.5032 -0.5205 -0.0211
 2523TIP3    H128984   2.300   3.362  16.696  0.8427 -0.1152  0.1188
 2523TIP3    H228985   2.233   3.409  16.568 -0.8342 -1.3515  0.5147
 2524TIP3   OH228986   0.339   3.680   5.144 -0.1919  0.7405  0.3662
 2524TIP3    H128987   0.315   3.588   5.156  0.9085  0.6434  2.0852
 2524TIP3    H228988   0.259   3.721   5.111 -1.6458 -0.2567  2.4548
 2525TIP3   OH228989   1.335   5.783  13.357  0.0220  0.1787 -0.0644
 2525TIP3    H128990   1.289   5.711  13.401  1.1439  0.1455  1.0937
 2525TIP3    H228991   1.268   5.823  13.301 -1.0038 -0.8373  0.3998
 2526TIP3   OH228992   6.009   0.967  16.118 -0.6499 -1.0376 -0.3698
 2526TIP3    H128993   6.061   1.020  16.058  0.0234 -1.0502  0.1901
 2526TIP3    H228994   5.940   0.928  16.063 -0.0080 -1.1007 -1.1415
 2527TIP3   OH228995   0.504   0.346   0.518  0.1921  0.5552  0.0764
 2527TIP3    H128996   0.420   0.366   0.561  0.2071  0.9544 -0.0724
 2527TIP3    H228997   0.529   0.428   0.475  0.7490  0.4894  0.2662
 2528TIP3   OH228998   4.846   2.340  12.317 -0.2375 -0.2607  0.3600
 2528TIP3    H128999   4.891   2.396  12.254  1.8121 -2.5799 -0.4035
 2528TIP3    H229000   4.851   2.388  12.400  1.9355  0.4714 -0.1417
 2529TIP3   OH229001   0.359   4.238  16.869  0.3296  0.0023 -0.1007
 2529TIP3    H129002   0.278   4.200  16.903  0.4064  0.0290  0.1152
 2529TIP3    H229003   0.406   4.267  16.947  1.0530 -1.0004 -0.1580
 2530TIP3   OH229004   2.055   4.995  12.444  0.5937  0.3529 -0.4031
 2530TIP3    H129005   2.032   5.053  12.516 -0.1694  0.8304 -1.0117
 2530TIP3    H229006   2.089   5.053  12.376  2.3183 -0.1975 -0.0537
 2531TIP3   OH229007   2.728   1.088   3.340 -0.3787  0.2256 -0.2729
 2531TIP3    H129008   2.692   1.000   3.351 -0.0706 -0.1346 -1.8968
 2531TIP3    H229009   2.653   1.146   3.355 -0.6468 -0.3088  0.5364
 2532TIP3   OH229010   0.766   6.496  10.659  0.2709 -0.4473 -0.2497
 2532TIP3    H129011   0.781   6.527  10.570  0.6532  0.3618  0.0910
 2532TIP3    H229012   0.843   6.525  10.708 -0.5591  0.2843  0.6403
 2533TIP3   OH229013   3.767   3.247   0.196  0.1276  0.4363 -0.3894
 2533TIP3    H129014   3.732   3.160   0.213 -1.8729  0.8858 -1.8119
 2533TIP3    H229015   3.761   3.257   0.101  1.2790  1.7623 -0.3578
 2534TIP3   OH229016   2.934   5.844  15.302  0.0946  0.2594 -0.5468
 2534TIP3    H129017   2.928   5.871  15.211  0.5694  2.3815  0.0007
 2534TIP3    H229018   2.844   5.843  15.334  0.0315  0.7152 -0.7126
 2535TIP3   OH229019   1.193   5.061  17.153 -0.4852 -0.7120 -0.1418
 2535TIP3    H129020   1.128   5.110  17.103 -0.9336 -2.5694 -1.5069
 2535TIP3    H229021   1.182   5.091  17.243 -1.5485  0.7767 -0.7306
 2536TIP3   OH229022   6.180   0.406  13.582 -0.3018 -0.0718  0.3398
 2536TIP3    H129023   6.107   0.456  13.618  0.9700  0.4540  2.4148
 2536TIP3    H229024   6.198   0.446  13.497 -0.3030  2.0221  1.2737
 2537TIP3   OH229025   1.579   1.199  15.392  0.4402 -0.0015 -0.4319
 2537TIP3    H129026   1.612   1.242  15.471  0.5808 -0.8284 -0.0301
 2537TIP3    H229027   1.647   1.134  15.370 -0.9423 -1.8458  0.4961
 2538TIP3   OH229028   6.318   2.531   4.523  0.1878  0.1218 -0.0189
 2538TIP3    H129029   6.316   2.441   4.489  1.2833  0.8352 -2.0890
 2538TIP3    H229030   6.410   2.546   4.544  0.0386  0.8360  0.1249
 2539TIP3   OH229031   1.402   0.856   3.519  0.1420  0.0069  0.3287
 2539TIP3    H129032   1.329   0.795   3.506  0.3725 -0.3217  0.5622
 2539TIP3    H229033   1.408   0.866   3.614  0.1376  0.3599  0.2941
 2540TIP3   OH229034   3.338   0.940   1.889 -0.2595 -0.2527  0.4329
 2540TIP3    H129035   3.348   1.010   1.954 -1.4948 -0.0341  0.4060
 2540TIP3    H229036   3.276   0.880   1.928 -0.8275 -0.2466 -0.4417
 2541TIP3   OH229037   6.737   2.932   2.511  0.2096 -0.4090  0.5252
 2541TIP3    H129038   6.739   2.837   2.511 -1.5365 -0.4660  0.6011
 2541TIP3    H229039   6.800   2.957   2.442 -0.4527 -1.6604 -0.5756
 2542TIP3   OH229040   1.273   6.041   2.817  0.2644  0.1674 -0.4901
 2542TIP3    H129041   1.342   6.107   2.816  0.8512 -0.4269 -0.4891
 2542TIP3    H229042   1.293   5.987   2.893 -0.1474 -0.0714 -0.5476
 2543TIP3   OH229043   1.957   3.618  13.742 -0.0452 -0.1040 -0.1062
 2543TIP3    H129044   2.036   3.565  13.754 -0.4791 -1.8892 -3.6935
 2543TIP3    H229045   1.978   3.675  13.669 -1.1895  1.4399  0.7232
 2544TIP3   OH229046   4.874   2.494  16.638  0.5051 -0.4657  0.2982
 2544TIP3    H129047   4.968   2.490  16.650  0.5168 -0.1298  0.3241
 2544TIP3    H229048   4.841   2.541  16.715  0.4431  0.4782 -0.2882
 2545TIP3   OH229049   2.926   6.285  14.229  0.0900 -0.2135  0.0292
 2545TIP3    H129050   2.835   6.317  14.234 -0.4606 -1.3175 -1.9392
 2545TIP3    H229051   2.932   6.220  14.298 -0.7601 -0.4332 -0.0912
 2546TIP3   OH229052   1.602   4.233   1.912 -0.2528 -0.0613 -0.1589
 2546TIP3    H129053   1.511   4.203   1.908 -0.0921 -0.5118 -0.5064
 2546TIP3    H229054   1.600   4.307   1.973 -0.6129 -0.8971  0.8767
 2547TIP3   OH229055   5.454   3.606   1.816 -0.2204  0.6048  0.1613
 2547TIP3    H129056   5.435   3.615   1.722  0.4970  0.2563 -0.0257
 2547TIP3    H229057   5.439   3.513   1.834 -0.3021  0.6617  0.3802
 2548TIP3   OH229058   5.880   0.683  10.465 -0.1802 -0.3435 -0.6937
 2548TIP3    H129059   5.814   0.749  10.487 -0.3491 -1.0612  1.1200
 2548TIP3    H229060   5.952   0.700  10.525  0.3295 -1.0072 -1.1062
 2549TIP3   OH229061   3.083   2.663  13.728  0.3580 -0.7639 -0.4266
 2549TIP3    H129062   3.065   2.574  13.696  0.0890 -1.2662  1.0416
 2549TIP3    H229063   3.033   2.669  13.809  0.0567  0.8881 -0.6956
 2550TIP3   OH229064   3.514   5.698  15.076 -0.2979  0.0539  0.0021
 2550TIP3    H129065   3.495   5.614  15.118  0.3298  0.7483  1.7474
 2550TIP3    H229066   3.438   5.753  15.095 -0.4366  0.0926 -0.6231
 2551TIP3   OH229067   3.012   5.358   1.705  0.1420  0.3332 -0.6073
 2551TIP3    H129068   2.946   5.318   1.649 -0.8049  0.9544  0.0456
 2551TIP3    H229069   3.083   5.294   1.707 -0.4095 -0.3277 -1.3477
 2552TIP3   OH229070   4.152   3.836  17.122  0.2527 -0.0086  0.2162
 2552TIP3    H129071   4.204   3.836  17.202  1.9882 -1.3034 -0.8430
 2552TIP3    H229072   4.174   3.918  17.078  0.6703 -0.1007  0.2460
 2553TIP3   OH229073   2.960   0.928  14.079  0.3915 -0.0045  0.3745
 2553TIP3    H129074   2.887   0.868  14.094  1.4949 -1.2769  0.8297
 2553TIP3    H229075   2.949   0.955  13.987 -0.5521 -0.2918  0.3874
 2554TIP3   OH229076   1.318   6.033   5.753 -0.0021 -0.2496 -0.7460
 2554TIP3    H129077   1.364   5.962   5.797 -0.3720 -0.4205 -0.6278
 2554TIP3    H229078   1.387   6.088   5.716  0.3367  0.0315  0.2521
 2555TIP3   OH229079   5.152   5.341  12.427 -0.2040 -0.4879 -0.5121
 2555TIP3    H129080   5.206   5.410  12.467  0.2720 -0.0617 -1.8476
 2555TIP3    H229081   5.068   5.347  12.473 -0.0922  0.8217 -0.4344
 2556TIP3   OH229082   5.528   0.148  16.922  0.4554 -0.1027 -0.2077
 2556TIP3    H129083   5.463   0.167  16.989  1.0968  0.4602  0.2630
 2556TIP3    H229084   5.612   0.174  16.961  0.9147 -0.3937 -0.9712
 2557TIP3   OH229085   1.655   4.016   1.064 -0.4545  0.0615 -0.0947
 2557TIP3    H129086   1.636   4.109   1.056 -1.0851 -0.1000 -0.5173
 2557TIP3    H229087   1.573   3.972   1.043 -0.4359 -0.5749  1.0766
 2558TIP3   OH229088   0.292   0.108  14.592  0.4180 -0.1295 -0.1533
 2558TIP3    H129089   0.332   0.086  14.676 -0.1091  0.2550  0.2042
 2558TIP3    H229090   0.361   0.152  14.543  0.2023  1.3244  0.7911
 2559TIP3   OH229091   5.891   1.809  14.871  0.5560  0.2248 -0.5959
 2559TIP3    H129092   5.807   1.800  14.916  1.4536  2.3520  1.7497
 2559TIP3    H229093   5.907   1.723  14.832 -2.0783 -0.6158 -0.0442
 2560TIP3   OH229094   1.500   2.636   4.984 -0.5603  0.9217 -0.1571
 2560TIP3    H129095   1.412   2.604   5.002 -0.8780  1.3694 -0.8826
 2560TIP3    H229096   1.497   2.729   5.004  0.4096  0.5215  2.1033
 2561TIP3   OH229097   1.807   0.283  12.063  0.5994 -0.4619  0.0847
 2561TIP3    H129098   1.820   0.198  12.105 -1.8857 -1.0895 -0.2301
 2561TIP3    H229099   1.808   0.265  11.969 -2.6411 -0.7833 -0.0199
 2562TIP3   OH229100   2.714   4.196   2.791  0.0041  0.5742  0.0659
 2562TIP3    H129101   2.732   4.219   2.700  2.1534  1.0269  0.5423
 2562TIP3    H229102   2.619   4.199   2.799 -0.2032  0.8915 -2.0589
 2563TIP3   OH229103   3.099   3.819  11.912 -0.3313 -0.0681  0.4363
 2563TIP3    H129104   3.033   3.840  11.846  0.7281 -0.4329 -0.7858
 2563TIP3    H229105   3.051   3.769  11.979 -1.0078 -1.7557 -1.2241
 2564TIP3   OH229106   5.486   2.309   4.686 -0.0057  0.0993  0.3384
 2564TIP3    H129107   5.532   2.275   4.762  0.6957 -1.3931 -0.7175
 2564TIP3    H229108   5.420   2.368   4.722  0.5105 -0.3507  2.0739
 2565TIP3   OH229109   0.828   3.389   5.017 -0.3249  0.2749 -0.0924
 2565TIP3    H129110   0.778   3.315   5.050 -0.3498  0.1374 -0.4359
 2565TIP3    H229111   0.785   3.412   4.934 -1.5837  1.9378  0.9361
 2566TIP3   OH229112   5.454   4.931  15.913  0.5048  0.0119  0.2935
 2566TIP3    H129113   5.514   4.889  15.974 -0.7178 -2.2017  0.0723
 2566TIP3    H229114   5.371   4.886  15.926 -0.5284  1.4417 -1.0055
 2567TIP3   OH229115   1.949   3.931   2.686  0.5210  0.0668 -0.4510
 2567TIP3    H129116   2.023   3.928   2.747  0.0869  1.0007  0.1417
 2567TIP3    H229117   1.896   4.005   2.715  0.0231  0.2166 -1.6601
 2568TIP3   OH229118   0.423   6.487  14.431  0.2086 -0.6204  0.4920
 2568TIP3    H129119   0.456   6.451  14.349  0.5748  1.3044 -0.2383
 2568TIP3    H229120   0.365   6.418  14.465 -1.4299 -0.7668 -2.3033
 2569TIP3   OH229121   1.550   6.079   0.399 -0.1405  0.8043 -0.0090
 2569TIP3    H129122   1.607   6.154   0.389 -0.1192  0.6563 -1.0990
 2569TIP3    H229123   1.593   6.009   0.350 -0.7232  0.4008  0.0416
 2570TIP3   OH229124   4.867   3.167   5.799 -0.1758 -0.4548  0.1616
 2570TIP3    H129125   4.937   3.203   5.854 -0.7346 -0.2174  0.7152
 2570TIP3    H229126   4.863   3.075   5.825  1.6883 -1.1547 -1.6987
 2571TIP3   OH229127   5.520   6.596  12.859  0.3912  0.5110 -0.1372
 2571TIP3    H129128   5.470   6.542  12.797  2.0857 -2.2881  0.7253
 2571TIP3    H229129   5.597   6.623  12.810 -0.1168  1.6595 -0.3469
 2572TIP3   OH229130   6.275   0.327  12.379  0.6669 -0.0631 -0.7828
 2572TIP3    H129131   6.215   0.362  12.445 -0.9526 -0.2425 -2.0745
 2572TIP3    H229132   6.288   0.236  12.403 -1.3047 -0.6061 -1.5921
 2573TIP3   OH229133   0.508   5.957   1.536  0.2958  0.2317  0.2042
 2573TIP3    H129134   0.516   5.953   1.632  0.2785  0.1807  0.2032
 2573TIP3    H229135   0.438   6.020   1.521  0.6461  0.6333  0.2155
 2574TIP3   OH229136   0.679   0.059   4.584  0.0056  0.2692 -0.0001
 2574TIP3    H129137   0.680  -0.027   4.627 -0.1799 -0.3088 -1.1248
 2574TIP3    H229138   0.618   0.049   4.511  0.0051  1.3514 -0.1619
 2575TIP3   OH229139   2.840   2.632  15.376  0.1631 -0.0697  0.3012
 2575TIP3    H129140   2.798   2.709  15.339  0.8055  0.6922  1.1176
 2575TIP3    H229141   2.821   2.562  15.313 -0.2308  0.7961 -0.5709
 2576TIP3   OH229142   5.811   5.349   2.676  0.1816  0.5744 -0.4083
 2576TIP3    H129143   5.722   5.375   2.699  0.6014  0.7640  1.1271
 2576TIP3    H229144   5.858   5.347   2.760  1.0337 -1.8021 -0.8646
 2577TIP3   OH229145   4.182   5.717  12.994  0.7492 -0.1852  0.0616
 2577TIP3    H129146   4.142   5.756  12.916  0.8262 -1.3337 -0.5660
 2577TIP3    H229147   4.122   5.739  13.065  0.6067  0.7568 -0.3293
 2578TIP3   OH229148   5.075   1.885   3.589  0.3184  0.1155 -0.2434
 2578TIP3    H129149   5.088   1.978   3.571 -0.4717  0.4008  0.5801
 2578TIP3    H229150   5.129   1.868   3.666  1.2160 -0.3511 -0.9562
 2579TIP3   OH229151   6.400   0.208   2.889  0.1011 -0.3423 -0.0456
 2579TIP3    H129152   6.347   0.287   2.902 -0.0267  0.0567 -2.4968
 2579TIP3    H229153   6.336   0.138   2.878 -0.1030  0.1936 -3.3463
 2580TIP3   OH229154   5.295   2.071  13.774  0.9513  0.3543 -0.3992
 2580TIP3    H129155   5.335   2.140  13.827  0.3548  0.8687 -0.6042
 2580TIP3    H229156   5.269   2.115  13.693  0.0158  0.0320 -0.2901
 2581TIP3   OH229157   0.730   2.708   2.636  0.0201 -0.1587 -0.0065
 2581TIP3    H129158   0.730   2.648   2.561  0.5081 -0.6006  0.3405
 2581TIP3    H229159   0.655   2.765   2.621  0.7603  0.4907 -1.4160
 2582TIP3   OH229160   1.567   2.141   3.358  0.4245  0.2715  0.3315
 2582TIP3    H129161   1.532   2.230   3.354  0.1349  0.1238 -2.2561
 2582TIP3    H229162   1.661   2.152   3.342  0.1312  0.0504 -1.8405
 2583TIP3   OH229163   0.088   4.685   3.302  0.1557 -0.0559  0.3746
 2583TIP3    H129164   0.114   4.768   3.341  0.1389  0.3254 -0.4132
 2583TIP3    H229165   0.149   4.621   3.338  0.1767  0.2972  0.9735
 2584TIP3   OH229166   5.416   5.508   4.999  0.6616 -0.0543 -0.3601
 2584TIP3    H129167   5.413   5.420   4.960  1.4866 -0.6564  0.8469
 2584TIP3    H229168   5.494   5.506   5.055 -0.5794  0.6373  1.5093
 2585TIP3   OH229169   2.286   5.069  14.604 -0.2292  0.0608  0.1889
 2585TIP3    H129170   2.262   5.122  14.681 -1.5346 -2.7257  1.8357
 2585TIP3    H229171   2.359   5.015  14.634  0.5216  0.2699 -1.1830
 2586TIP3   OH229172   5.575   6.528  11.538  0.6553  0.1128  0.0795
 2586TIP3    H129173   5.531   6.455  11.582  1.6911 -1.8230 -1.8418
 2586TIP3    H229174   5.561   6.603  11.595 -2.8344 -0.9303  0.8191
 2587TIP3   OH229175   4.413   3.276  16.905 -0.1462  0.3661  0.7588
 2587TIP3    H129176   4.356   3.204  16.931  0.3017 -0.3704 -0.2047
 2587TIP3    H229177   4.431   3.323  16.986 -2.3164  0.7908  1.0435
 2588TIP3   OH229178   0.536   5.110  12.465  0.3054  0.1771 -0.6213
 2588TIP3    H129179   0.569   5.140  12.550 -2.0605 -0.2516  0.5342
 2588TIP3    H229180   0.593   5.036  12.442  0.6460 -0.0663  0.8978
 2589TIP3   OH229181   0.145   1.894   4.672 -0.8391 -0.2946  0.5140
 2589TIP3    H129182   0.158   1.898   4.767  0.0157 -0.2986  0.4060
 2589TIP3    H229183   0.102   1.976   4.650 -1.3827 -0.4549  0.9513
 2590TIP3   OH229184   4.970   0.638   5.339 -0.4787  0.2255  0.4771
 2590TIP3    H129185   4.934   0.718   5.300  0.9720  0.3534 -0.7216
 2590TIP3    H229186   5.037   0.670   5.400 -0.8962 -0.0460  1.0778
 2591TIP3   OH229187   4.766   5.859   3.778 -0.5431  0.5008  0.3989
 2591TIP3    H129188   4.781   5.917   3.853 -0.9829  0.7213  0.3218
 2591TIP3    H229189   4.681   5.886   3.745  0.0150  0.9654 -0.6906
 2592TIP3   OH229190   3.500   2.567  16.252 -0.5925 -0.2234  0.4906
 2592TIP3    H129191   3.512   2.584  16.345  2.1807  1.1264  0.0052
 2592TIP3    H229192   3.410   2.594  16.234 -0.3935  1.9794  2.3155
 2593TIP3   OH229193   4.174   2.437  16.817  0.7565  0.0918 -0.2263
 2593TIP3    H129194   4.167   2.491  16.738 -0.9071  0.3447  0.0652
 2593TIP3    H229195   4.104   2.372  16.808 -1.3681  1.8174  2.2625
 2594TIP3   OH229196   0.899   6.776   3.875  0.1768  0.7195  0.2925
 2594TIP3    H129197   0.961   6.771   3.949  0.2604  0.8211  0.2293
 2594TIP3    H229198   0.813   6.772   3.917  0.2211  0.9861  0.4137
 2595TIP3   OH229199   2.782   5.323  14.877  0.1673  0.2937  0.5766
 2595TIP3    H129200   2.790   5.250  14.938  0.7108  0.0734  0.2453
 2595TIP3    H229201   2.696   5.361  14.896 -0.7239 -1.2627 -0.1676
 2596TIP3   OH229202   5.226   3.455   5.323 -0.1318 -0.4910  0.2937
 2596TIP3    H129203   5.305   3.493   5.362  0.3427 -0.7958 -0.3517
 2596TIP3    H229204   5.154   3.489   5.376  0.3218  0.8051  0.1181
 2597TIP3   OH229205   4.402   0.614   1.508 -0.4616 -0.0092  0.1524
 2597TIP3    H129206   4.371   0.700   1.480  0.3242 -0.2425 -1.5665
 2597TIP3    H229207   4.352   0.552   1.456  1.2528 -0.4489 -1.0891
 2598TIP3   OH229208   3.855   4.592   0.800 -0.4948 -0.1223 -0.4084
 2598TIP3    H129209   3.898   4.666   0.757  2.3334 -1.2826  0.2238
 2598TIP3    H229210   3.842   4.527   0.730  0.5447 -0.4981 -0.2614
 2599TIP3   OH229211   1.744   5.946  14.793  0.2502 -0.8511  0.0528
 2599TIP3    H129212   1.740   5.953  14.698 -1.0373  1.3945  0.2069
 2599TIP3    H229213   1.751   6.037  14.824 -0.5213 -1.4365  2.1290
 2600TIP3   OH229214   5.496   1.275   5.716 -0.2518 -0.2934  0.0682
 2600TIP3    H129215   5.414   1.295   5.761  1.1579 -0.0644  2.7001
 2600TIP3    H229216   5.528   1.195   5.759  0.8153 -0.5264 -1.0864
 2601TIP3   OH229217   6.766   3.008  16.146 -0.1970  0.3730 -0.4231
 2601TIP3    H129218   6.775   3.101  16.124 -0.9381  0.2003 -1.5433
 2601TIP3    H229219   6.743   3.008  16.239  1.0284  1.2392 -0.0973
 2602TIP3   OH229220   4.381   2.560  14.423 -0.1344 -0.5742  0.2204
 2602TIP3    H129221   4.454   2.513  14.463 -1.0788 -2.8679 -0.5368
 2602TIP3    H229222   4.422   2.623  14.364  1.2726 -2.0077 -0.4047
 2603TIP3   OH229223   4.637   3.799   3.930  0.3484 -0.0147 -0.3004
 2603TIP3    H129224   4.654   3.885   3.891  1.5153 -0.6895 -1.3536
 2603TIP3    H229225   4.546   3.780   3.907  0.6965  0.0742 -1.8546
 2604TIP3   OH229226   4.877   3.478   4.225 -0.1536  0.0198 -0.5464
 2604TIP3    H129227   4.842   3.420   4.157  0.5575  0.5676 -1.4084
 2604TIP3    H229228   4.801   3.508   4.273 -1.0095  1.7654 -2.8186
 2605TIP3   OH229229   0.841   5.078   3.622  0.1937  0.5191 -0.4697
 2605TIP3    H129230   0.910   5.043   3.566 -0.0044  1.2440 -1.1923
 2605TIP3    H229231   0.881   5.087   3.708  0.7773  0.2482 -0.7113
 2606TIP3   OH229232   2.155   5.426  16.551 -0.0339  0.7455  0.0324
 2606TIP3    H129233   2.139   5.494  16.485 -2.1695  0.8968  0.6469
 2606TIP3    H229234   2.098   5.449  16.624  0.5358 -0.7343  0.9922
 2607TIP3   OH229235   2.101   2.798  11.823 -0.0915  0.4500 -0.2010
 2607TIP3    H129236   2.127   2.754  11.742  1.2283  1.6332 -0.4696
 2607TIP3    H229237   2.069   2.883  11.794  0.2651  0.8312  0.5015
 2608TIP3   OH229238   1.843   3.045   5.450  0.1708  0.7081  0.3798
 2608TIP3    H129239   1.904   2.991   5.399 -1.5706  0.1948 -1.3116
 2608TIP3    H229240   1.843   3.130   5.406 -0.0408  0.8294  0.6115
 2609TIP3   OH229241   3.122   3.844   3.315  0.2025 -0.4560 -1.0924
 2609TIP3    H129242   3.090   3.914   3.258 -1.9756 -0.8317 -0.4359
 2609TIP3    H229243   3.168   3.784   3.256  0.7843  0.7533 -1.9032
 2610TIP3   OH229244   5.680   4.230  15.648 -0.1094  0.7324  0.5178
 2610TIP3    H129245   5.640   4.290  15.712 -1.0470 -0.0366  0.6707
 2610TIP3    H229246   5.725   4.165  15.702 -0.6631  0.2440  0.4003
 2611TIP3   OH229247   2.206   3.192   3.037 -0.6237  0.4645  0.0147
 2611TIP3    H129248   2.119   3.171   3.004 -1.6987 -1.8016  3.7211
 2611TIP3    H229249   2.202   3.285   3.057 -1.6917  0.6818 -1.0457
 2612TIP3   OH229250   0.029   4.797   5.094 -0.3419 -0.0218 -0.2286
 2612TIP3    H129251   0.052   4.802   5.186 -0.2096  1.8601 -0.3173
 2612TIP3    H229252   0.078   4.722   5.060  2.0529  1.0678  0.5997
 2613TIP3   OH229253   4.298   6.326  11.276 -0.6310  0.6598  0.3013
 2613TIP3    H129254   4.269   6.304  11.365  2.9508 -1.8976  1.0826
 2613TIP3    H229255   4.319   6.241  11.236  0.0975  1.8983 -2.1593
 2614TIP3   OH229256   5.121   2.814  16.018 -0.2397 -0.3888  0.3091
 2614TIP3    H129257   5.157   2.819  15.929 -0.6927 -0.2580  0.1324
 2614TIP3    H229258   5.049   2.752  16.011  0.1034 -0.8397  0.7183
 2615TIP3   OH229259   1.466   4.038  12.819  0.7339  0.0896  0.0779
 2615TIP3    H129260   1.405   4.106  12.847 -0.9241 -0.8377 -1.1209
 2615TIP3    H229261   1.505   4.006  12.900 -0.0802  0.9688  0.8381
 2616TIP3   OH229262   4.114   1.579  14.915 -0.2389  0.8777  0.1811
 2616TIP3    H129263   4.151   1.651  14.966  2.4093 -0.4447  0.3404
 2616TIP3    H229264   4.092   1.512  14.980  2.0682 -0.3604 -0.2075
 2617TIP3   OH229265   4.807   5.857  12.142  0.8005 -0.0593  0.1318
 2617TIP3    H129266   4.890   5.841  12.097  0.4485 -1.7066  0.0357
 2617TIP3    H229267   4.812   5.949  12.167  1.7405  0.4623 -1.7479
 2618TIP3   OH229268   1.053   3.157   0.725  0.3615 -0.4143  0.6836
 2618TIP3    H129269   1.044   3.097   0.799  1.7666 -1.4673  0.0409
 2618TIP3    H229270   1.133   3.129   0.681 -0.8878 -0.4172 -1.7709
 2619TIP3   OH229271   3.970   1.658  14.146 -0.4086 -0.4479 -0.1208
 2619TIP3    H129272   4.060   1.628  14.156 -0.3255 -0.1719 -0.0322
 2619TIP3    H229273   3.955   1.715  14.221 -0.9365 -1.1571  0.3348
 2620TIP3   OH229274   1.425   5.244  12.110 -0.0635  0.4907 -0.6068
 2620TIP3    H129275   1.484   5.169  12.102  1.2433  1.4683 -0.5176
 2620TIP3    H229276   1.416   5.258  12.204 -0.1585  0.5707 -0.6272
 2621TIP3   OH229277   1.749   0.177   3.457  0.4047 -0.2505 -0.5677
 2621TIP3    H129278   1.743   0.084   3.478  0.8710 -0.1837 -0.1123
 2621TIP3    H229279   1.687   0.219   3.517  1.6339 -0.0747  0.6426
 2622TIP3   OH229280   1.702   0.880  15.513  0.2233  0.3686  0.1761
 2622TIP3    H129281   1.758   0.953  15.487  1.1711 -0.6632 -0.7166
 2622TIP3    H229282   1.760   0.819  15.558  0.3065 -1.6316 -2.4585
 2623TIP3   OH229283   6.271   0.995  13.196  0.5531  0.3319 -0.5360
 2623TIP3    H129284   6.312   0.911  13.218  0.8579  1.0887  2.1175
 2623TIP3    H229285   6.274   0.999  13.101 -2.1485 -3.9886 -1.0907
 2624TIP3   OH229286   4.340   0.708   0.408 -0.0243 -0.1861 -0.6263
 2624TIP3    H129287   4.246   0.694   0.410  0.0112 -0.3717 -0.2657
 2624TIP3    H229288   4.365   0.692   0.317 -0.2515 -0.7033 -0.5979
 2625TIP3   OH229289   4.360   6.337  15.809  0.0146 -0.5332 -0.0276
 2625TIP3    H129290   4.453   6.358  15.801 -0.0679 -0.6775 -1.6309
 2625TIP3    H229291   4.356   6.269  15.876  0.9103  0.3818  0.9887
 2626TIP3   OH229292   5.831   4.417  11.615  0.3241 -0.4960  0.4421
 2626TIP3    H129293   5.901   4.359  11.584  1.1088  0.1716  0.9401
 2626TIP3    H229294   5.856   4.504  11.585 -0.3236 -0.2478  0.5919
 2627TIP3   OH229295   5.332   2.417   1.874 -0.0810  0.4354  0.5197
 2627TIP3    H129296   5.382   2.341   1.843 -0.5492  0.0560  0.7007
 2627TIP3    H229297   5.387   2.456   1.942 -1.1174 -1.4472  2.5562
 2628TIP3   OH229298   5.501   4.899   3.350  0.4444 -0.0731  0.3765
 2628TIP3    H129299   5.456   4.838   3.292 -0.8883  2.3311 -1.3259
 2628TIP3    H229300   5.443   4.907   3.426  1.7053 -2.4672  1.7049
 2629TIP3   OH229301   0.792   2.569  16.674  0.3128 -0.1815  0.1843
 2629TIP3    H129302   0.754   2.577  16.762  1.1208 -0.8226  0.6142
 2629TIP3    H229303   0.834   2.482  16.674  1.4566  0.3415 -0.3722
 2630TIP3   OH229304   1.372   6.124   1.363  0.4090 -0.2892 -0.5197
 2630TIP3    H129305   1.354   6.195   1.425  0.1053 -0.3845 -0.4974
 2630TIP3    H229306   1.346   6.045   1.409 -0.7876 -0.2758 -1.1365
 2631TIP3   OH229307   6.525   0.026   0.637  0.2734 -1.0010  0.7176
 2631TIP3    H129308   6.542   0.094   0.703  1.7460 -0.4822 -0.1413
 2631TIP3    H229309   6.431   0.031   0.622  0.4339  1.4805  0.0670
 2632TIP3   OH229310   1.411   4.018  14.702  0.5374  0.4221  0.1110
 2632TIP3    H129311   1.476   4.089  14.703 -1.9727  2.8679  1.6144
 2632TIP3    H229312   1.421   3.975  14.787 -0.5007  1.5245  0.8102
 2633TIP3   OH229313   0.533   1.504   4.035  0.3022  0.2296  0.4942
 2633TIP3    H129314   0.580   1.437   3.984  0.9211  0.7874  0.3199
 2633TIP3    H229315   0.440   1.483   4.021  0.4795 -1.2286  1.3032
 2634TIP3   OH229316   2.992   6.015  15.051  0.1572  0.5753 -0.2743
 2634TIP3    H129317   3.059   5.954  15.022  1.2026  1.8593 -0.6235
 2634TIP3    H229318   3.017   6.038  15.140 -0.6478 -0.0516  0.1268
 2635TIP3   OH229319   1.940   0.715  16.062 -0.0044 -0.4368 -0.5411
 2635TIP3    H129320   1.959   0.766  15.984 -0.8985  0.3726 -0.2585
 2635TIP3    H229321   1.845   0.699  16.057 -0.2014  0.2032  0.6897
 2636TIP3   OH229322   1.470   5.384   4.162 -0.6662 -0.0914 -0.7648
 2636TIP3    H129323   1.417   5.305   4.155 -0.7660 -0.0851 -0.0891
 2636TIP3    H229324   1.482   5.398   4.256  0.7353 -0.2237 -0.9028
 2637TIP3   OH229325   5.403   2.946  11.413 -0.1208 -0.4580 -0.4023
 2637TIP3    H129326   5.431   3.024  11.461  1.3990 -0.8859 -0.5267
 2637TIP3    H229327   5.401   2.877  11.479 -2.0443 -0.2229 -0.1735
 2638TIP3   OH229328   0.567   5.538   5.488 -0.0676  0.2352  0.1658
 2638TIP3    H129329   0.632   5.500   5.429  0.2051 -0.8654  1.1230
 2638TIP3    H229330   0.616   5.559   5.567 -1.0308 -1.7778  1.3796
 2639TIP3   OH229331   5.874   0.653   4.531  0.2217 -0.0169 -0.3349
 2639TIP3    H129332   5.900   0.570   4.571 -1.8800 -1.0621 -0.9887
 2639TIP3    H229333   5.784   0.666   4.560  0.9227  2.8209  0.8922
 2640TIP3   OH229334   4.537   2.889   4.588 -0.0576 -0.3278  0.3771
 2640TIP3    H129335   4.505   2.961   4.642 -1.5210 -1.2116  0.7475
 2640TIP3    H229336   4.608   2.927   4.536 -0.5710  1.2781  0.8129
 2641TIP3   OH229337   4.986   6.103   0.501 -0.3009 -0.4779 -0.0593
 2641TIP3    H129338   5.020   6.025   0.456 -1.1476 -0.0986 -1.4451
 2641TIP3    H229339   4.945   6.068   0.580 -0.5467 -1.4489 -0.5835
 2642TIP3   OH229340   5.354   1.015   3.722 -0.1097 -0.4166  0.5141
 2642TIP3    H129341   5.368   0.941   3.781 -0.1974  0.3170  1.4696
 2642TIP3    H229342   5.259   1.016   3.707 -0.2062 -0.0297  1.1289
 2643TIP3   OH229343   1.216   1.407   4.966  0.2805 -0.3998 -0.2280
 2643TIP3    H129344   1.171   1.394   4.883 -0.8436  0.8400  0.1412
 2643TIP3    H229345   1.274   1.332   4.975 -1.3347 -1.7999 -0.9892
 2644TIP3   OH229346   0.663   4.293  15.561  0.2138 -0.5661  0.0021
 2644TIP3    H129347   0.751   4.263  15.537  0.4746 -0.3803  0.6934
 2644TIP3    H229348   0.612   4.213  15.570  0.4496 -0.7028  0.1259
 2645TIP3   OH229349   0.613   6.490   5.362  0.3360 -0.3408 -0.8088
 2645TIP3    H129350   0.602   6.576   5.321 -0.4651  0.0380  0.1722
 2645TIP3    H229351   0.562   6.431   5.307 -0.4607  0.1069 -0.5674
 2646TIP3   OH229352   6.094   1.008   5.769  0.3261 -0.3197 -0.6247
 2646TIP3    H129353   6.095   0.957   5.687  0.6228  0.6837 -1.2585
 2646TIP3    H229354   6.044   1.086   5.747  0.3850 -0.0543  0.1754
 2647TIP3   OH229355   4.181   5.235  13.389  0.0754 -0.0537 -0.5980
 2647TIP3    H129356   4.191   5.142  13.365  1.2991 -0.1524  0.2151
 2647TIP3    H229357   4.221   5.242  13.476  0.3054  1.3192 -0.7946
 2648TIP3   OH229358   4.332   4.099  12.142 -0.0223 -0.0703 -0.1386
 2648TIP3    H129359   4.371   4.164  12.085  0.6701  0.2498  0.6770
 2648TIP3    H229360   4.239   4.122  12.144  0.1222  0.5551 -0.3056
 2649TIP3   OH229361   4.994   2.123  16.192 -0.2848  0.7064 -0.1430
 2649TIP3    H129362   4.968   2.109  16.283  0.4467  0.8678  0.0975
 2649TIP3    H229363   4.964   2.211  16.171  1.1211  1.3740  0.5273
 2650TIP3   OH229364   3.691   5.707  11.253  0.3343 -0.5659 -0.0178
 2650TIP3    H129365   3.749   5.768  11.299  0.3438  1.7115 -2.7507
 2650TIP3    H229366   3.614   5.760  11.230 -1.3583 -2.6118  0.5629
 2651TIP3   OH229367   5.635   2.072   4.586  0.2106 -0.3850 -0.1956
 2651TIP3    H129368   5.584   2.153   4.594  0.1481 -0.4477  0.0344
 2651TIP3    H229369   5.620   2.043   4.496  0.1319 -0.2082 -0.2395
 2652TIP3   OH229370   5.045   2.209   3.859 -0.2167  0.3061 -0.2070
 2652TIP3    H129371   5.095   2.276   3.812  0.5743 -0.1943 -0.0985
 2652TIP3    H229372   4.966   2.198   3.807  0.2520  0.3833 -0.9553
 2653TIP3   OH229373   1.607   2.395   1.684  0.1251  0.3132  0.0802
 2653TIP3    H129374   1.667   2.375   1.612 -0.5896  1.2787 -0.8367
 2653TIP3    H229375   1.558   2.314   1.698  0.6776 -0.0614 -0.1189
 2654TIP3   OH229376   3.953   4.795  14.653  0.1754 -0.7901  0.1398
 2654TIP3    H129377   4.014   4.834  14.590 -0.5968 -0.8662 -0.6770
 2654TIP3    H229378   3.987   4.821  14.739  0.4172  0.5962 -0.3449
 2655TIP3   OH229379   0.735   0.652  11.583 -0.2764 -0.2716  0.1110
 2655TIP3    H129380   0.788   0.573  11.575  0.0658 -0.1514  1.0245
 2655TIP3    H229381   0.655   0.624  11.628 -0.6034 -0.2862 -0.4737
 2656TIP3   OH229382   4.048   0.630   5.347  0.2153 -0.2991  0.1184
 2656TIP3    H129383   4.033   0.546   5.302  1.3951  0.0862 -1.0556
 2656TIP3    H229384   3.978   0.635   5.411 -0.9732 -1.3295 -1.0403
 2657TIP3   OH229385   3.871   4.745  11.101 -0.4322 -0.6967 -0.7268
 2657TIP3    H129386   3.832   4.682  11.161  2.1645 -1.8424 -0.0932
 2657TIP3    H229387   3.862   4.829  11.147 -1.0261 -1.1123 -0.0531
 2658TIP3   OH229388   1.692   2.455   5.057  0.0987  0.1522 -0.1240
 2658TIP3    H129389   1.630   2.413   5.116 -0.3389  1.2812  0.2483
 2658TIP3    H229390   1.644   2.530   5.021  1.3697  1.3658  0.5704
 2659TIP3   OH229391   3.511   2.639   0.393 -0.4746  0.0594 -0.3137
 2659TIP3    H129392   3.437   2.590   0.357 -0.8295  1.7052 -2.0116
 2659TIP3    H229393   3.538   2.696   0.321  2.2114 -0.1899  0.3840
 2660TIP3   OH229394   4.167   3.552   5.315 -0.2980  0.4243  0.0110
 2660TIP3    H129395   4.221   3.609   5.260 -0.2877  1.3446  0.9395
 2660TIP3    H229396   4.079   3.588   5.307 -0.2503  0.7233  0.7846
 2661TIP3   OH229397   0.423   4.566  16.329 -0.3865  0.3212 -0.0735
 2661TIP3    H129398   0.435   4.593  16.421  1.7574  0.1733 -0.2462
 2661TIP3    H229399   0.403   4.647  16.283  0.3734  0.7255  0.2758
 2662TIP3   OH229400   3.703   0.151   0.304  0.0353 -0.0930 -0.0023
 2662TIP3    H129401   3.738   0.192   0.225 -1.4920  0.3405 -0.4943
 2662TIP3    H229402   3.707   0.220   0.370  2.6274 -0.8663  0.7555
 2663TIP3   OH229403   0.418   0.300  17.032 -0.4335  0.5037  0.3927
 2663TIP3    H129404   0.442   0.239  16.962 -0.3266  2.6146 -1.5302
 2663TIP3    H229405   0.501   0.328  17.069 -0.3014  1.6154 -0.6930
 2664TIP3   OH229406   2.280   2.623  17.084 -0.7838  0.0823  0.1928
 2664TIP3    H129407   2.247   2.665  17.163  0.7320  0.7880  0.4808
 2664TIP3    H229408   2.369   2.655  17.076 -0.2758 -1.4872 -0.7362
 2665TIP3   OH229409   6.763   6.786   2.329  0.3041 -0.3816  0.2571
 2665TIP3    H129410   6.833   6.774   2.394 -1.0320  0.7538  2.0171
 2665TIP3    H229411   6.752   6.700   2.288  2.0643 -0.8066  0.6037
 2666TIP3   OH229412   2.366   1.539  10.797 -0.2900  0.6463  0.0763
 2666TIP3    H129413   2.290   1.592  10.773 -1.1104 -0.6076 -0.1856
 2666TIP3    H229414   2.379   1.481  10.723  1.1006  1.0050  0.0207
 2667TIP3   OH229415   3.960   1.978   0.393  0.2569  0.0789  0.1433
 2667TIP3    H129416   3.965   2.071   0.371  0.9364  0.3872  1.4569
 2667TIP3    H229417   3.943   1.934   0.310  0.4138  1.3367 -0.5771
 2668TIP3   OH229418   6.386   2.559  13.018  0.1451  0.2814  0.3406
 2668TIP3    H129419   6.318   2.622  12.996  0.2653  0.0927 -0.5890
 2668TIP3    H229420   6.413   2.583  13.107 -1.1460  0.3335  0.7306
 2669TIP3   OH229421   2.030   6.013  12.990 -0.1173 -0.2804  0.5319
 2669TIP3    H129422   2.010   6.022  12.896 -1.7768 -1.2347  0.7622
 2669TIP3    H229423   1.969   5.947  13.021  0.2105  0.2394  2.3682
 2670TIP3   OH229424   1.996   0.628   4.972  0.0991  0.2220  0.1190
 2670TIP3    H129425   1.953   0.568   5.033 -0.8489  0.0362 -0.6983
 2670TIP3    H229426   2.046   0.571   4.914 -0.7400  0.2007 -0.6094
 2671TIP3   OH229427   4.453   1.435  15.911  0.7539 -0.4753 -1.0688
 2671TIP3    H129428   4.422   1.380  15.982 -0.4839 -0.0988 -1.2919
 2671TIP3    H229429   4.549   1.428  15.914  0.8587  0.9255  1.7560
 2672TIP3   OH229430   1.178   0.787  15.743  0.2159  0.5864 -0.1698
 2672TIP3    H129431   1.118   0.829  15.804  0.4014 -0.3080  0.6578
 2672TIP3    H229432   1.223   0.859  15.700  0.0682  1.2416  0.7423
 2673TIP3   OH229433   4.430   3.935  12.416 -0.5314 -0.0294 -0.6965
 2673TIP3    H129434   4.406   3.998  12.349 -0.5269  1.4242  0.6102
 2673TIP3    H229435   4.437   3.987  12.497  1.1509 -1.4001  0.1126
 2674TIP3   OH229436   6.646   4.524  10.885 -0.0446 -0.0173 -0.4320
 2674TIP3    H129437   6.623   4.524  10.978  1.5136 -0.9550 -0.0035
 2674TIP3    H229438   6.645   4.431  10.860 -2.6230  0.3323 -1.9913
 2675TIP3   OH229439   6.387   1.438  17.047  0.3200 -0.5840 -0.6391
 2675TIP3    H129440   6.363   1.400  16.962 -2.5944  1.0353 -0.6396
 2675TIP3    H229441   6.304   1.457  17.090  1.6464  2.0730  1.0311
 2676TIP3   OH229442   4.121   3.258  12.898  0.8734 -0.1962  0.1617
 2676TIP3    H129443   4.143   3.213  12.979  1.2554 -0.1130  0.1097
 2676TIP3    H229444   4.029   3.280  12.906  0.8239 -0.4962  0.4244
 2677TIP3   OH229445   2.963   3.300  13.946  0.4606  0.0618 -0.3760
 2677TIP3    H129446   2.976   3.328  14.036  0.9558  0.0299 -0.4367
 2677TIP3    H229447   3.051   3.295  13.909  0.4192 -1.9618 -0.2662
 2678TIP3   OH229448   2.154   2.274   4.192 -0.3992 -0.1908 -0.1746
 2678TIP3    H129449   2.098   2.253   4.118 -0.0361 -2.2329  0.0709
 2678TIP3    H229450   2.111   2.234   4.268  0.9630 -1.1701  0.1309
 2679TIP3   OH229451   3.567   2.890  11.298  0.0240 -0.6791  0.0607
 2679TIP3    H129452   3.474   2.896  11.279 -0.7273 -3.8464  1.9709
 2679TIP3    H229453   3.600   2.825  11.237  0.7842 -0.2893  0.0405
 2680TIP3   OH229454   0.580   2.254  13.180  0.7968  0.3157 -0.0556
 2680TIP3    H129455   0.490   2.228  13.161  0.6670  1.8980 -1.9470
 2680TIP3    H229456   0.627   2.239  13.098  2.0421  0.3551  0.6374
 2681TIP3   OH229457   5.122   0.525   2.919 -0.3076 -0.0291 -0.6345
 2681TIP3    H129458   5.080   0.457   2.972  1.5400 -0.8968 -0.2168
 2681TIP3    H229459   5.113   0.493   2.829 -0.1150 -0.4718 -0.5039
 2682TIP3   OH229460   5.607   3.022   2.322 -0.2880  0.0795  0.2561
 2682TIP3    H129461   5.623   3.091   2.386  0.0717  0.1868  0.0514
 2682TIP3    H229462   5.692   3.006   2.282 -0.5386  0.1081 -0.2927
 2683TIP3   OH229463   3.876   1.162  15.647  0.1955  0.0646 -0.1220
 2683TIP3    H129464   3.867   1.206  15.731  0.4812 -0.2643  0.0835
 2683TIP3    H229465   3.956   1.198  15.609  0.0243  0.2709 -0.2893
 2684TIP3   OH229466   0.757   4.496  16.443  0.5078 -0.0386 -0.3133
 2684TIP3    H129467   0.850   4.518  16.433  0.8526 -1.8591 -1.4767
 2684TIP3    H229468   0.727   4.473  16.355 -1.3062  1.2925 -0.1121
 2685TIP3   OH229469   5.589   4.790   4.120  0.4578 -0.0270  0.3106
 2685TIP3    H129470   5.500   4.800   4.086  0.5856  0.2818  0.0647
 2685TIP3    H229471   5.584   4.716   4.180  0.2461 -0.6431 -0.4515
 2686TIP3   OH229472   5.327   3.745   5.544  0.2564 -0.5538  0.2883
 2686TIP3    H129473   5.373   3.669   5.578 -2.1541 -2.7736 -1.0801
 2686TIP3    H229474   5.366   3.760   5.457  0.2705 -0.6868  0.2713
 2687TIP3   OH229475   2.458   3.723  12.494 -0.2128 -0.2525 -0.6320
 2687TIP3    H129476   2.421   3.687  12.413  1.1559 -0.1891 -1.3341
 2687TIP3    H229477   2.496   3.807  12.467  0.7761 -0.5044 -0.0688
 2688TIP3   OH229478   5.872   3.458  16.288  0.2184  0.3692 -0.5161
 2688TIP3    H129479   5.903   3.397  16.221  2.2087  0.9040 -0.1449
 2688TIP3    H229480   5.902   3.544  16.258  1.1629  0.6175  1.0167
 2689TIP3   OH229481   1.963   6.631   3.183  0.6048 -0.2426  0.2098
 2689TIP3    H129482   1.984   6.539   3.204  1.7612 -0.0168  0.0937
 2689TIP3    H229483   1.989   6.642   3.092  1.1608  0.3959  0.4377
 2690TIP3   OH229484   4.253   5.359  11.925  0.8798 -0.0577  0.0288
 2690TIP3    H129485   4.243   5.288  11.861 -1.3671 -1.9331  2.2937
 2690TIP3    H229486   4.174   5.412  11.916  0.9337  0.1479  0.7283
 2691TIP3   OH229487   2.176   0.342  11.157 -0.1734  0.3898 -0.0513
 2691TIP3    H129488   2.158   0.368  11.067  0.7625 -1.4239 -0.8187
 2691TIP3    H229489   2.269   0.322  11.158 -0.1804  0.3012  1.3169
 2692TIP3   OH229490   6.158   4.930   0.551 -0.5490  0.4041  0.6064
 2692TIP3    H129491   6.201   4.845   0.557  1.2539  1.1444 -0.9027
 2692TIP3    H229492   6.213   4.981   0.492 -1.1318  2.9071  2.0846
 2693TIP3   OH229493   0.501   5.849  12.318  0.1270 -1.6015 -0.0461
 2693TIP3    H129494   0.544   5.768  12.290  1.5078 -0.9774  0.1893
 2693TIP3    H229495   0.480   5.834  12.410 -1.1204 -2.2912 -0.4245
 2694TIP3   OH229496   2.569   6.384  15.261 -0.1160 -0.1828 -0.5189
 2694TIP3    H129497   2.576   6.469  15.217 -0.2522 -0.4100 -0.9737
 2694TIP3    H229498   2.504   6.336  15.211  1.2676 -1.2416 -1.3852
 2695TIP3   OH229499   1.569   6.466   5.331 -0.1426 -0.1118  0.0613
 2695TIP3    H129500   1.587   6.549   5.287  0.3012  1.4793  2.9974
 2695TIP3    H229501   1.489   6.481   5.381 -1.4199 -2.2976 -1.1469
 2696TIP3   OH229502   4.768   5.394  14.388  0.1633 -0.2883  0.1740
 2696TIP3    H129503   4.795   5.469  14.441 -0.6661  1.0912 -1.2620
 2696TIP3    H229504   4.677   5.377  14.413 -0.1873  0.2796 -0.6629
 2697TIP3   OH229505   5.954   5.981  16.307 -0.9072  0.0675 -0.1086
 2697TIP3    H129506   5.986   6.031  16.381 -1.2678  0.7665 -0.4187
 2697TIP3    H229507   5.891   5.919  16.345 -0.7559  0.1173  0.2233
 2698TIP3   OH229508   1.092   3.943  11.820 -0.1803 -0.1819  0.4760
 2698TIP3    H129509   1.001   3.972  11.810 -0.0400 -0.0336 -0.4908
 2698TIP3    H229510   1.139   4.021  11.851 -0.5127 -0.4721  1.7541
 2699TIP3   OH229511   4.701   2.051   3.450  0.1237 -0.1552 -0.6470
 2699TIP3    H129512   4.752   2.014   3.379  2.2164  1.8282 -0.2927
 2699TIP3    H229513   4.730   2.003   3.528  1.8630  1.2224 -0.3861
 2700TIP3   OH229514   4.491   0.870   4.004 -0.0318 -0.2219 -0.3690
 2700TIP3    H129515   4.564   0.906   4.055 -0.6443  0.2064  0.2216
 2700TIP3    H229516   4.496   0.915   3.920 -1.4124  2.1367  0.6943
 2701TIP3   OH229517   6.656   1.461  14.683 -0.4119 -0.1870  0.4323
 2701TIP3    H129518   6.713   1.486  14.610  0.7193  2.2288  2.0214
 2701TIP3    H229519   6.706   1.483  14.761 -1.2657 -3.4433  2.0325
 2702TIP3   OH229520   0.048   5.744   0.290 -0.1293  0.0873  0.2013
 2702TIP3    H129521  -0.033   5.779   0.328 -0.3929 -0.7760  0.4778
 2702TIP3    H229522   0.115   5.807   0.314 -0.6391  0.5664  0.3952
 2703TIP3   OH229523   5.969   1.692   4.286  0.1683  0.2064 -0.0715
 2703TIP3    H129524   6.053   1.647   4.291  0.8385  1.3972 -0.1264
 2703TIP3    H229525   5.934   1.668   4.200  0.7258  0.1481 -0.2890
 2704TIP3   OH229526   4.175   3.941  12.990  0.3775 -0.0040 -0.1188
 2704TIP3    H129527   4.220   3.930  13.073 -0.3267 -0.9869  0.1501
 2704TIP3    H229528   4.192   3.860  12.942 -2.0504 -0.9754  0.4907
 2705TIP3   OH229529   3.339   6.546  14.000  1.0248 -0.0766 -0.0737
 2705TIP3    H129530   3.324   6.641  14.005  0.0385 -0.2779  1.1326
 2705TIP3    H229531   3.409   6.529  14.063  0.0759 -0.3572  0.9264
 2706TIP3   OH229532   3.138   1.822   5.071 -0.0023 -0.4270 -0.2395
 2706TIP3    H129533   3.047   1.798   5.089 -0.7806  2.7996  0.7641
 2706TIP3    H229534   3.153   1.901   5.122  2.4435  0.8565 -2.6701
 2707TIP3   OH229535   3.551   3.876   0.641  0.0685 -0.4526  0.0277
 2707TIP3    H129536   3.539   3.964   0.605 -0.0691 -0.5795 -0.2377
 2707TIP3    H229537   3.495   3.874   0.718 -1.7423 -1.0698 -1.2472
 2708TIP3   OH229538   0.371   5.294  15.100  0.2948 -0.0504  0.5483
 2708TIP3    H129539   0.277   5.280  15.088  0.3931 -0.2310 -0.0352
 2708TIP3    H229540   0.413   5.223  15.052  0.7908  1.9230 -2.1471
 2709TIP3   OH229541   5.576   4.543   2.019  0.1293 -0.4813 -0.4214
 2709TIP3    H129542   5.660   4.501   2.033 -0.9861 -2.6984  0.1651
 2709TIP3    H229543   5.515   4.470   2.005 -1.7861  1.0105 -0.3126
 2710TIP3   OH229544   6.192   2.719  12.279  0.3894 -1.0712  0.9075
 2710TIP3    H129545   6.273   2.735  12.327 -0.8067  1.5738  2.3031
 2710TIP3    H229546   6.123   2.731  12.344 -1.2592  1.3807 -1.0896
 2711TIP3   OH229547   2.937   5.877   6.165 -0.4741 -0.0654 -0.0327
 2711TIP3    H129548   2.946   5.953   6.222  0.3233 -0.7189  0.7233
 2711TIP3    H229549   2.945   5.802   6.223  0.6363 -0.7501 -1.0419
 2712TIP3   OH229550   3.345   2.783   4.342 -0.4569  0.1295 -0.1045
 2712TIP3    H129551   3.265   2.810   4.388 -0.9706  0.3884 -1.1165
 2712TIP3    H229552   3.402   2.748   4.410 -0.6111  1.8303  0.9398
 2713TIP3   OH229553   6.677   4.025  12.832 -0.5504  0.2408 -0.2254
 2713TIP3    H129554   6.689   3.994  12.743 -0.8051  0.1370 -0.2245
 2713TIP3    H229555   6.716   3.957  12.887  1.9645  1.4571 -0.3206
 2714TIP3   OH229556   6.764   3.072   3.405  0.3727  0.3758  0.7818
 2714TIP3    H129557   6.722   3.133   3.464  0.2312  0.8896  0.1633
 2714TIP3    H229558   6.751   3.109   3.318  3.1657  1.2194  0.6257
 2715TIP3   OH229559   6.038   2.685  12.912  0.0917  0.1876 -0.4181
 2715TIP3    H129560   6.050   2.597  12.947 -0.0871 -0.4126 -1.7888
 2715TIP3    H229561   6.098   2.689  12.837 -0.5365  0.9136 -0.8952
 2716TIP3   OH229562   3.859   0.422   3.440 -0.0279  0.1872 -0.3911
 2716TIP3    H129563   3.836   0.510   3.471  1.2439  0.2131  0.5538
 2716TIP3    H229564   3.894   0.435   3.352 -0.3889  0.5507 -0.4837
 2717TIP3   OH229565   3.612   4.036   2.639  0.3791  0.5485  0.4391
 2717TIP3    H129566   3.631   4.052   2.547 -1.3222 -0.4998 -0.1336
 2717TIP3    H229567   3.672   4.094   2.686  2.2854  0.0840 -1.2686
 2718TIP3   OH229568   5.972   4.506   4.645 -0.3187  0.2525  0.9526
 2718TIP3    H129569   6.001   4.455   4.569 -1.3169 -0.8989  1.3121
 2718TIP3    H229570   6.052   4.523   4.694  0.0420 -1.0694  0.8704
 2719TIP3   OH229571   0.036   3.573  15.138 -0.2300 -0.0198 -0.4206
 2719TIP3    H129572  -0.040   3.587  15.194 -0.7647 -0.0455 -1.1286
 2719TIP3    H229573   0.090   3.509  15.184 -1.1617 -0.8152 -0.4154
 2720TIP3   OH229574   5.918   5.420   3.149  0.1894  0.2016  0.5831
 2720TIP3    H129575   5.906   5.506   3.189  2.6169  0.0104  1.9111
 2720TIP3    H229576   5.908   5.359   3.221 -0.8390 -0.6009 -0.2210
 2721TIP3   OH229577   2.788   6.453   4.671  0.1735 -0.3634 -0.1058
 2721TIP3    H129578   2.720   6.388   4.689 -1.4801  0.8804 -1.4674
 2721TIP3    H229579   2.766   6.527   4.727  0.4103  0.0437 -0.5439
 2722TIP3   OH229580   0.334   2.299  16.339 -0.7517  0.4150 -0.1183
 2722TIP3    H129581   0.308   2.391  16.340 -1.2779  0.3498 -2.5974
 2722TIP3    H229582   0.419   2.297  16.382 -1.0978  1.9015  0.7054
 2723TIP3   OH229583   2.205   2.016  10.412  0.1197 -0.0287 -0.0802
 2723TIP3    H129584   2.173   2.104  10.431  1.1876  0.4830 -0.5593
 2723TIP3    H229585   2.300   2.026  10.405  0.1626 -1.0163 -1.2097
 2724TIP3   OH229586   5.729   0.872  14.681 -0.0729  0.0992 -0.2133
 2724TIP3    H129587   5.724   0.796  14.624 -0.8174 -0.9032  1.1161
 2724TIP3    H229588   5.814   0.911  14.662  1.0501 -2.0125  0.1969
 2725TIP3   OH229589   3.381   3.781   0.209  0.0606  0.4974  0.4431
 2725TIP3    H129590   3.472   3.752   0.209  0.0174  0.1512 -1.8132
 2725TIP3    H229591   3.376   3.842   0.136 -1.6781 -0.1241 -0.0092
 2726TIP3   OH229592   1.320   2.393   3.132 -0.4421 -0.2452 -0.1033
 2726TIP3    H129593   1.404   2.406   3.176 -0.7633  2.1211 -0.0677
 2726TIP3    H229594   1.280   2.319   3.178  1.8859 -1.9150 -0.6034
 2727TIP3   OH229595   2.297   0.779  10.267  0.2670 -0.1132 -0.0428
 2727TIP3    H129596   2.238   0.852  10.287  2.0446  1.0932  1.1624
 2727TIP3    H229597   2.243   0.701  10.274 -1.6939  1.0521 -1.2847
 2728TIP3   OH229598   3.693   0.441   2.616  0.3004 -0.2095  0.5811
 2728TIP3    H129599   3.782   0.406   2.615  0.8794  0.9326 -2.9735
 2728TIP3    H229600   3.698   0.519   2.672  1.4177 -0.3982  0.7676
 2729TIP3   OH229601   5.430   2.149  13.279  0.7858 -0.2243  0.0274
 2729TIP3    H129602   5.462   2.075  13.330 -0.0415 -0.0367  0.8506
 2729TIP3    H229603   5.465   2.226  13.324  1.2962 -0.0930 -0.5798
 2730TIP3   OH229604   1.017   5.871  14.567 -0.1547 -0.2595 -0.3369
 2730TIP3    H129605   1.009   5.824  14.650  0.2319 -0.6140 -0.4964
 2730TIP3    H229606   1.017   5.963  14.592 -2.5120 -0.2594 -0.1554
 2731TIP3   OH229607   4.948   1.014   2.272  0.1574 -0.8874 -0.1611
 2731TIP3    H129608   4.873   1.020   2.213 -1.6289 -0.9386  2.0029
 2731TIP3    H229609   5.008   1.082   2.241 -2.4902  1.8815  0.2995
 2732TIP3   OH229610   1.042   6.585   5.096  0.3142  0.3715  0.1939
 2732TIP3    H129611   1.005   6.648   5.033  0.0474  0.4677  0.4415
 2732TIP3    H229612   0.978   6.583   5.168  1.5487  1.7758  1.4037
 2733TIP3   OH229613   4.752   4.713   0.356 -0.2697 -0.4588 -0.2796
 2733TIP3    H129614   4.835   4.759   0.368 -1.4309  1.5837  0.1948
 2733TIP3    H229615   4.696   4.775   0.310 -1.3365 -2.0698 -1.2558
 2734TIP3   OH229616   3.322   1.948   4.682  0.3329  0.5227  0.3585
 2734TIP3    H129617   3.405   1.973   4.642  0.1751  0.2705 -0.1423
 2734TIP3    H229618   3.343   1.929   4.773  1.5763 -3.1654 -0.5187
 2735TIP3   OH229619   2.778   1.477   0.764 -0.1451 -0.0754 -0.1250
 2735TIP3    H129620   2.816   1.441   0.845  1.1207 -0.0500 -0.6827
 2735TIP3    H229621   2.843   1.541   0.734 -1.4260  1.2250 -0.2335
 2736TIP3   OH229622   5.949   4.498   3.363 -0.2098 -0.1149 -0.2220
 2736TIP3    H129623   5.857   4.473   3.358 -0.0133 -0.6771 -1.3367
 2736TIP3    H229624   5.995   4.429   3.315  0.4303  2.0776 -3.0040
 2737TIP3   OH229625   1.260   0.709   5.254  0.0684 -0.1324  0.3037
 2737TIP3    H129626   1.254   0.627   5.303 -0.7537 -0.2198  0.0836
 2737TIP3    H229627   1.180   0.757   5.278  0.8199  0.8612  0.8815
 2738TIP3   OH229628   4.988   5.272   3.553 -0.0412  0.6497  0.0806
 2738TIP3    H129629   5.054   5.241   3.615 -0.6257 -1.3312 -0.2167
 2738TIP3    H229630   5.034   5.336   3.499  2.0071 -1.4677 -0.8414
 2739TIP3   OH229631   0.127   5.097   1.732 -0.6157 -0.3338  0.7536
 2739TIP3    H129632   0.051   5.156   1.730 -0.6116 -0.3313  0.6231
 2739TIP3    H229633   0.093   5.016   1.769 -0.7306 -0.3951  0.5206
 2740TIP3   OH229634   4.737   3.090   1.039  0.0025 -0.2884 -0.3664
 2740TIP3    H129635   4.751   3.035   0.962  1.9363 -0.7569  0.2538
 2740TIP3    H229636   4.690   3.166   1.007 -0.2479 -1.0143 -1.7791
 2741TIP3   OH229637   1.381   5.893   3.970 -0.2923 -0.1828  0.1009
 2741TIP3    H129638   1.369   5.903   3.875  1.8310  2.6163  0.0209
 2741TIP3    H229639   1.295   5.864   4.001 -0.7643 -2.3755 -2.7477
 2742TIP3   OH229640   4.171   5.148   3.753  0.3953 -0.3631 -0.3756
 2742TIP3    H129641   4.174   5.087   3.826 -0.2574  0.2826  0.2054
 2742TIP3    H229642   4.105   5.112   3.693  1.5196 -1.3328 -1.0744
 2743TIP3   OH229643   0.075   1.255  11.930  0.1910 -0.0552 -0.0305
 2743TIP3    H129644  -0.003   1.295  11.968 -0.2441  0.2579 -1.2341
 2743TIP3    H229645   0.094   1.181  11.988 -1.4943 -0.6527 -0.1886
 2744TIP3   OH229646   0.249   3.748   4.615  0.0186 -0.1006 -0.0425
 2744TIP3    H129647   0.335   3.790   4.624 -0.3135  0.5661  0.0927
 2744TIP3    H229648   0.188   3.812   4.651 -0.4905 -0.7560  0.2733
 2745TIP3   OH229649   1.745   4.173  15.051  0.1407  0.3340  0.4818
 2745TIP3    H129650   1.715   4.219  15.129 -0.5771  0.5158  0.1071
 2745TIP3    H229651   1.819   4.225  15.020 -0.1219  0.7530  0.5486
 2746TIP3   OH229652   4.145   3.743   2.583  0.2441 -0.0169  0.5661
 2746TIP3    H129653   4.107   3.694   2.656 -0.3407  0.0973  0.3462
 2746TIP3    H229654   4.159   3.678   2.514 -0.1511  0.0507  0.4201
 2747TIP3   OH229655   6.325   4.735   1.901 -0.1379  0.7140  0.1322
 2747TIP3    H129656   6.333   4.741   1.806 -0.6125 -2.3680 -0.1970
 2747TIP3    H229657   6.396   4.677   1.927 -2.4688 -1.9328  1.0508
 2748TIP3   OH229658   4.623   3.868  14.300  0.1252  0.3488 -0.3228
 2748TIP3    H129659   4.616   3.961  14.321  0.1053  0.1968  0.3507
 2748TIP3    H229660   4.679   3.832  14.368 -0.4581 -0.2723 -0.1620
 2749TIP3   OH229661   1.046   0.225  13.028 -0.1727  0.0451  0.4281
 2749TIP3    H129662   1.126   0.177  13.049  0.0413 -1.1003 -2.5627
 2749TIP3    H229663   0.978   0.158  13.022 -0.6086  0.5476 -0.4181
 2750TIP3   OH229664   3.909   1.088   4.872 -0.4889 -0.6498 -0.0707
 2750TIP3    H129665   3.869   1.160   4.823 -1.0742 -0.3538  0.8247
 2750TIP3    H229666   3.882   1.009   4.825 -0.3871 -0.3332 -0.6731
 2751TIP3   OH229667   4.588   3.839  15.288 -0.0560  0.7580 -0.4919
 2751TIP3    H129668   4.550   3.756  15.260  0.1650  0.6831 -0.5687
 2751TIP3    H229669   4.596   3.831  15.383  1.3607  0.0986 -0.6400
 2752TIP3   OH229670   5.650   6.413   4.021  0.1110 -0.2864 -0.3328
 2752TIP3    H129671   5.734   6.391   4.063 -0.5242  2.0815  2.5155
 2752TIP3    H229672   5.675   6.464   3.944  1.3125 -0.4486 -0.0757
 2753TIP3   OH229673   1.961   4.704  13.126  0.5599  0.3756 -0.0759
 2753TIP3    H129674   1.901   4.767  13.086 -1.0611  0.7399  2.6732
 2753TIP3    H229675   2.025   4.757  13.173  0.4177 -0.0105  0.5669
 2754TIP3   OH229676   1.333   6.030   5.183  0.4730  0.2917  0.3183
 2754TIP3    H129677   1.332   6.075   5.099  1.1126  0.4800  0.4095
 2754TIP3    H229678   1.376   6.091   5.243 -1.2895  0.7905  1.1467
 2755TIP3   OH229679   5.215   0.954  11.602  0.0182 -0.1187  0.3852
 2755TIP3    H129680   5.169   0.881  11.560  0.0993  0.5519 -0.9322
 2755TIP3    H229681   5.307   0.930  11.595  0.1968  1.0082 -1.9441
 2756TIP3   OH229682   6.274   2.899  15.390  0.3602  0.3366 -0.8026
 2756TIP3    H129683   6.308   2.810  15.394  0.1671  0.3056  1.6271
 2756TIP3    H229684   6.181   2.890  15.411  0.2587  1.0666 -0.9262
 2757TIP3   OH229685   0.759   2.436   1.612  0.4558  0.0764 -0.0326
 2757TIP3    H129686   0.800   2.522   1.609  0.2526  0.2320  1.1912
 2757TIP3    H229687   0.666   2.452   1.594  0.5195  0.0251 -0.4224
 2758TIP3   OH229688   0.828   2.783  10.932  0.4626  0.0592 -0.8053
 2758TIP3    H129689   0.881   2.862  10.934  0.0001  0.3657  0.1407
 2758TIP3    H229690   0.830   2.754  10.841  3.0386 -0.4902 -0.6360
 2759TIP3   OH229691   0.370   5.407  14.261 -0.7746  0.0294  0.2135
 2759TIP3    H129692   0.414   5.491  14.251 -0.8099  0.1626  1.0492
 2759TIP3    H229693   0.418   5.347  14.204 -2.7732  1.2948 -3.0559
 2760TIP3   OH229694   2.625   6.107  14.059  0.0787  0.1810  0.0544
 2760TIP3    H129695   2.678   6.074  14.131  0.0957  0.4245  0.1566
 2760TIP3    H229696   2.679   6.175  14.019  0.7290 -1.0105 -1.1749
 2761TIP3   OH229697   4.211   6.693  16.605  0.0399 -0.2280  0.0151
 2761TIP3    H129698   4.130   6.651  16.580 -0.0014  1.1230 -2.4801
 2761TIP3    H229699   4.232   6.657  16.691 -0.8793 -3.9022 -1.1177
 2762TIP3   OH229700   3.397   0.582   4.281 -0.3525 -0.1029  0.4035
 2762TIP3    H129701   3.336   0.531   4.228 -1.2455  0.5275  0.8033
 2762TIP3    H229702   3.365   0.672   4.275  0.8005  0.3221  0.2602
 2763TIP3   OH229703   2.406   1.437   5.652  0.5858 -0.2345 -0.0483
 2763TIP3    H129704   2.456   1.510   5.686 -0.7079 -0.0206  1.5409
 2763TIP3    H229705   2.324   1.476   5.622 -0.5838 -1.0872  1.8285
 2764TIP3   OH229706   0.988   4.484  11.123  0.3749  0.4732  0.6863
 2764TIP3    H129707   0.917   4.420  11.130 -0.8157  1.5622 -0.7258
 2764TIP3    H229708   1.060   4.436  11.084 -0.9077  0.2065 -1.5132
 2765TIP3   OH229709   4.617   0.035  12.640  0.7197 -0.2588 -0.7221
 2765TIP3    H129710   4.568   0.109  12.675  0.2431 -0.7710 -0.2777
 2765TIP3    H229711   4.701   0.071  12.614  0.4462  0.4583 -0.6270
 2766TIP3   OH229712   2.413   0.389   3.899 -0.3380  0.2558 -0.1113
 2766TIP3    H129713   2.441   0.298   3.901  1.4179  0.7493 -0.3728
 2766TIP3    H229714   2.337   0.393   3.956  1.4150 -0.8019  2.4474
 2767TIP3   OH229715   3.892   5.815   2.363  0.7907  0.3657  0.6275
 2767TIP3    H129716   3.895   5.854   2.276 -0.7392 -0.7038  0.0458
 2767TIP3    H229717   3.901   5.890   2.423  0.0528  1.3627 -0.4468
 2768TIP3   OH229718   2.939   0.516   2.451 -0.3782  0.2320  0.5428
 2768TIP3    H129719   2.934   0.466   2.533 -1.9990 -1.0368 -0.2673
 2768TIP3    H229720   2.869   0.480   2.397 -0.3946  2.1516 -0.8132
 2769TIP3   OH229721   4.206   5.741   2.134 -0.3581 -0.4328 -0.6432
 2769TIP3    H129722   4.136   5.682   2.159  1.5916 -2.7736 -0.2923
 2769TIP3    H229723   4.224   5.719   2.042  0.1572 -0.1682 -0.6125
 2770TIP3   OH229724   3.690   1.663  13.596  0.1154  0.1779 -0.1916
 2770TIP3    H129725   3.687   1.594  13.663 -0.5169  1.8731  1.6249
 2770TIP3    H229726   3.616   1.720  13.617  1.0758  1.8452 -1.1269
 2771TIP3   OH229727   5.411   2.015  10.817 -1.1485  0.3424 -0.3029
 2771TIP3    H129728   5.392   1.929  10.854  1.1262 -0.6713 -1.2597
 2771TIP3    H229729   5.326   2.051  10.793 -2.2011 -1.3949  0.6545
 2772TIP3   OH229730   5.023   0.878   5.599  0.2486 -0.0206 -0.5613
 2772TIP3    H129731   5.077   0.841   5.669 -1.7408  2.9983  2.9494
 2772TIP3    H229732   5.086   0.912   5.535  2.1573 -2.9321 -0.4388
 2773TIP3   OH229733   3.208   6.369   4.914 -0.3691 -0.1739 -0.3301
 2773TIP3    H129734   3.244   6.428   4.980  2.0944 -0.1668 -1.5785
 2773TIP3    H229735   3.143   6.422   4.867 -0.9815  0.3018  1.0025
 2774TIP3   OH229736   1.608   6.519   1.412  0.0536  0.1250  0.2697
 2774TIP3    H129737   1.603   6.588   1.346  3.4687 -2.6261 -3.3383
 2774TIP3    H229738   1.689   6.538   1.460 -0.9391  0.5311  1.8725
 2775TIP3   OH229739   6.432   2.394  15.430  0.6430  0.0176 -0.0533
 2775TIP3    H129740   6.394   2.383  15.343  1.6789 -1.5506 -0.3491
 2775TIP3    H229741   6.427   2.308  15.470  1.8497  0.2850  0.7321
 2776TIP3   OH229742   5.973   0.012  11.754 -0.2461  0.4586  0.2031
 2776TIP3    H129743   5.917   0.015  11.677 -0.1754  1.8310  0.1876
 2776TIP3    H229744   6.039   0.080  11.739 -1.5855  2.4436  2.4679
 2777TIP3   OH229745   5.420   2.641  12.009  0.0175  0.4369  0.2264
 2777TIP3    H129746   5.452   2.690  11.933 -0.0724  0.9547  0.5160
 2777TIP3    H229747   5.374   2.566  11.971  2.1293 -0.7274 -0.2014
 2778TIP3   OH229748   0.713   5.787  16.455 -0.2814  0.1144  0.4021
 2778TIP3    H129749   0.737   5.722  16.521 -0.4783  0.2082  0.5670
 2778TIP3    H229750   0.784   5.852  16.459 -0.2217  0.0480  0.4215
 2779TIP3   OH229751   2.724   2.745   5.317  0.2001  0.0732  0.2197
 2779TIP3    H129752   2.724   2.650   5.307  1.4707  0.0584  0.1730
 2779TIP3    H229753   2.633   2.771   5.304 -0.2621 -1.1927  0.7734
 2780TIP3   OH229754   4.243   2.756   4.185 -0.1525 -0.1798  0.2600
 2780TIP3    H129755   4.218   2.750   4.093 -1.5814 -2.9000  0.7023
 2780TIP3    H229756   4.290   2.674   4.203  1.7541  1.1083  1.5580
 2781TIP3   OH229757   5.726   1.571   0.190  0.1762 -0.3461 -0.0179
 2781TIP3    H129758   5.692   1.651   0.150  0.8972  0.9215  1.7644
 2781TIP3    H229759   5.654   1.540   0.245  0.2924 -0.2315  0.2037
 2782TIP3   OH229760   4.816   0.365   4.256  0.6182 -0.0814 -0.1183
 2782TIP3    H129761   4.788   0.320   4.177 -0.8104 -0.4567  0.5678
 2782TIP3    H229762   4.771   0.449   4.254  1.4172  0.3599 -0.2148
 2783TIP3   OH229763   1.186   0.728   3.279 -0.7381  0.1702 -0.3694
 2783TIP3    H129764   1.111   0.723   3.220  0.3208  0.8120 -1.8247
 2783TIP3    H229765   1.160   0.678   3.356 -2.6134  0.3004 -0.8853
 2784TIP3   OH229766   1.534   2.441   3.626 -0.8979  0.2269 -0.2841
 2784TIP3    H129767   1.557   2.349   3.638 -0.7413  0.4695  1.7672
 2784TIP3    H229768   1.451   2.451   3.674  1.2813  2.0097  3.5713
 2785TIP3   OH229769   3.553   0.605  12.867  0.1149  0.1336  0.5079
 2785TIP3    H129770   3.511   0.550  12.932  1.6573 -0.1483  1.2963
 2785TIP3    H229771   3.520   0.693  12.885  0.4605  0.0404  1.6160
 2786TIP3   OH229772   4.783   3.091  14.795 -0.1774  0.2803  0.5147
 2786TIP3    H129773   4.717   3.023  14.807 -0.4515  0.8596  2.5797
 2786TIP3    H229774   4.867   3.046  14.807 -0.2201 -0.1874 -0.7842
 2787TIP3   OH229775   4.544   6.569  16.630 -0.0627  0.1686 -0.3872
 2787TIP3    H129776   4.464   6.521  16.611  0.2158 -0.5023  0.1259
 2787TIP3    H229777   4.573   6.536  16.715  1.8427 -1.1045 -1.4614
 2788TIP3   OH229778   2.689   3.952   5.426 -0.6009  0.1497 -0.0274
 2788TIP3    H129779   2.741   3.975   5.503 -1.5253 -1.1429  1.0267
 2788TIP3    H229780   2.722   3.867   5.399  0.5112  1.0729 -1.8418
 2789TIP3   OH229781   5.218   0.752  16.546 -0.1334 -0.2420 -0.0884
 2789TIP3    H129782   5.192   0.659  16.552 -1.9287  0.2866  1.5633
 2789TIP3    H229783   5.271   0.767  16.624  0.2453  0.1203 -0.4087
 2790TIP3   OH229784   5.352   5.325  13.471 -0.5526  0.5957 -0.1573
 2790TIP3    H129785   5.413   5.251  13.478 -1.1265  0.1748  0.4586
 2790TIP3    H229786   5.295   5.317  13.547 -1.4764  0.8949 -0.8026
 2791TIP3   OH229787   3.031   6.317  16.754  0.5458  0.0582  0.1522
 2791TIP3    H129788   3.045   6.368  16.674 -0.1169 -0.1446 -0.1000
 2791TIP3    H229789   3.103   6.342  16.811  1.5188 -0.4401 -0.8336
 2792TIP3   OH229790   0.651   1.340   0.303  0.3679  0.0097 -0.0462
 2792TIP3    H129791   0.672   1.254   0.267  0.9760  0.2005 -0.1462
 2792TIP3    H229792   0.689   1.339   0.391 -2.4273 -1.0410  1.2624
 2793TIP3   OH229793   3.439   1.580  14.622  0.1272 -0.0337 -0.2328
 2793TIP3    H129794   3.510   1.621  14.672 -0.2876  2.1934 -1.3933
 2793TIP3    H229795   3.361   1.595  14.675  0.1125 -0.1488 -0.2219
 2794TIP3   OH229796   1.956   4.264  15.406  0.6734  0.3782  0.1135
 2794TIP3    H129797   1.872   4.263  15.359 -0.2607 -0.7365  1.6922
 2794TIP3    H229798   1.934   4.230  15.493  2.6143  0.9331  0.8619
 2795TIP3   OH229799   2.176   2.076  12.438 -0.2682  0.0376 -0.1316
 2795TIP3    H129800   2.183   1.982  12.425 -2.5052 -0.2816  0.4572
 2795TIP3    H229801   2.101   2.102  12.384 -0.1982  1.3325  0.3470
 2796TIP3   OH229802   6.231   5.417  13.314 -0.1832  0.5280  0.2368
 2796TIP3    H129803   6.218   5.333  13.272  3.2154  0.3038 -0.6525
 2796TIP3    H229804   6.173   5.477  13.267  0.0060 -0.6469 -1.5918
 2797TIP3   OH229805   0.640   4.319  11.366 -0.4269  0.6950 -0.4816
 2797TIP3    H129806   0.579   4.365  11.424 -1.2906  1.3183 -1.8385
 2797TIP3    H229807   0.597   4.235  11.349  0.4015 -0.0033  0.7173
 2798TIP3   OH229808   1.591   1.987   1.206 -0.3173 -0.0418 -0.1692
 2798TIP3    H129809   1.634   1.995   1.291 -0.4684 -0.6994 -0.0270
 2798TIP3    H229810   1.657   1.945   1.150  0.0340  1.0164 -0.5750
 2799TIP3   OH229811   0.052   1.046  13.541 -0.5826  0.1769 -0.2648
 2799TIP3    H129812  -0.033   1.047  13.497 -2.2029  0.0432  2.5821
 2799TIP3    H229813   0.065   1.136  13.570  0.1415  0.1423 -0.4649
 2800TIP3   OH229814   5.623   4.250  13.481  0.4228  0.3328  0.9167
 2800TIP3    H129815   5.589   4.290  13.561  3.0602 -1.1285  2.8984
 2800TIP3    H229816   5.711   4.221  13.503  0.9082 -1.0668 -2.2414
 2801TIP3   OH229817   5.673   0.764   2.256 -0.1130  0.1248 -0.3291
 2801TIP3    H129818   5.594   0.710   2.263  0.2258 -0.3042  0.3103
 2801TIP3    H229819   5.646   0.839   2.203 -0.0759 -1.5822 -2.9475
 2802TIP3   OH229820   3.258   6.265   3.595  0.0313  0.2045 -0.3686
 2802TIP3    H129821   3.260   6.354   3.559  2.7564 -0.3421 -1.8600
 2802TIP3    H229822   3.331   6.263   3.657  0.1447 -1.0271 -0.5125
 2803TIP3   OH229823   0.922   3.697  16.481 -0.1530 -0.3023  0.0711
 2803TIP3    H129824   0.958   3.755  16.549  1.2039  0.0036 -0.8735
 2803TIP3    H229825   0.872   3.756  16.424 -1.8283 -0.6501  1.0888
 2804TIP3   OH229826   5.409   3.010   0.921  0.0135 -0.2393 -0.4187
 2804TIP3    H129827   5.467   2.937   0.899  0.3627  0.3261 -1.4208
 2804TIP3    H229828   5.404   3.007   1.017 -0.2715 -1.7846 -0.4434
 2805TIP3   OH229829   6.720   5.297  14.186  0.1422  0.0783  0.0692
 2805TIP3    H129830   6.754   5.229  14.245  0.7065 -0.7987 -1.2183
 2805TIP3    H229831   6.797   5.351  14.165  0.4800 -0.9964 -1.6431
 2806TIP3   OH229832   4.261   2.976  13.246 -0.5936 -0.3521 -0.5219
 2806TIP3    H129833   4.261   2.944  13.336  2.9897 -0.2173 -0.3459
 2806TIP3    H229834   4.242   2.899  13.193  0.8876 -1.2827  0.2346
 2807TIP3   OH229835   1.152   3.638  10.781 -0.0113 -0.3808  0.3481
 2807TIP3    H129836   1.208   3.563  10.801 -0.9211 -0.7543  1.6359
 2807TIP3    H229837   1.181   3.668  10.695  2.4937 -0.2301  1.1621
 2808TIP3   OH229838   6.563   4.079  14.077  0.1376  0.1305  0.8048
 2808TIP3    H129839   6.646   4.060  14.034 -1.6450 -3.2712 -1.6454
 2808TIP3    H229840   6.541   4.168  14.050  1.0494 -0.4205 -1.9998
 2809TIP3   OH229841   6.674   4.344   5.186 -0.8801 -0.2071 -0.4143
 2809TIP3    H129842   6.685   4.347   5.091 -1.8718 -1.0510 -0.5792
 2809TIP3    H229843   6.752   4.298   5.218  1.2877  3.1915 -0.3991
 2810TIP3   OH229844   0.194   5.024   4.761  0.2159 -0.1774 -0.3861
 2810TIP3    H129845   0.196   5.098   4.700  1.0073  1.5049  1.6048
 2810TIP3    H229846   0.102   5.016   4.785  0.2592  0.7975  0.1262
 2811TIP3   OH229847   2.204   2.030   3.239  0.3035  0.3795  0.1136
 2811TIP3    H129848   2.112   2.046   3.221  0.4614 -0.2570 -1.4260
 2811TIP3    H229849   2.206   1.945   3.284  0.0817  0.8452  1.0205
 2812TIP3   OH229850   5.770   4.983  16.341 -0.0686  0.1218  0.1249
 2812TIP3    H129851   5.772   4.895  16.380  1.4562 -0.3955 -1.0060
 2812TIP3    H229852   5.860   5.016  16.352 -0.7431  1.7924  0.9948
 2813TIP3   OH229853   2.399   4.353   5.161  0.7272 -0.3345  0.7053
 2813TIP3    H129854   2.343   4.285   5.124  0.5792  0.0083  0.2955
 2813TIP3    H229855   2.468   4.305   5.206 -0.2758 -0.7700  1.8301
 2814TIP3   OH229856   3.850   4.394  16.341 -0.1963 -0.2180  0.1088
 2814TIP3    H129857   3.905   4.329  16.385 -1.5918 -0.8431  1.0002
 2814TIP3    H229858   3.763   4.383  16.382  0.1277  4.2937  2.6319
 2815TIP3   OH229859   5.158   3.259   3.445 -0.3801  0.0560 -0.1683
 2815TIP3    H129860   5.188   3.281   3.533  0.2587  1.3293 -0.6782
 2815TIP3    H229861   5.069   3.228   3.457 -0.1980 -0.0591  0.9561
 2816TIP3   OH229862   1.289   5.173   4.215  0.1006  0.6894  0.6249
 2816TIP3    H129863   1.203   5.169   4.174 -0.9141 -3.3640  2.6725
 2816TIP3    H229864   1.271   5.190   4.307  1.3090 -1.6466  1.3462
 2817TIP3   OH229865   4.990   3.071  16.916  0.6738  0.0269 -0.1497
 2817TIP3    H129866   5.044   3.001  16.879  0.2472  1.5663 -4.1436
 2817TIP3    H229867   4.900   3.043  16.899  0.4835  1.1462 -1.0696
 2818TIP3   OH229868   1.981   0.072   0.618 -0.0014  0.9725 -0.1616
 2818TIP3    H129869   1.903   0.021   0.597 -0.1202  0.7988  0.6791
 2818TIP3    H229870   2.050   0.006   0.630  0.3629  1.1414 -1.2153
 2819TIP3   OH229871   6.557   4.098  15.485 -0.0655  0.8152 -0.4463
 2819TIP3    H129872   6.574   4.020  15.433  0.3775  0.3336  0.3810
 2819TIP3    H229873   6.462   4.108  15.484 -0.2031 -0.2749  0.1759
 2820TIP3   OH229874   3.762   5.964   5.482 -0.1135 -0.3867 -0.0897
 2820TIP3    H129875   3.768   5.889   5.422  0.7651 -0.0215 -0.4825
 2820TIP3    H229876   3.848   5.967   5.525 -0.8827 -0.9232  1.5569
 2821TIP3   OH229877   3.396   2.456   2.277  0.0925 -0.0790  1.2682
 2821TIP3    H129878   3.410   2.546   2.305  1.4904 -0.3572  1.5771
 2821TIP3    H229879   3.403   2.405   2.358 -2.8564 -0.3101  1.4554
 2822TIP3   OH229880   0.102   1.254  13.154 -0.0175  0.5077  0.7985
 2822TIP3    H129881   0.017   1.247  13.111  0.7313 -1.0944 -0.5342
 2822TIP3    H229882   0.099   1.190  13.225  0.0580  0.4628  0.7619
 2823TIP3   OH229883   2.664   5.285  13.798 -0.5504  0.4923 -0.4977
 2823TIP3    H129884   2.639   5.368  13.758 -3.1414  0.8053  1.5523
 2823TIP3    H229885   2.596   5.267  13.863  1.8194 -1.4292  1.7026
 2824TIP3   OH229886   2.238   5.671   5.375 -0.1283 -0.0124 -0.0709
 2824TIP3    H129887   2.299   5.726   5.423 -0.7152  0.7170 -0.1466
 2824TIP3    H229888   2.154   5.715   5.383 -0.4763 -0.5306 -0.7259
 2825TIP3   OH229889   2.823   2.573   4.569  0.5176  0.5013  0.3056
 2825TIP3    H129890   2.808   2.507   4.502  3.4499 -1.4183  1.3330
 2825TIP3    H229891   2.792   2.655   4.530 -0.2988 -0.9340 -2.2899
 2826TIP3   OH229892   2.911   3.618   2.459  0.5269 -0.4440 -0.0407
 2826TIP3    H129893   2.912   3.523   2.474  0.0970 -0.4019  0.2769
 2826TIP3    H229894   2.858   3.630   2.380 -0.1132 -0.4112  0.3867
 2827TIP3   OH229895   0.958   1.618   3.988  0.1040 -0.3428 -0.1752
 2827TIP3    H129896   0.876   1.668   3.984  0.2286 -0.0520  0.7279
 2827TIP3    H229897   0.989   1.616   3.898 -0.8810 -0.4283 -0.5303
 2828TIP3   OH229898   3.027   0.563  11.202  0.2026  0.4406 -0.3131
 2828TIP3    H129899   3.099   0.503  11.183  1.2472  1.7328 -0.5430
 2828TIP3    H229900   2.995   0.590  11.116 -2.0026 -1.7174 -0.2793
 2829TIP3   OH229901   2.652   0.935  15.428  0.1408  0.3748 -0.0011
 2829TIP3    H129902   2.607   0.853  15.412  1.2203 -0.4646  1.0865
 2829TIP3    H229903   2.650   0.946  15.523  0.1054  1.5514 -0.1187
 2830TIP3   OH229904   5.154   1.019   0.502 -0.5509  0.1479  0.7910
 2830TIP3    H129905   5.153   1.085   0.571 -0.1154  0.0144  0.9273
 2830TIP3    H229906   5.171   1.068   0.421 -0.6035  0.2483  0.8412
 2831TIP3   OH229907   4.828   0.990   4.376 -0.7071  0.2152  0.0429
 2831TIP3    H129908   4.733   0.991   4.370 -0.8126 -0.6816  1.1358
 2831TIP3    H229909   4.859   1.022   4.291 -1.9704 -0.0136 -0.5145
 2832TIP3   OH229910   6.591   1.831   5.282  0.3032  0.4066 -0.1377
 2832TIP3    H129911   6.508   1.863   5.248 -0.1378 -1.5717 -1.0191
 2832TIP3    H229912   6.567   1.762   5.344  1.2854 -0.5764 -0.8252
 2833TIP3   OH229913   5.508   6.182  13.706  0.3014 -0.0974  0.1209
 2833TIP3    H129914   5.414   6.180  13.720  0.3246 -2.5500  0.5010
 2833TIP3    H229915   5.521   6.145  13.619  0.9045  0.2641  0.0482
 2834TIP3   OH229916   6.645   0.372  11.887  0.4483 -0.2467 -0.2928
 2834TIP3    H129917   6.639   0.290  11.837 -1.4677  0.2032 -0.9044
 2834TIP3    H229918   6.706   0.353  11.957  0.2554 -2.1310 -0.5756
 2835TIP3   OH229919   1.059   6.447   4.310  0.1322  0.2191 -0.0645
 2835TIP3    H129920   0.974   6.448   4.266 -0.4461 -0.4252  0.9935
 2835TIP3    H229921   1.096   6.361   4.290 -0.8585 -0.7415  1.9688
 2836TIP3   OH229922   1.047   6.757  17.034 -0.0293  0.7749 -0.1831
 2836TIP3    H129923   1.016   6.787  17.120  1.8777  1.1442  0.4035
 2836TIP3    H229924   1.073   6.667  17.048  2.1140  1.3976  0.1605
 2837TIP3   OH229925   0.914   5.016   3.884 -0.4972 -0.1287 -0.5760
 2837TIP3    H129926   0.999   4.974   3.887 -0.0634  0.7997  1.1359
 2837TIP3    H229927   0.855   4.955   3.929 -0.4271 -0.1256 -0.4797
 2838TIP3   OH229928   2.722   1.241   4.566 -0.2906  0.0052  0.6988
 2838TIP3    H129929   2.807   1.219   4.527 -0.2931 -0.8669  1.1570
 2838TIP3    H229930   2.659   1.188   4.516 -0.5760  0.6558  0.3535
 2839TIP3   OH229931   5.317   3.170   1.640 -0.4105 -0.1074 -0.0549
 2839TIP3    H129932   5.379   3.180   1.568 -1.1179  1.8400 -0.4589
 2839TIP3    H229933   5.258   3.100   1.611  1.1643 -1.5704  0.0819
 2840TIP3   OH229934   4.394   3.679   1.765  0.1967  0.0169  0.4127
 2840TIP3    H129935   4.405   3.595   1.722  3.3367 -0.8588  2.5943
 2840TIP3    H229936   4.324   3.664   1.829  1.5698 -1.4331  1.6658
 2841TIP3   OH229937   6.424   4.242   5.157 -0.8566 -0.4980  0.0211
 2841TIP3    H129938   6.355   4.305   5.137 -0.5471 -1.1330 -3.9797
 2841TIP3    H229939   6.505   4.292   5.155 -0.9280 -0.1233  2.7014
 2842TIP3   OH229940   3.532   2.064  15.446 -0.2135  0.0152  0.2175
 2842TIP3    H129941   3.570   2.134  15.394  1.0090  0.0567  1.1262
 2842TIP3    H229942   3.548   2.089  15.537 -0.3355 -1.1204  0.5768
 2843TIP3   OH229943   3.762   0.969   1.017 -0.0701  0.5268  0.2112
 2843TIP3    H129944   3.752   1.023   1.096 -0.9710  0.0755  0.4226
 2843TIP3    H229945   3.724   1.023   0.947 -2.1916 -0.3068  0.6445
 2844TIP3   OH229946   4.441   2.046  11.328  0.4989  0.7366  0.4124
 2844TIP3    H129947   4.477   1.962  11.299  1.7904  1.9505 -1.7746
 2844TIP3    H229948   4.498   2.072  11.401  1.4838  0.7006 -0.3234
 2845TIP3   OH229949   6.529   0.433  14.031  0.2882 -0.4948  0.2311
 2845TIP3    H129950   6.468   0.505  14.046  1.1267  0.6866 -1.6208
 2845TIP3    H229951   6.477   0.367  13.985  0.0437 -0.1500  0.0090
 2846TIP3   OH229952   2.908   0.453  14.179  0.4154  0.4084 -0.1087
 2846TIP3    H129953   2.922   0.444  14.085 -1.5122  0.4582 -0.4427
 2846TIP3    H229954   2.996   0.461  14.216  1.2684 -0.8299 -1.7584
 2847TIP3   OH229955   5.394   1.455   0.126 -0.0367  0.1600 -0.1310
 2847TIP3    H129956   5.416   1.365   0.103  0.1359  0.2445 -0.2938
 2847TIP3    H229957   5.456   1.478   0.195  0.0658  0.2297 -0.2455
 2848TIP3   OH229958   1.655   6.657  14.200 -0.5394 -0.3859 -0.3906
 2848TIP3    H129959   1.568   6.673  14.236 -0.3184  0.8349 -0.3362
 2848TIP3    H229960   1.657   6.707  14.118 -0.4302 -1.7021 -1.2099
 2849TIP3   OH229961   1.443   6.757   4.888 -0.0461  0.1953  0.2124
 2849TIP3    H129962   1.510   6.688   4.892 -0.3161 -0.0050  2.4698
 2849TIP3    H229963   1.385   6.730   4.817  0.1731 -1.6427  0.6767
 2850TIP3   OH229964   4.945   3.933  12.277  0.2520  0.0522  0.2987
 2850TIP3    H129965   4.966   3.864  12.340 -0.0821  1.2974  1.8188
 2850TIP3    H229966   4.850   3.926  12.265  0.0820  0.7726  1.1274
 2851TIP3   OH229967   4.019   1.761   2.169  0.3870 -0.0615  0.7266
 2851TIP3    H129968   4.006   1.727   2.081  0.1759 -0.8424  1.0425
 2851TIP3    H229969   3.940   1.735   2.217 -1.0220  3.1405  0.3688
 2852TIP3   OH229970   5.033   2.650  13.870 -0.0892  0.4320 -0.2851
 2852TIP3    H129971   5.103   2.694  13.822  0.9954 -0.6213  0.2846
 2852TIP3    H229972   4.969   2.626  13.803  0.7401  0.1990 -1.0024
 2853TIP3   OH229973   6.568   0.240   1.341  0.4972  0.7044 -0.0251
 2853TIP3    H129974   6.570   0.335   1.346 -0.6720  0.6840  1.3371
 2853TIP3    H229975   6.502   0.220   1.275 -1.4491  0.8624  1.7820
 2854TIP3   OH229976   4.116   1.544  11.366  0.4387 -0.0557  0.3959
 2854TIP3    H129977   4.054   1.608  11.330  1.0678  0.5802  0.4395
 2854TIP3    H229978   4.084   1.460  11.332 -1.5644  0.0071  1.9381
 2855TIP3   OH229979   1.397   0.262  13.520 -0.5063 -0.3855  0.6711
 2855TIP3    H129980   1.468   0.210  13.558 -0.9776 -0.8814  0.8890
 2855TIP3    H229981   1.378   0.327  13.587  1.5658  1.5327 -0.4691
 2856TIP3   OH229982   1.575   2.750   2.535  0.3328  0.0656 -0.3359
 2856TIP3    H129983   1.533   2.834   2.554 -3.7338 -2.0856  1.5346
 2856TIP3    H229984   1.644   2.741   2.601  1.5305  2.2413 -1.2024
 2857TIP3   OH229985   2.155   1.063  16.521  0.3592  0.4785 -0.3303
 2857TIP3    H129986   2.215   1.084  16.593  0.7644 -0.0505 -0.5028
 2857TIP3    H229987   2.104   0.989  16.554  1.9779 -1.1596 -1.3162
 2858TIP3   OH229988   0.787   2.657  12.819  0.1863 -0.0326 -0.1293
 2858TIP3    H129989   0.766   2.742  12.781 -2.9337 -0.4280  0.3969
 2858TIP3    H229990   0.778   2.670  12.913 -0.7694 -0.9833 -0.0631
 2859TIP3   OH229991   5.793   3.616  16.675  0.6756 -0.2141  0.1077
 2859TIP3    H129992   5.743   3.625  16.756  0.6386  1.6331 -0.0688
 2859TIP3    H229993   5.749   3.545  16.628  1.0252 -1.6842  1.9022
 2860TIP3   OH229994   3.201   1.331  16.421 -0.7286  0.5697  0.6644
 2860TIP3    H129995   3.131   1.372  16.470 -0.3502  2.8266 -0.5617
 2860TIP3    H229996   3.255   1.403  16.390  1.3488 -1.0093  0.3548
 2861TIP3   OH229997   3.100   0.040   5.832  0.1620  0.8241  0.1842
 2861TIP3    H129998   3.173   0.085   5.876  0.6537  0.4855 -0.2788
 2861TIP3    H229999   3.035   0.026   5.901  0.5002  1.2048  0.5817
 2862TIP3   OH230000   0.941   1.784  13.214  0.4022 -0.1991 -0.6276
 2862TIP3    H130001   1.017   1.830  13.252  0.9498 -0.9353 -0.8157
 2862TIP3    H230002   0.874   1.791  13.282  0.9542 -0.3768 -0.0511
 2863TIP3   OH230003   1.228   0.791  16.703 -0.2813 -0.0333  0.3383
 2863TIP3    H130004   1.244   0.868  16.649 -2.0731  0.9246  1.0949
 2863TIP3    H230005   1.306   0.784  16.759  1.2750 -0.6179 -1.7557
 2864TIP3   OH230006   5.020   5.301   6.188 -0.0812  0.2413 -0.1338
 2864TIP3    H130007   5.006   5.232   6.252 -0.8667  0.0938 -0.4474
 2864TIP3    H230008   5.007   5.382   6.237  2.0550  0.2338  0.5229
 2865TIP3   OH230009   5.260   6.626  15.591 -0.2526 -0.1085 -0.1665
 2865TIP3    H130010   5.239   6.713  15.624 -3.2425  0.0276 -2.0245
 2865TIP3    H230011   5.244   6.632  15.497 -2.8278 -3.1275 -0.0871
 2866TIP3   OH230012   2.761   2.336   2.570  0.4539 -0.1994  0.2206
 2866TIP3    H130013   2.753   2.243   2.551 -1.2579  0.0249 -0.3255
 2866TIP3    H230014   2.701   2.351   2.643  1.9970  0.1908  1.4601
 2867TIP3   OH230015   3.952   0.318  10.746 -0.1701  0.1881  0.1466
 2867TIP3    H130016   3.920   0.333  10.835 -1.4295  0.5967 -0.3557
 2867TIP3    H230017   4.031   0.372  10.740  1.1000 -1.3826  1.6385
 2868TIP3   OH230018   0.878   1.274   5.074  1.0142 -0.3124  0.3525
 2868TIP3    H130019   0.887   1.368   5.061  0.6467 -0.1323  1.3470
 2868TIP3    H230020   0.967   1.240   5.071  1.1152 -0.0093 -0.4682
 2869TIP3   OH230021   0.463   1.258  15.449 -0.1733 -0.3689 -0.2914
 2869TIP3    H130022   0.538   1.244  15.507 -0.3285 -1.7712 -0.3919
 2869TIP3    H230023   0.500   1.256  15.361 -0.2400 -0.3406 -0.3203
 2870TIP3   OH230024   4.916   2.300  14.152 -0.3083  0.0863 -0.0813
 2870TIP3    H130025   4.955   2.282  14.066 -2.7739  0.1418 -1.3035
 2870TIP3    H230026   4.900   2.214  14.190 -0.6260  0.0107 -0.3814
 2871TIP3   OH230027   5.206   1.791   3.826 -0.1304 -0.5565  0.0728
 2871TIP3    H130028   5.190   1.875   3.869 -0.2011 -0.2973 -0.4513
 2871TIP3    H230029   5.186   1.726   3.893  0.7866 -0.1427  0.7767
 2872TIP3   OH230030   4.658   1.671   3.035 -0.1578  0.2980 -0.3176
 2872TIP3    H130031   4.586   1.727   3.006  0.5402  0.8704 -0.9901
 2872TIP3    H230032   4.737   1.718   3.010  0.4539 -0.7495 -0.4387
 2873TIP3   OH230033   2.845   3.690  17.190  0.0476  0.5929 -0.9911
 2873TIP3    H130034   2.786   3.738  17.248 -0.5520 -1.0336 -0.2124
 2873TIP3    H230035   2.920   3.667  17.246  0.0232  0.0486 -1.1777
 2874TIP3   OH230036   3.330   6.408   1.183  0.0293 -0.2179 -0.3168
 2874TIP3    H130037   3.326   6.502   1.170 -1.6441 -0.1907  0.0897
 2874TIP3    H230038   3.264   6.373   1.123 -0.3951 -0.9894  0.5615
 2875TIP3   OH230039   3.193   5.045  14.596 -0.2401 -0.0440 -0.3125
 2875TIP3    H130040   3.168   5.135  14.617 -1.7996 -0.6098  0.4495
 2875TIP3    H230041   3.155   5.029  14.509 -0.1948 -0.0331 -0.3338
 2876TIP3   OH230042   0.310   3.625  12.381  0.1666  0.5552  0.0982
 2876TIP3    H130043   0.283   3.663  12.297  2.1734 -0.0920 -0.8955
 2876TIP3    H230044   0.319   3.531  12.364 -1.6937  0.0131  1.7097
 2877TIP3   OH230045   3.884   6.323  13.203  0.2662  0.1889  0.0340
 2877TIP3    H130046   3.794   6.355  13.204 -0.4149 -1.5728 -0.9442
 2877TIP3    H230047   3.931   6.388  13.150 -0.7175  0.4334 -0.5794
 2878TIP3   OH230048   4.527   6.572  15.140 -0.4091 -0.0199 -0.3990
 2878TIP3    H130049   4.573   6.555  15.223  0.2599 -0.7173 -0.8924
 2878TIP3    H230050   4.436   6.547  15.158 -0.4343  0.5595  0.3425
 2879TIP3   OH230051   0.878   5.323  15.789  0.3818  0.3944  0.2965
 2879TIP3    H130052   0.853   5.237  15.755  1.4096  0.9581 -2.0939
 2879TIP3    H230053   0.895   5.308  15.881 -0.1548 -1.8106  0.1005
 2880TIP3   OH230054   5.801   3.435  15.357 -0.6316 -0.1096 -0.2343
 2880TIP3    H130055   5.896   3.429  15.346 -0.2874  2.7466  0.4101
 2880TIP3    H230056   5.788   3.432  15.452 -1.1796 -0.3094 -0.3124
 2881TIP3   OH230057   2.449   2.535   5.282 -0.0260  0.6864 -0.0004
 2881TIP3    H130058   2.444   2.448   5.241 -0.6726  0.8594 -0.3088
 2881TIP3    H230059   2.425   2.520   5.373 -2.6778  0.8827 -0.5818
 2882TIP3   OH230060   1.142   3.244   6.466  0.6015  0.3696  0.7083
 2882TIP3    H130061   1.051   3.273   6.461  0.0372 -1.4183  0.2138
 2882TIP3    H230062   1.159   3.202   6.382  1.1356 -1.3753  1.6342
 2883TIP3   OH230063   0.959   4.220   0.474  0.3318  0.1020 -0.4779
 2883TIP3    H130064   0.931   4.244   0.386 -0.7227  0.2855 -0.1082
 2883TIP3    H230065   0.945   4.125   0.478 -1.6009  0.3502  0.1248
 2884TIP3   OH230066   1.775   5.245   4.029 -0.6710  0.3127  0.4925
 2884TIP3    H130067   1.692   5.214   4.065 -2.2940  1.8898 -1.6581
 2884TIP3    H230068   1.809   5.306   4.095 -0.5143 -1.2703  1.9507
 2885TIP3   OH230069   0.114   1.135   2.659 -0.1692 -0.0176  0.1088
 2885TIP3    H130070   0.075   1.123   2.745 -1.2507 -0.6169 -0.4460
 2885TIP3    H230071   0.041   1.159   2.602  0.7584  1.9869 -0.3543
 2886TIP3   OH230072   4.411   2.211   3.717 -0.7540 -0.0034 -0.0452
 2886TIP3    H130073   4.374   2.295   3.743 -0.4134  0.3598 -0.6909
 2886TIP3    H230074   4.481   2.234   3.655 -1.4432 -0.8030 -1.1690
 2887TIP3   OH230075   3.689   2.763   1.092 -1.2989 -0.3590 -0.1444
 2887TIP3    H130076   3.641   2.817   1.028  0.7283  1.2160 -0.4453
 2887TIP3    H230077   3.644   2.779   1.175 -2.3526 -0.3181 -0.7038
 2888TIP3   OH230078   2.753   2.429  15.215 -0.1572 -0.1914 -0.3548
 2888TIP3    H130079   2.781   2.435  15.123 -1.1477  1.2702 -0.6034
 2888TIP3    H230080   2.661   2.404  15.210 -0.0040 -0.9339  0.2953
 2889TIP3   OH230081   0.408   0.272   4.583  0.8655 -0.0180 -0.0701
 2889TIP3    H130082   0.435   0.233   4.666  1.7287 -0.0818 -0.3619
 2889TIP3    H230083   0.332   0.221   4.556 -0.1995  0.7784  1.2609
 2890TIP3   OH230084   4.643   1.336   1.737 -0.8358  0.4806  0.0166
 2890TIP3    H130085   4.577   1.357   1.671  0.4757  1.1104 -1.1421
 2890TIP3    H230086   4.638   1.241   1.747 -1.5019  0.4549 -0.4999
 2891TIP3   OH230087   5.187   0.137   0.217  0.5922 -0.2693 -0.5516
 2891TIP3    H130088   5.260   0.083   0.245  1.2859  0.6258 -0.5981
 2891TIP3    H230089   5.182   0.124   0.123  0.0323 -1.1119 -0.4201
 2892TIP3   OH230090   5.163   6.003  13.299 -1.1067  0.4617 -0.0289
 2892TIP3    H130091   5.075   6.006  13.262 -1.0159  0.8566 -0.2295
 2892TIP3    H230092   5.212   6.067  13.247 -1.5565  2.8767  2.2750
 2893TIP3   OH230093   3.907   5.349  14.982 -0.0940 -0.5878 -0.3861
 2893TIP3    H130094   3.897   5.423  14.922  0.9259  1.2743  1.5632
 2893TIP3    H230095   3.998   5.321  14.970  0.1634 -0.1025  0.3380
 2894TIP3   OH230096   2.181   4.109   5.128 -0.2564 -0.1017 -0.6806
 2894TIP3    H130097   2.203   4.025   5.167 -1.7865 -0.7289 -1.0946
 2894TIP3    H230098   2.121   4.150   5.191  0.4571  0.6937 -0.4884
 2895TIP3   OH230099   6.692   2.653   5.278 -0.2988  0.8984 -0.0654
 2895TIP3    H130100   6.742   2.576   5.307  0.0491  0.3273 -2.0434
 2895TIP3    H230101   6.746   2.728   5.303  0.6647  0.3710 -0.5163
 2896TIP3   OH230102   2.289   2.514  16.235  0.2986 -0.4922  0.5822
 2896TIP3    H130103   2.259   2.559  16.315 -0.6577  0.3927 -0.2355
 2896TIP3    H230104   2.213   2.463  16.208  0.1517  0.2646 -0.4772
 2897TIP3   OH230105   0.163   1.584  12.090  0.2412  0.3425 -0.0908
 2897TIP3    H130106   0.197   1.564  12.177  0.7514  0.9993 -0.1289
 2897TIP3    H230107   0.068   1.579  12.099  0.2873  0.5658  0.5422
 2898TIP3   OH230108   3.623   1.713  13.092  0.5911  0.4014  0.1423
 2898TIP3    H130109   3.585   1.794  13.128 -0.6527 -0.3793  0.6640
 2898TIP3    H230110   3.644   1.661  13.170  3.7424  1.1706 -0.0638
 2899TIP3   OH230111   4.299   0.684   0.814  0.0041  0.1763 -0.0203
 2899TIP3    H130112   4.325   0.702   0.904 -0.7164  0.5060  0.1341
 2899TIP3    H230113   4.379   0.691   0.763  0.3549  0.3271  0.5478
 2900TIP3   OH230114   5.480   0.309  16.407 -0.2943  0.0091 -0.0079
 2900TIP3    H130115   5.518   0.350  16.484  0.4592  1.2961 -1.0176
 2900TIP3    H230116   5.545   0.244  16.380  0.6172  1.2583 -0.9384
 2901TIP3   OH230117   0.185   5.763  12.470  0.1291  0.5084 -0.3797
 2901TIP3    H130118   0.145   5.814  12.541  0.9289  0.2033  0.2998
 2901TIP3    H230119   0.275   5.749  12.498  0.7912  1.3278 -1.9766
 2902TIP3   OH230120   6.781   6.541  13.396 -1.1210  0.2213  0.4642
 2902TIP3    H130121   6.777   6.626  13.441  0.0494  1.1839 -1.1569
 2902TIP3    H230122   6.784   6.563  13.303  1.0617 -1.5071  0.0520
 2903TIP3   OH230123   2.456   4.202  10.604 -0.1313  0.1325  0.7233
 2903TIP3    H130124   2.438   4.108  10.610 -1.0852  0.4098  3.7423
 2903TIP3    H230125   2.390   4.235  10.543 -0.3095 -1.0095  0.2678
 2904TIP3   OH230126   1.198   6.009   3.581  0.1915 -0.3456 -0.2183
 2904TIP3    H130127   1.122   6.059   3.610  0.9066  1.9401 -1.8909
 2904TIP3    H230128   1.210   5.941   3.647 -2.4442  0.0610  0.8053
 2905TIP3   OH230129   1.251   1.174   2.667  0.2970  0.7214 -0.2316
 2905TIP3    H130130   1.233   1.213   2.753 -2.5082  1.4054 -1.0279
 2905TIP3    H230131   1.345   1.159   2.667  0.1620 -1.3158  3.7917
 2906TIP3   OH230132   6.045   4.724  14.030 -0.8753  0.1453  0.0397
 2906TIP3    H130133   6.092   4.642  14.013 -1.1721  0.3388 -1.9654
 2906TIP3    H230134   6.056   4.739  14.124  1.0565 -1.0416  0.0607
 2907TIP3   OH230135   5.740   0.347   0.295  0.3851 -0.6271  0.0900
 2907TIP3    H130136   5.812   0.406   0.272 -1.2141  1.0273 -0.9434
 2907TIP3    H230137   5.706   0.382   0.377 -1.7576  1.1791 -1.4526
 2908TIP3   OH230138   1.318   5.727  15.217 -0.7733 -0.2407  0.0227
 2908TIP3    H130139   1.368   5.780  15.279 -0.4499  0.4193 -0.7844
 2908TIP3    H230140   1.249   5.687  15.270 -0.1318 -0.1882  0.9200
 2909TIP3   OH230141   1.365   0.672  15.265 -0.5192  0.0021 -0.1584
 2909TIP3    H130142   1.302   0.692  15.196 -0.2044  0.1435 -0.4074
 2909TIP3    H230143   1.445   0.648  15.218 -0.2907  0.1392  0.1553
 2910TIP3   OH230144   3.066   5.511   0.050  0.1910 -0.3882  0.3012
 2910TIP3    H130145   3.050   5.577   0.117  0.6139 -0.2247  0.2477
 2910TIP3    H230146   3.156   5.528   0.021 -0.8565  1.4538 -2.3997
 2911TIP3   OH230147   0.017   3.208  15.471 -0.2157  0.0600 -0.2834
 2911TIP3    H130148  -0.029   3.124  15.468 -1.1673  0.5739 -1.8003
 2911TIP3    H230149   0.067   3.211  15.389  0.1283  0.7886 -0.0564
 2912TIP3   OH230150   5.886   1.834   3.722 -0.1446 -0.3274 -0.6384
 2912TIP3    H130151   5.914   1.743   3.718  1.0802 -0.0666  1.0557
 2912TIP3    H230152   5.960   1.884   3.687 -1.1825  0.0310 -2.5170
 2913TIP3   OH230153   0.396   6.029  14.916 -0.2392 -0.0787 -0.8749
 2913TIP3    H130154   0.305   6.010  14.897 -0.4057 -0.1679 -0.0159
 2913TIP3    H230155   0.400   6.041  15.011  0.0983  2.8771 -1.1642
 2914TIP3   OH230156   6.027   1.893   1.717  0.0163 -0.2309  0.2094
 2914TIP3    H130157   6.116   1.920   1.740  0.1241 -0.1698 -0.2520
 2914TIP3    H230158   6.026   1.893   1.621 -0.7257  0.5869  0.2023
 2915TIP3   OH230159   1.856   2.867   5.076 -0.2359 -0.1881 -0.5859
 2915TIP3    H130160   1.871   2.902   5.164 -2.1962 -1.1225  0.1641
 2915TIP3    H230161   1.941   2.831   5.050  1.8576  4.4792 -1.2448
 2916TIP3   OH230162   3.812   5.517   2.014 -0.2900 -0.4340 -0.0698
 2916TIP3    H130163   3.836   5.535   1.923  0.0885  0.7866  0.2562
 2916TIP3    H230164   3.893   5.526   2.063 -0.9475  1.5932  0.7449
 2917TIP3   OH230165   3.373   4.297  11.756 -0.1143  0.0929  0.8763
 2917TIP3    H130166   3.325   4.238  11.813 -0.1077 -1.8040 -0.9452
 2917TIP3    H230167   3.462   4.261  11.752  0.0270  0.4978  0.0869
 2918TIP3   OH230168   0.930   0.936  12.962 -0.2638 -0.3975 -0.0940
 2918TIP3    H130169   0.965   1.001  12.900 -0.1576  0.6142  0.9754
 2918TIP3    H230170   0.835   0.940  12.951 -0.3504  0.9564  0.8954
 2919TIP3   OH230171   1.993   3.796  14.963 -0.2045  0.6368 -0.6302
 2919TIP3    H130172   1.986   3.868  14.900 -0.1242  0.6520 -0.6216
 2919TIP3    H230173   1.953   3.830  15.043  1.9209  1.5182  0.1215
 2920TIP3   OH230174   4.965   0.729   2.092 -0.2630  0.4056  0.3912
 2920TIP3    H130175   5.026   0.752   2.163  0.8488  1.1991 -0.7860
 2920TIP3    H230176   5.016   0.740   2.012 -1.4977 -0.4813 -0.5539
 2921TIP3   OH230177   0.098   3.363   6.341 -0.2927  0.1371 -0.1602
 2921TIP3    H130178   0.069   3.361   6.250 -3.0359 -0.2778  0.6076
 2921TIP3    H230179   0.041   3.299   6.384  0.7715  0.5073  1.8892
 2922TIP3   OH230180   1.755   2.768   6.888  0.3516 -0.3598  0.6494
 2922TIP3    H130181   1.843   2.796   6.915  0.5902 -0.9613  0.5068
 2922TIP3    H230182   1.769   2.720   6.807 -0.1136 -0.4462  0.6191
 2923TIP3   OH230183   5.900   1.768  12.311  0.2401  0.3467 -0.3081
 2923TIP3    H130184   5.903   1.803  12.400 -0.1778 -1.4130  0.4284
 2923TIP3    H230185   5.809   1.778  12.284 -0.0603 -0.8363  0.2084
 2924TIP3   OH230186   2.751   4.062  13.714  0.2391 -0.3581  0.5328
 2924TIP3    H130187   2.757   4.148  13.673 -1.7763  1.1316  3.0280
 2924TIP3    H230188   2.730   4.002  13.642  2.7929  0.9152 -1.4681
 2925TIP3   OH230189   2.778   6.683  11.187  0.1551 -0.3340  0.5606
 2925TIP3    H130190   2.752   6.767  11.150 -1.0195 -0.0439  1.9547
 2925TIP3    H230191   2.854   6.703  11.242  0.2323 -0.2995  0.4428
 2926TIP3   OH230192   3.576   3.758   4.646 -0.4178 -0.7017 -0.8018
 2926TIP3    H130193   3.593   3.680   4.698  1.0935 -0.4957 -0.9480
 2926TIP3    H230194   3.593   3.731   4.556 -0.1776 -0.2995 -0.8826
 2927TIP3   OH230195   4.052   2.564   4.228 -0.6025 -0.2696  0.5989
 2927TIP3    H130196   4.101   2.502   4.175  0.5455  0.3604  0.8856
 2927TIP3    H230197   4.105   2.644   4.227 -2.4859  1.0848 -0.5989
 2928TIP3   OH230198   5.593   1.460  11.467 -0.1970  0.1102 -0.6648
 2928TIP3    H130199   5.668   1.478  11.523  1.6442  0.3182 -3.0343
 2928TIP3    H230200   5.566   1.371  11.491 -0.3758  0.6931  1.4364
 2929TIP3   OH230201   4.391   5.857  13.030 -0.8227 -0.1424  0.2337
 2929TIP3    H130202   4.353   5.942  13.007 -0.7757 -0.3187 -0.5209
 2929TIP3    H230203   4.326   5.793  13.003 -0.4087 -0.3961 -0.1846
 2930TIP3   OH230204   4.807   1.762  15.673  0.4470 -0.8792  0.6922
 2930TIP3    H130205   4.797   1.667  15.687  2.2152 -0.8196  2.9994
 2930TIP3    H230206   4.746   1.801  15.736  0.7287 -0.4920  0.7220
 2931TIP3   OH230207   4.518   4.206   3.516  0.0752  0.1143  0.5172
 2931TIP3    H130208   4.601   4.213   3.563  0.0662 -1.3220  0.7900
 2931TIP3    H230209   4.496   4.296   3.492  0.6743  0.7635  2.2438
 2932TIP3   OH230210   6.658   6.009   0.135  0.3475 -0.2344  0.1138
 2932TIP3    H130211   6.730   5.967   0.182  0.2603 -1.4010 -0.7556
 2932TIP3    H230212   6.673   6.102   0.148  3.2340 -0.3164 -1.7404
 2933TIP3   OH230213   6.056   2.423   5.796  0.8738  0.1436 -0.1569
 2933TIP3    H130214   6.098   2.391   5.876  0.2894  0.9493  0.4970
 2933TIP3    H230215   6.069   2.518   5.798  1.4222  0.1124 -1.3682
 2934TIP3   OH230216   4.738   0.251   2.858  0.7367  0.6241 -0.5463
 2934TIP3    H130217   4.694   0.331   2.885  1.2829  1.0349 -0.8651
 2934TIP3    H230218   4.702   0.233   2.771 -0.0479  0.0240 -0.1098
 2935TIP3   OH230219   5.498   4.027  16.035 -0.2430 -0.0460 -0.3671
 2935TIP3    H130220   5.423   4.028  16.094  1.2227  0.5859  1.6324
 2935TIP3    H230221   5.507   4.117  16.005 -0.8611 -0.3249 -1.4144
 2936TIP3   OH230222   0.087   3.971   4.686  0.1022 -0.4379 -0.7848
 2936TIP3    H130223  -0.003   3.961   4.656  0.5614 -2.0141 -1.7569
 2936TIP3    H230224   0.101   4.066   4.687 -1.6815 -0.1304 -0.1514
 2937TIP3   OH230225   6.029   4.613   2.190 -0.0671 -0.6368 -0.1189
 2937TIP3    H130226   5.971   4.688   2.175  1.1964  0.3292 -0.4076
 2937TIP3    H230227   6.100   4.649   2.243  0.5215 -1.6662 -0.1824
 2938TIP3   OH230228   0.340   0.406  12.648 -0.2878  0.1085 -0.1885
 2938TIP3    H130229   0.367   0.493  12.678  0.6833  0.7191 -2.5483
 2938TIP3    H230230   0.265   0.423  12.590  1.5292 -0.1683 -2.8367
 2939TIP3   OH230231   2.608   6.183  13.680  0.6843 -0.9028  0.6540
 2939TIP3    H130232   2.640   6.252  13.621  0.2151 -1.7001 -0.5525
 2939TIP3    H230233   2.629   6.217  13.768  0.9716  0.5200  0.0783
 2940TIP3   OH230234   0.209   5.387  17.111 -0.2891  0.3802 -0.1241
 2940TIP3    H130235   0.159   5.307  17.126  0.0964  0.2073  0.2467
 2940TIP3    H230236   0.186   5.444  17.185  0.4250  0.1151  0.3158
 2941TIP3   OH230237   0.244   6.336   3.398 -0.5209 -0.1967  0.2006
 2941TIP3    H130238   0.238   6.357   3.491  0.9463  1.7996 -0.0898
 2941TIP3    H230239   0.171   6.384   3.358 -0.5163 -0.1877  0.2030
 2942TIP3   OH230240   5.478   0.488  11.447 -0.1153  0.1800  0.3417
 2942TIP3    H130241   5.469   0.430  11.371  1.8508  0.0356  0.1766
 2942TIP3    H230242   5.389   0.519  11.463 -0.8537 -1.0947 -0.9765
 2943TIP3   OH230243   5.511   4.226  11.369  0.0427 -0.0796  0.0723
 2943TIP3    H130244   5.436   4.175  11.400  0.5302 -2.0270 -1.7602
 2943TIP3    H230245   5.583   4.163  11.366  1.1736  1.1954 -0.4634
 2944TIP3   OH230246   6.061   1.618   0.961 -0.5614 -0.4205 -0.5715
 2944TIP3    H130247   6.011   1.675   0.902  1.8508  1.1725 -1.2695
 2944TIP3    H230248   6.133   1.586   0.907 -0.1478 -1.6723  0.6719
 2945TIP3   OH230249   3.891   5.528   2.363  0.4564 -0.1508 -0.3240
 2945TIP3    H130250   3.985   5.518   2.347  0.9700  2.5134  0.5148
 2945TIP3    H230251   3.875   5.621   2.351 -3.0655 -1.0189 -5.1287
 2946TIP3   OH230252   3.247   5.472   0.736 -0.0860 -0.1459  0.1779
 2946TIP3    H130253   3.321   5.470   0.675 -1.6492  0.7051 -1.8649
 2946TIP3    H230254   3.251   5.388   0.781  0.8471 -1.0316 -1.4750
 2947TIP3   OH230255   4.374   1.025  13.865  0.2815 -0.3897 -0.4867
 2947TIP3    H130256   4.369   1.098  13.804  0.9161  0.3440  0.3168
 2947TIP3    H230257   4.380   1.066  13.951 -0.2291 -1.3984  0.0496
 2948TIP3   OH230258   0.269   0.107   5.592  0.1583 -0.3788  0.1129
 2948TIP3    H130259   0.233   0.169   5.530  0.9491  0.5099  0.5196
 2948TIP3    H230260   0.325   0.050   5.540 -2.3887 -2.3451 -0.6914
 2949TIP3   OH230261   4.861   5.624  13.257  1.3720 -0.3440 -0.0407
 2949TIP3    H130262   4.767   5.607  13.260  1.1821  0.7575  1.1702
 2949TIP3    H230263   4.900   5.542  13.226  0.1853 -1.5773  1.5516
 2950TIP3   OH230264   2.273   4.955  16.200 -0.4600  0.1382  0.2524
 2950TIP3    H130265   2.250   4.911  16.118  0.5133 -0.4984  0.2986
 2950TIP3    H230266   2.288   5.046  16.175  0.8103 -0.2374 -0.4918
 2951TIP3   OH230267   0.408   1.685  13.260  0.1576 -0.0181 -0.1110
 2951TIP3    H130268   0.377   1.619  13.199 -0.6825  0.2689 -0.0061
 2951TIP3    H230269   0.420   1.638  13.342  0.0458 -0.1492 -0.1695
 2952TIP3   OH230270   6.739   5.766   4.178 -0.1183 -0.1418 -0.4105
 2952TIP3    H130271   6.670   5.765   4.245 -0.8897  0.6510 -1.1590
 2952TIP3    H230272   6.692   5.755   4.096  0.7577 -0.4732 -0.8809
 2953TIP3   OH230273   1.515   5.063   4.137 -0.0625  0.4406 -0.0161
 2953TIP3    H130274   1.451   5.085   4.206 -1.4746 -0.3747 -1.0087
 2953TIP3    H230275   1.465   5.068   4.056  1.0059 -0.7523 -0.7825
 2954TIP3   OH230276   1.444   3.787  16.653  0.2203  0.2943  0.6941
 2954TIP3    H130277   1.451   3.868  16.704  0.5723  0.5956  0.1799
 2954TIP3    H230278   1.527   3.782  16.605 -0.9295  1.1438 -1.5018
 2955TIP3   OH230279   3.739   0.683  12.669  0.3327  0.1129 -0.3212
 2955TIP3    H130280   3.678   0.639  12.728  0.8015 -0.6645 -0.3962
 2955TIP3    H230281   3.694   0.763  12.642  0.2351  0.6803  1.3578
 2956TIP3   OH230282   6.178   4.638   3.233  0.2605 -0.0048  0.7898
 2956TIP3    H130283   6.089   4.637   3.268  0.1320 -0.4047  0.4471
 2956TIP3    H230284   6.218   4.558   3.268  0.2018 -0.2915  0.2075
 2957TIP3   OH230285   0.255   2.230   2.577 -0.4677  0.2004  0.1903
 2957TIP3    H130286   0.336   2.280   2.583  0.0712 -0.5744 -0.5048
 2957TIP3    H230287   0.280   2.140   2.596 -0.8940 -0.2685 -1.3128
 2958TIP3   OH230288   3.110   1.870   5.470  0.1880  0.5991 -0.1404
 2958TIP3    H130289   3.199   1.835   5.477  0.4288  0.9928 -1.1180
 2958TIP3    H230290   3.110   1.921   5.388 -1.5094 -1.1402 -1.3195
 2959TIP3   OH230291   4.230   1.691  15.196  0.3504 -0.2554 -0.9903
 2959TIP3    H130292   4.259   1.738  15.274 -1.3537  1.5520 -1.3687
 2959TIP3    H230293   4.301   1.703  15.133  1.2991 -0.8907 -0.0751
 2960TIP3   OH230294   1.812   5.596   6.371  0.2292  0.2175  0.0774
 2960TIP3    H130295   1.900   5.558   6.361  0.2129  0.0538  0.5434
 2960TIP3    H230296   1.828   5.685   6.403  0.3058  0.9463 -1.8442
 2961TIP3   OH230297   2.584   4.593  11.433 -0.3694  0.1282 -0.5140
 2961TIP3    H130298   2.655   4.543  11.393 -0.3554 -1.2220  1.0666
 2961TIP3    H230299   2.564   4.545  11.514 -1.3023  1.9371  0.3943
 2962TIP3   OH230300   5.620   1.214   3.242  0.0361  0.0166  0.1692
 2962TIP3    H130301   5.596   1.143   3.303  1.7272 -1.5654 -0.8757
 2962TIP3    H230302   5.698   1.253   3.282  1.3597 -1.2540 -1.0416
 2963TIP3   OH230303   5.522   2.810  16.284  0.0857  0.3276  0.0349
 2963TIP3    H130304   5.438   2.850  16.261 -0.0657 -0.3631 -0.6445
 2963TIP3    H230305   5.508   2.716  16.272  1.1488  0.2458 -0.7760
 2964TIP3   OH230306   3.829   5.706   3.492  0.0161 -0.4774  0.0102
 2964TIP3    H130307   3.783   5.642   3.438  0.5119  0.1853 -1.2376
 2964TIP3    H230308   3.860   5.772   3.430  1.1020  0.0155  1.0352
 2965TIP3   OH230309   6.654   2.734  12.756  0.1611  0.1091 -0.0199
 2965TIP3    H130310   6.661   2.766  12.846  0.7561  0.6946 -0.2650
 2965TIP3    H230311   6.637   2.641  12.765 -2.3220  0.5522  0.7295
 2966TIP3   OH230312   0.159   2.721   1.908 -0.4785  0.2895 -0.2971
 2966TIP3    H130313   0.109   2.795   1.876  2.1852  2.1806 -0.4597
 2966TIP3    H230314   0.189   2.748   1.995  0.9482 -0.3400 -0.5629
 2967TIP3   OH230315   4.969   1.170  11.224 -0.1225  0.2066  0.6805
 2967TIP3    H130316   4.934   1.167  11.313 -1.1210 -0.8402  0.2787
 2967TIP3    H230317   4.902   1.127  11.171  0.0729  1.5257 -0.7093
 2968TIP3   OH230318   2.879   4.216  11.892 -0.1854 -0.0118 -0.3448
 2968TIP3    H130319   2.867   4.205  11.986  0.9407  0.6268 -0.1053
 2968TIP3    H230320   2.961   4.266  11.884 -0.8769  0.9855 -1.6134
 2969TIP3   OH230321   5.508   3.368   3.975  0.4496  0.2405  0.3335
 2969TIP3    H130322   5.585   3.332   4.019  1.4773  0.0033 -1.5522
 2969TIP3    H230323   5.454   3.291   3.955 -0.7172  0.4736  2.3370
 2970TIP3   OH230324   0.247   6.737   1.473  0.1312 -0.1332 -0.2810
 2970TIP3    H130325   0.164   6.736   1.520 -0.5997  1.1038 -1.4761
 2970TIP3    H230326   0.239   6.667   1.408  0.0161 -0.0096 -0.4003
 2971TIP3   OH230327   1.992   3.627   2.430  0.1402  0.1620  0.8473
 2971TIP3    H130328   1.913   3.681   2.438  0.6743  1.3110 -0.9723
 2971TIP3    H230329   1.962   3.538   2.449 -1.4659  0.6498  0.7705
 2972TIP3   OH230330   5.196   0.486   1.432  0.2782  0.2994  0.0033
 2972TIP3    H130331   5.149   0.523   1.358 -0.1659  0.8340  0.5485
 2972TIP3    H230332   5.288   0.486   1.405  0.0547 -0.1012 -0.7885
 2973TIP3   OH230333   0.431   5.221   2.093 -0.0058 -0.3182  0.7571
 2973TIP3    H130334   0.526   5.214   2.086  0.0985  0.3472  1.4170
 2973TIP3    H230335   0.413   5.219   2.187 -0.3855  2.4832  0.8288
 2974TIP3   OH230336   1.162   3.294  11.218 -0.0812  0.2936  0.0826
 2974TIP3    H130337   1.093   3.241  11.179  1.5295 -0.6039 -1.7657
 2974TIP3    H230338   1.117   3.370  11.255 -2.0895 -0.5636 -0.4636
 2975TIP3   OH230339   3.790   1.107   5.694 -0.7664 -0.0506  0.0391
 2975TIP3    H130340   3.783   1.030   5.749  0.8141 -0.4543 -0.2743
 2975TIP3    H230341   3.849   1.166   5.742  1.6472 -0.9123 -1.6838
 2976TIP3   OH230342   2.471   5.034  14.388  0.1464 -0.4032  0.3835
 2976TIP3    H130343   2.428   5.044  14.303  1.3862  0.2660 -0.1908
 2976TIP3    H230344   2.407   5.069  14.451 -0.1750  0.5584 -0.4451
 2977TIP3   OH230345   0.245   6.609   3.042  0.1213  0.1072 -0.0897
 2977TIP3    H130346   0.151   6.591   3.048  0.0255 -0.1064 -1.6533
 2977TIP3    H230347   0.264   6.663   3.118 -1.6340  1.5603 -0.5989
 2978TIP3   OH230348   4.461   6.052  15.999  0.2606  0.1750 -0.6947
 2978TIP3    H130349   4.368   6.065  15.982  0.5529  0.1297 -2.6015
 2978TIP3    H230350   4.464   5.994  16.075 -1.2560  0.4731 -0.3799
 2979TIP3   OH230351   6.627   4.921  14.380 -0.0015 -0.7272  0.4756
 2979TIP3    H130352   6.533   4.909  14.386  0.0122 -1.9306 -1.3428
 2979TIP3    H230353   6.659   4.847  14.329  1.6495  0.7610 -0.7992
 2980TIP3   OH230354   3.940   5.986  13.005 -0.9462 -0.0170  0.3415
 2980TIP3    H130355   3.895   6.002  12.922  0.8125 -1.0856 -0.8953
 2980TIP3    H230356   3.976   6.071  13.030  0.8544 -0.1645 -1.5058
 2981TIP3   OH230357   1.689   4.091  14.772 -0.0359  0.0943 -0.0501
 2981TIP3    H130358   1.712   4.172  14.727 -3.8418  1.0274 -0.6595
 2981TIP3    H230359   1.688   4.115  14.865  0.0173  0.4214 -0.1318
 2982TIP3   OH230360   5.180   4.610   5.094 -0.2634  0.1316 -0.0585
 2982TIP3    H130361   5.250   4.660   5.054 -0.5693  0.8999  0.3476
 2982TIP3    H230362   5.189   4.626   5.188 -0.6088 -0.2479  0.0434
 2983TIP3   OH230363   1.592   0.888   5.661 -0.2860 -0.0006  0.2024
 2983TIP3    H130364   1.553   0.975   5.667 -0.4297 -0.0459 -0.0601
 2983TIP3    H230365   1.546   0.846   5.589 -0.8703 -0.6279  0.9275
 2984TIP3   OH230366   2.640   5.343  10.965  0.4102 -0.0117  0.0251
 2984TIP3    H130367   2.626   5.356  10.871 -1.7244 -1.1556  0.1314
 2984TIP3    H230368   2.735   5.333  10.974  0.5470 -1.3496 -2.2109
 2985TIP3   OH230369   1.571   1.103  11.878 -0.7830  0.2220  0.3668
 2985TIP3    H130370   1.501   1.073  11.820  0.3694  1.4128 -1.7445
 2985TIP3    H230371   1.651   1.066  11.840  0.1744  2.2703  0.2656
 2986TIP3   OH230372   3.394   4.591  15.008 -0.5962  0.1528 -0.3024
 2986TIP3    H130373   3.314   4.574  15.057 -0.2650 -1.0838 -0.1703
 2986TIP3    H230374   3.365   4.596  14.916 -0.8194 -0.3722 -0.2662
 2987TIP3   OH230375   0.826   3.345  12.765  0.0706 -0.3243 -0.1035
 2987TIP3    H130376   0.820   3.340  12.670 -0.7300  1.4578 -0.1957
 2987TIP3    H230377   0.919   3.356  12.783  0.1670 -0.0409 -0.7393
 2988TIP3   OH230378   1.305   0.899  12.969  0.3427  0.2326 -0.3814
 2988TIP3    H130379   1.276   0.989  12.985 -1.9189 -0.5209 -0.0193
 2988TIP3    H230380   1.337   0.901  12.879  0.2159  1.3702 -0.4209
 2989TIP3   OH230381   1.093   3.038  14.720  0.6688  0.8318 -0.4267
 2989TIP3    H130382   1.163   2.972  14.722  1.2840  1.4639 -0.6198
 2989TIP3    H230383   1.068   3.043  14.628  1.6428  1.8963 -0.6611
 2990TIP3   OH230384   2.518   4.703   0.427 -1.0083 -0.2164  0.1594
 2990TIP3    H130385   2.461   4.731   0.499 -1.8865 -1.9580  0.2004
 2990TIP3    H230386   2.546   4.615   0.452  0.4839  0.0060 -0.6101
 2991TIP3   OH230387   0.547   6.085  10.688 -0.2529 -0.0385 -0.7785
 2991TIP3    H130388   0.586   6.016  10.742  0.2743  0.8522  0.0091
 2991TIP3    H230389   0.475   6.042  10.643 -0.8620 -0.7731  0.8227
 2992TIP3   OH230390   2.327   6.599  17.050 -0.4051  0.5371 -0.3588
 2992TIP3    H130391   2.379   6.605  17.130 -0.0061  0.3834 -0.6049
 2992TIP3    H230392   2.257   6.538  17.071  0.2294 -0.2236 -0.4110
 2993TIP3   OH230393   2.517   4.262  16.619  0.5197  0.0608 -0.0247
 2993TIP3    H130394   2.609   4.268  16.596  0.6779  0.7710  0.7590
 2993TIP3    H230395   2.514   4.274  16.714 -0.4260  0.6886 -0.1164
 2994TIP3   OH230396   5.138   5.865  13.545 -0.4635 -0.1197  0.2257
 2994TIP3    H130397   5.134   5.928  13.473  0.4571  0.2834  0.5096
 2994TIP3    H230398   5.134   5.779  13.502  2.7449  0.0257 -0.6213
 2995TIP3   OH230399   4.175   4.720  12.022 -0.4934 -0.2182  0.3208
 2995TIP3    H130400   4.128   4.711  12.105  1.3472 -2.4334  1.2515
 2995TIP3    H230401   4.143   4.647  11.968  0.4768 -0.6215  0.2701
 2996TIP3   OH230402   0.441   4.789   6.269  0.1645  0.5524  0.1724
 2996TIP3    H130403   0.412   4.705   6.304  1.4225 -0.1708 -0.4547
 2996TIP3    H230404   0.531   4.798   6.298  0.4985  1.0177 -0.9250
 2997TIP3   OH230405   4.008   4.277   0.815 -0.3668 -0.1463 -0.5135
 2997TIP3    H130406   3.918   4.307   0.829  0.3244  2.3831 -1.0139
 2997TIP3    H230407   4.038   4.326   0.739  1.0428 -1.9343 -1.1749
 2998TIP3   OH230408   0.794   3.109   0.329 -0.1932  0.3946  0.0959
 2998TIP3    H130409   0.752   3.190   0.300  0.1766  0.0396 -1.4849
 2998TIP3    H230410   0.863   3.093   0.265  0.1401 -0.8620  0.7371
 2999TIP3   OH230411   4.848   3.130  11.243 -0.1364 -0.7201 -0.3376
 2999TIP3    H130412   4.819   3.177  11.165  0.9154  0.6093  0.0410
 2999TIP3    H230413   4.893   3.052  11.209 -0.9328 -0.8976 -1.0035
 3000TIP3   OH230414   3.499   4.453  15.639 -0.2420  0.3789 -0.6743
 3000TIP3    H130415   3.589   4.484  15.650  0.0908 -0.2828 -1.4363
 3000TIP3    H230416   3.504   4.388  15.570 -1.0575 -0.7812  0.3068
 3001TIP3   OH230417   5.289   1.756   4.912 -0.6496 -0.1056 -0.5524
 3001TIP3    H130418   5.271   1.793   4.826 -1.8544 -1.6465 -1.0031
 3001TIP3    H230419   5.240   1.811   4.974  0.5724  1.2774 -0.7483
 3002TIP3   OH230420   6.294   1.740  13.320  0.3822  0.0527  0.5160
 3002TIP3    H130421   6.314   1.834  13.319  0.0528  0.1251 -0.3659
 3002TIP3    H230422   6.206   1.735  13.355  1.2830 -0.1506  2.9675
 3003TIP3   OH230423   1.116   1.215  15.979 -0.3872 -0.2746 -0.3690
 3003TIP3    H130424   1.177   1.206  15.905 -1.8735  1.0680 -1.8264
 3003TIP3    H230425   1.173   1.234  16.054  1.1102 -0.8947 -1.2910
 3004TIP3   OH230426   4.283   5.076   1.980 -0.1853 -0.0445 -0.3829
 3004TIP3    H130427   4.324   5.156   1.948 -1.1658  0.4886 -0.3334
 3004TIP3    H230428   4.199   5.104   2.015 -0.4036 -1.0521 -0.0644
 3005TIP3   OH230429   6.591   5.454  15.941  0.0736 -0.4234 -0.0618
 3005TIP3    H130430   6.674   5.488  15.906 -1.1892  1.3582 -1.4496
 3005TIP3    H230431   6.570   5.511  16.015  0.6879 -1.6826  1.1299
 3006TIP3   OH230432   4.260   0.844   5.545  0.0980  0.1702 -0.9002
 3006TIP3    H130433   4.194   0.788   5.586  1.3286 -1.0583 -0.5066
 3006TIP3    H230434   4.216   0.927   5.531 -0.5185  0.5693  2.5904
 3007TIP3   OH230435   3.703   0.637  13.241  0.7603  0.4267 -0.7911
 3007TIP3    H130436   3.706   0.679  13.327 -1.9640 -3.5656  1.5892
 3007TIP3    H230437   3.780   0.580  13.239 -0.5530 -1.5211  0.3977
 3008TIP3   OH230438   0.774   6.334  13.535  0.5153  0.2838  0.0838
 3008TIP3    H130439   0.797   6.281  13.612 -0.0688  0.8808  0.6877
 3008TIP3    H230440   0.833   6.409  13.539  0.4829  0.3156 -0.0468
 3009TIP3   OH230441   6.521   1.242  17.203  0.2948 -0.1831 -0.3649
 3009TIP3    H130442   6.481   1.313  17.152 -0.8879  0.7769  1.7710
 3009TIP3    H230443   6.473   1.164  17.175 -1.0644  0.4909 -0.0299
 3010TIP3   OH230444   1.496   6.552   5.562 -0.3782  0.1641 -0.1740
 3010TIP3    H130445   1.544   6.574   5.642 -1.4724 -2.4788  1.3342
 3010TIP3    H230446   1.467   6.637   5.528  2.8055  1.6535  0.3768
 3011TIP3   OH230447   2.141   4.758  13.989 -0.0184 -0.2620  0.1685
 3011TIP3    H130448   2.096   4.677  13.965 -1.7123  0.8651 -0.6599
 3011TIP3    H230449   2.138   4.760  14.084 -1.5170 -0.3907  0.1521
 3012TIP3   OH230450   1.428   3.640  14.154  0.4978  0.5651 -0.1841
 3012TIP3    H130451   1.373   3.711  14.121 -1.8810 -0.2866  1.6392
 3012TIP3    H230452   1.509   3.683  14.182  0.0949  2.1476 -1.3218
 3013TIP3   OH230453   1.089   2.057   3.693  0.1048 -0.0830  0.3994
 3013TIP3    H130454   1.175   2.064   3.653 -0.7996  1.9838 -1.4028
 3013TIP3    H230455   1.051   1.977   3.654  0.0116  0.8003 -1.4243
 3014TIP3   OH230456   0.800   4.262   0.237  0.0012  0.5754  0.3533
 3014TIP3    H130457   0.717   4.251   0.190 -0.0726 -0.2587  0.6575
 3014TIP3    H230458   0.809   4.356   0.249 -1.4377  0.6239  1.2627
 3015TIP3   OH230459   5.646   3.262   4.472 -0.0524 -0.1259 -0.3927
 3015TIP3    H130460   5.671   3.315   4.396  0.2129  0.3468  0.0181
 3015TIP3    H230461   5.580   3.202   4.438 -1.2385  1.2539 -0.6234
 3016TIP3   OH230462   1.206   4.037  14.974  0.1573  0.3626  0.3328
 3016TIP3    H130463   1.301   4.025  14.974  0.0109 -1.1940 -1.3289
 3016TIP3    H230464   1.173   3.970  15.033 -0.0009 -0.3076 -0.5000
 3017TIP3   OH230465   2.995   4.423   0.469  0.0020  0.5599 -0.9535
 3017TIP3    H130466   2.915   4.410   0.418 -0.9625  1.8965  0.1207
 3017TIP3    H230467   2.976   4.384   0.554  1.1404 -0.5896 -1.2063
 3018TIP3   OH230468   0.556   4.308   1.719  0.0763 -0.1965  0.4283
 3018TIP3    H130469   0.622   4.367   1.756 -0.1901 -0.3891  1.2434
 3018TIP3    H230470   0.524   4.354   1.642  0.6139  0.2512  0.4626
 3019TIP3   OH230471   4.411   6.754  12.020  0.3869 -0.3696 -0.3701
 3019TIP3    H130472   4.331   6.778  11.973  0.6508  0.2264 -0.5316
 3019TIP3    H230473   4.398   6.663  12.046 -0.8831  0.1090  0.7399
 3020TIP3   OH230474   2.812   4.327  14.372  0.1843 -0.0045  0.0126
 3020TIP3    H130475   2.877   4.365  14.430  1.3931 -1.4311 -0.3465
 3020TIP3    H230476   2.824   4.232  14.381  0.5094 -0.2952 -2.6401
 3021TIP3   OH230477   6.132   0.354   6.355  0.0945  0.5554  0.1379
 3021TIP3    H130478   6.170   0.269   6.377 -0.7405  0.3761  0.9262
 3021TIP3    H230479   6.165   0.413   6.423 -0.7822  0.4611  0.6551
 3022TIP3   OH230480   6.335   6.184   2.584 -0.0229  0.5641 -0.1665
 3022TIP3    H130481   6.369   6.209   2.670 -1.1405 -1.9197  1.1006
 3022TIP3    H230482   6.244   6.215   2.584 -0.4057 -0.5218  0.0860
 3023TIP3   OH230483   0.440   5.135   0.830 -0.1523  0.1280 -0.0835
 3023TIP3    H130484   0.403   5.048   0.810 -0.1476  0.4123 -1.4648
 3023TIP3    H230485   0.534   5.123   0.823 -0.1496  0.2272 -0.2290
 3024TIP3   OH230486   2.469   3.738   4.281 -0.2376  0.3180 -0.5870
 3024TIP3    H130487   2.496   3.705   4.196  1.7527  1.1081 -0.3189
 3024TIP3    H230488   2.429   3.823   4.262  1.4620  1.1399 -0.6670
 3025TIP3   OH230489   1.331   2.889   2.402  0.4572  0.2965  0.1865
 3025TIP3    H130490   1.304   2.817   2.346 -0.1879  0.7235 -0.0685
 3025TIP3    H230491   1.398   2.852   2.459 -0.9939 -0.9686  1.1749
 3026TIP3   OH230492   6.225   2.389  16.229 -0.5029  0.2333  0.0830
 3026TIP3    H130493   6.163   2.365  16.161  0.0217 -0.2304 -0.2506
 3026TIP3    H230494   6.285   2.450  16.187  0.5999 -1.0472 -0.2818
 3027TIP3   OH230495   6.136   3.951  11.781  0.5585  0.2053 -0.2962
 3027TIP3    H130496   6.195   3.880  11.806  0.3994 -0.3349 -1.3964
 3027TIP3    H230497   6.191   4.030  11.781  0.8371  0.0123  0.4976
 3028TIP3   OH230498   4.680   3.846   6.459  0.1999 -0.1262 -0.3555
 3028TIP3    H130499   4.646   3.907   6.393  0.3657  1.2785  0.8190
 3028TIP3    H230500   4.774   3.862   6.461  0.2586 -0.4789 -0.0725
 3029TIP3   OH230501   4.062   6.584  13.580  0.1239  0.0468  0.1342
 3029TIP3    H130502   4.064   6.488  13.570 -1.3092  0.0797 -0.6196
 3029TIP3    H230503   4.123   6.601  13.652  0.6127 -1.4058  0.1083
 3030TIP3   OH230504   6.786   4.125  11.759 -0.1565  0.0891 -0.2872
 3030TIP3    H130505   6.832   4.150  11.839  0.8618  1.5790 -1.2928
 3030TIP3    H230506   6.732   4.051  11.785  1.6250 -0.7241  1.3102
 3031TIP3   OH230507   1.001   4.072  12.297 -0.0141 -0.1346  0.5215
 3031TIP3    H130508   0.992   3.979  12.275 -1.5853  0.3317 -1.0491
 3031TIP3    H230509   0.915   4.096  12.331  1.1460  0.1831  3.4905
 3032TIP3   OH230510   3.739   2.306   3.350 -0.3919  0.0667 -0.2505
 3032TIP3    H130511   3.834   2.298   3.353 -0.4014 -0.9316 -1.5581
 3032TIP3    H230512   3.708   2.254   3.424  0.0877  0.9014  0.5459
 3033TIP3   OH230513   6.417   3.926   2.843 -0.0861  0.0224 -0.3157
 3033TIP3    H130514   6.414   3.867   2.918 -0.4191 -1.5644 -1.5355
 3033TIP3    H230515   6.330   3.922   2.804  0.2982  0.2305 -1.2352
 3034TIP3   OH230516   3.286   4.643  14.470  0.0168  0.0602  0.6324
 3034TIP3    H130517   3.328   4.698  14.403 -1.3136 -0.2168 -0.4704
 3034TIP3    H230518   3.195   4.670  14.470 -0.6522 -2.0382  0.1367
 3035TIP3   OH230519   6.617   0.842   3.698  0.5172  0.2778 -0.0114
 3035TIP3    H130520   6.581   0.928   3.719  1.2758  0.2611  1.5289
 3035TIP3    H230521   6.697   0.862   3.649  0.0169  0.4002 -0.7914
 3036TIP3   OH230522   4.280   3.092  11.336 -0.0682 -0.4784  0.3392
 3036TIP3    H130523   4.346   3.024  11.349 -1.7339 -2.0649  0.9180
 3036TIP3    H230524   4.225   3.059  11.265 -0.5147  0.5787  0.1746
 3037TIP3   OH230525   0.110   0.933   4.967 -0.5289 -0.4015  0.5313
 3037TIP3    H130526   0.080   0.966   5.052 -2.0434 -1.9408  0.6281
 3037TIP3    H230527   0.077   0.844   4.962  0.0056 -0.5363 -1.4551
 3038TIP3   OH230528   5.306   5.142   2.852  0.1798 -0.4301  0.2840
 3038TIP3    H130529   5.231   5.183   2.895 -0.1038  0.8997 -1.3520
 3038TIP3    H230530   5.268   5.081   2.789  0.2322  2.0286 -2.3387
 3039TIP3   OH230531   6.667   1.706   3.079 -0.2258 -0.1156  0.3971
 3039TIP3    H130532   6.738   1.766   3.102 -0.7922  0.3952  0.8401
 3039TIP3    H230533   6.697   1.664   2.999  0.5929  0.0692  0.5919
 3040TIP3   OH230534   5.722   3.969  12.869 -0.1079  0.3742  0.2186
 3040TIP3    H130535   5.640   3.929  12.901  0.5525  1.3924  3.5957
 3040TIP3    H230536   5.718   4.059  12.901  2.1316  0.5494  0.1023
 3041TIP3   OH230537   4.448   6.529  11.125  0.0047  0.3718 -0.4135
 3041TIP3    H130538   4.419   6.511  11.036 -2.2631  1.4901  0.0360
 3041TIP3    H230539   4.428   6.448  11.173 -0.4975  0.4199 -0.5378
 3042TIP3   OH230540   3.906   3.722  12.994 -0.6279 -0.2745 -0.0899
 3042TIP3    H130541   3.944   3.801  13.032 -3.7473  0.0473  2.9080
 3042TIP3    H230542   3.960   3.651  13.027  0.6932  0.4031 -0.7168
 3043TIP3   OH230543   2.180   1.408   0.547 -0.2158  0.1575 -0.2877
 3043TIP3    H130544   2.214   1.436   0.462  0.4756  0.0118 -0.0605
 3043TIP3    H230545   2.119   1.478   0.572 -1.7313 -0.6003 -1.6646
 3044TIP3   OH230546   2.468   4.317  16.884  0.1027 -0.1765 -0.7507
 3044TIP3    H130547   2.506   4.233  16.910  2.5787  1.3154  0.9426
 3044TIP3    H230548   2.378   4.314  16.917 -0.4805 -2.7293 -2.2569
 3045TIP3   OH230549   4.721   0.780   2.728 -0.6460 -0.4552  0.6573
 3045TIP3    H130550   4.794   0.841   2.715 -0.3873 -0.8377  0.2747
 3045TIP3    H230551   4.699   0.788   2.821  0.2697 -0.7635  0.9072
 3046TIP3   OH230552   1.381   3.351   3.399  0.0450  0.0778  0.1629
 3046TIP3    H130553   1.409   3.288   3.332  0.0481 -1.1449  1.2828
 3046TIP3    H230554   1.396   3.306   3.482 -2.6503  0.4506  0.9262
 3047TIP3   OH230555   0.884   0.965   5.239  0.3071 -0.2391 -0.0624
 3047TIP3    H130556   0.846   0.956   5.152 -1.4262 -0.1182  0.6458
 3047TIP3    H230557   0.820   1.018   5.288  2.1991  1.4821  0.7044
 3048TIP3   OH230558   1.382   2.957  11.322 -0.0208  0.3921 -0.7258
 3048TIP3    H130559   1.397   3.046  11.352  0.4223  0.4220 -1.0221
 3048TIP3    H230560   1.295   2.959  11.283 -1.3724 -0.0518  2.0426
 3049TIP3   OH230561   2.571   0.595   1.334  0.0578  0.2455  0.5848
 3049TIP3    H130562   2.519   0.551   1.267  1.0213  1.8475 -1.3292
 3049TIP3    H230563   2.646   0.538   1.348 -1.1686 -1.1308  1.9426
 3050TIP3   OH230564   4.220   3.650  13.941  0.2190  0.6158 -0.5190
 3050TIP3    H130565   4.249   3.561  13.923  3.1859  1.4145 -0.1091
 3050TIP3    H230566   4.218   3.656  14.037  1.2489  1.3209 -0.5271
 3051TIP3   OH230567   0.671   3.785   0.581  0.0633  0.1190 -0.5839
 3051TIP3    H130568   0.621   3.783   0.500  0.0944  1.8670 -0.6966
 3051TIP3    H230569   0.664   3.697   0.617 -2.6887  0.1561 -0.8451
 3052TIP3   OH230570   2.399   2.856   3.810 -0.0050  0.5763 -0.1629
 3052TIP3    H130571   2.493   2.856   3.789  0.0578  0.4682  0.1060
 3052TIP3    H230572   2.391   2.919   3.882 -0.2570  1.1470 -0.6850
 3053TIP3   OH230573   1.876   3.928  17.006  0.3829  0.0744 -0.3263
 3053TIP3    H130574   1.915   3.841  17.009 -0.9126 -0.5357 -0.5841
 3053TIP3    H230575   1.950   3.987  16.990  1.1122 -1.0978 -1.4969
 3054TIP3   OH230576   4.573   5.882   1.568  0.4712 -0.0780  0.1867
 3054TIP3    H130577   4.586   5.973   1.540  0.6274 -0.7075 -1.9201
 3054TIP3    H230578   4.640   5.869   1.635  0.0721  1.5138  0.9622
 3055TIP3   OH230579   6.757   1.554  12.317 -0.2115 -0.2381  0.4615
 3055TIP3    H130580   6.701   1.546  12.394  0.3090 -1.2118  0.7500
 3055TIP3    H230581   6.839   1.590  12.351 -0.1545 -0.1926  0.2790
 3056TIP3   OH230582   2.714   2.127   1.528  0.0353 -0.4190 -0.5138
 3056TIP3    H130583   2.638   2.109   1.472  0.2937 -0.7965 -0.7478
 3056TIP3    H230584   2.757   2.042   1.538 -0.9552 -0.7309  1.6694
 3057TIP3   OH230585   0.501   6.716  14.303  0.5763  0.1511 -0.0059
 3057TIP3    H130586   0.428   6.777  14.305  0.3085 -0.1083 -1.1772
 3057TIP3    H230587   0.486   6.658  14.378  0.3941  1.0117  0.6268
 3058TIP3   OH230588   0.789   4.102  12.028 -0.4226  0.0621 -0.1613
 3058TIP3    H130589   0.794   4.027  12.088 -2.3254 -0.1810 -0.2359
 3058TIP3    H230590   0.765   4.064  11.944  0.0686  0.6245 -0.5659
 3059TIP3   OH230591   0.747   6.218   5.458  0.3120  0.0702 -0.4002
 3059TIP3    H130592   0.708   6.290   5.407  0.7777  1.0212  0.5404
 3059TIP3    H230593   0.761   6.148   5.394  2.6645  1.8996 -2.0554
 3060TIP3   OH230594   1.452   4.319   0.037  0.2377  0.4163  0.6339
 3060TIP3    H130595   1.527   4.339  -0.020 -0.7962  0.1440 -0.8779
 3060TIP3    H230596   1.491   4.308   0.123  1.7478  1.8375  0.1997
 3061TIP3   OH230597   2.449   6.587   2.752  0.1358 -0.5966  0.2695
 3061TIP3    H130598   2.496   6.555   2.675  0.3358 -0.0864  0.1776
 3061TIP3    H230599   2.517   6.617   2.812 -0.0526 -0.0528  0.2223
 3062TIP3   OH230600   3.376   0.181  10.697 -0.1076  0.6360 -0.0635
 3062TIP3    H130601   3.352   0.109  10.638  1.6182 -0.3910  0.4186
 3062TIP3    H230602   3.436   0.235  10.646  3.6492 -1.7699  1.4619
 3063TIP3   OH230603   5.240   5.433  11.630 -0.1829  0.4784  0.3196
 3063TIP3    H130604   5.325   5.400  11.602 -0.5567 -2.6184  2.3940
 3063TIP3    H230605   5.260   5.491  11.704  0.1979  1.3660 -0.4575
 3064TIP3   OH230606   2.015   1.437   2.266 -0.2388  0.0026 -0.4978
 3064TIP3    H130607   2.020   1.447   2.171  0.4081  1.5703 -0.3299
 3064TIP3    H230608   2.106   1.427   2.294 -0.3394  0.5117  0.0388
 3065TIP3   OH230609   6.182   1.645  16.744  0.3557 -0.1963  0.2189
 3065TIP3    H130610   6.212   1.702  16.815 -0.1965 -0.9965  1.1290
 3065TIP3    H230611   6.216   1.558  16.768  1.1863 -0.2801 -1.1318
 3066TIP3   OH230612   6.507   4.031  17.066  0.4253 -0.1900  0.1260
 3066TIP3    H130613   6.487   3.944  17.100 -0.8928  0.7356  1.9178
 3066TIP3    H230614   6.421   4.068  17.045  0.9146  0.9170  0.0198
 3067TIP3   OH230615   3.967   5.074   0.635 -0.0914 -0.2879  0.3184
 3067TIP3    H130616   3.899   5.133   0.604  1.7715  2.0479  0.4439
 3067TIP3    H230617   3.930   5.035   0.714 -1.0503  1.4480  0.7835
 3068TIP3   OH230618   4.800   5.276  16.483  0.1062 -0.4416 -0.3190
 3068TIP3    H130619   4.789   5.245  16.573  1.7892 -0.9027 -0.2323
 3068TIP3    H230620   4.784   5.370  16.487  0.6702 -0.3725  0.5748
 3069TIP3   OH230621   0.466   2.641  14.292  0.6542 -0.0705 -0.2005
 3069TIP3    H130622   0.474   2.666  14.384  0.9531 -1.3485  0.1352
 3069TIP3    H230623   0.547   2.594  14.273 -0.2645 -1.5654 -0.5360
 3070TIP3   OH230624   0.362   2.098  13.992 -0.3026 -1.1701 -0.1346
 3070TIP3    H130625   0.274   2.078  13.959 -1.5050 -0.0149  2.1913
 3070TIP3    H230626   0.362   2.192  14.006  1.2781 -1.1690  0.0837
 3071TIP3   OH230627   4.725   0.622  10.759 -0.6873  0.2525  0.5514
 3071TIP3    H130628   4.720   0.667  10.674  0.2408  0.0140  0.3607
 3071TIP3    H230629   4.634   0.608  10.784 -0.9801 -0.3215 -0.7515
 3072TIP3   OH230630   0.149   4.193  12.632  0.0382  0.0434 -0.6176
 3072TIP3    H130631   0.210   4.120  12.618  0.1554 -0.0620  0.3835
 3072TIP3    H230632   0.068   4.152  12.661  0.4721  0.3684  1.1204
 3073TIP3   OH230633   4.353   1.102  16.456 -0.4255  0.6384  0.8452
 3073TIP3    H130634   4.348   1.192  16.425  1.4803  0.9195  1.1790
 3073TIP3    H230635   4.405   1.056  16.390 -3.3857 -0.9200 -0.6103
 3074TIP3   OH230636   5.187   1.874   4.630 -0.6606  0.1971 -0.2548
 3074TIP3    H130637   5.259   1.898   4.687 -0.1973  0.6464 -1.0087
 3074TIP3    H230638   5.211   1.909   4.544 -1.6693  0.1669 -0.5707
 3075TIP3   OH230639   4.193   2.349  14.394 -0.7745 -0.2461  0.7841
 3075TIP3    H130640   4.255   2.410  14.434 -0.9082 -0.7073  1.7166
 3075TIP3    H230641   4.248   2.293  14.339 -0.5009 -0.0280  0.8298
 3076TIP3   OH230642   1.114   6.511  11.915 -0.5062  0.1159  0.3430
 3076TIP3    H130643   1.167   6.432  11.907 -1.7404 -0.7883  0.6926
 3076TIP3    H230644   1.169   6.571  11.966  1.6813  0.6963 -2.4713
 3077TIP3   OH230645   2.043   4.828   3.332  0.8760 -0.4090  0.0533
 3077TIP3    H130646   2.103   4.839   3.259 -0.1490  0.9044 -0.6530
 3077TIP3    H230647   2.083   4.878   3.403  0.8802  0.0311 -0.2542
 3078TIP3   OH230648   3.303   4.720  11.644 -0.1179 -1.5222  0.1230
 3078TIP3    H130649   3.355   4.797  11.665 -1.6058 -0.7241  1.0863
 3078TIP3    H230650   3.288   4.726  11.550 -0.3194 -0.5598  0.2082
 3079TIP3   OH230651   0.003   0.233   0.968  0.0657  0.4062 -0.0519
 3079TIP3    H130652   0.060   0.297   1.013  1.4004  0.5624 -1.8581
 3079TIP3    H230653  -0.020   0.170   1.036  4.9001 -1.3964  0.3278
 3080TIP3   OH230654   2.286   6.534   2.971 -0.2090 -0.4724 -0.1853
 3080TIP3    H130655   2.337   6.521   2.891  0.0169 -0.2573 -0.0789
 3080TIP3    H230656   2.207   6.581   2.942  0.8563  1.5601 -0.0034
 3081TIP3   OH230657   4.138   3.893  15.011 -0.2135  0.0713  0.4147
 3081TIP3    H130658   4.219   3.853  14.978 -0.1641  0.1329  0.4595
 3081TIP3    H230659   4.132   3.976  14.964  0.2071  0.4591  1.0341
 3082TIP3   OH230660   5.548   0.994   5.737 -0.6841 -0.5952  0.2391
 3082TIP3    H130661   5.640   0.991   5.764 -0.1517 -1.9689 -1.5224
 3082TIP3    H230662   5.499   0.995   5.819  0.8636  1.9168  1.2538
 3083TIP3   OH230663   1.502   4.690  16.017 -0.2353  0.2437  0.3453
 3083TIP3    H130664   1.432   4.701  15.953 -1.0376 -0.6716  1.0238
 3083TIP3    H230665   1.478   4.750  16.088  0.2670  0.7289  0.1130
 3084TIP3   OH230666   4.400   5.739   1.066 -0.4574 -0.7203  0.0136
 3084TIP3    H130667   4.356   5.804   1.011  0.0060 -1.0773 -0.8056
 3084TIP3    H230668   4.408   5.781   1.152  0.9359  0.8236 -0.7999
 3085TIP3   OH230669   5.492   4.614   0.217 -0.2600 -0.5505 -0.4674
 3085TIP3    H130670   5.426   4.586   0.280  0.3145  0.2717  0.5422
 3085TIP3    H230671   5.502   4.540   0.158 -1.2729 -1.1070  0.0269
 3086TIP3   OH230672   6.414   0.816  15.066 -0.2837 -0.5925  0.3158
 3086TIP3    H130673   6.493   0.763  15.060  2.0122  2.2944  2.0277
 3086TIP3    H230674   6.370   0.785  15.145  0.8326 -0.2793  1.0889
 3087TIP3   OH230675   0.050   1.731   2.323 -0.2127 -0.5188 -0.8765
 3087TIP3    H130676  -0.038   1.767   2.313  0.0247  0.8853  1.3381
 3087TIP3    H230677   0.107   1.807   2.336  0.8885 -1.4843  0.3735
 3088TIP3   OH230678   2.539   5.123   3.257  0.3250 -0.7349  0.3599
 3088TIP3    H130679   2.466   5.080   3.303 -0.3148 -2.0873 -1.7962
 3088TIP3    H230680   2.498   5.198   3.213  0.8701  0.3421  1.6178
 3089TIP3   OH230681   6.334   1.878   1.449  0.4596 -0.2591 -0.2422
 3089TIP3    H130682   6.379   1.898   1.367 -0.6019  0.2995 -0.7070
 3089TIP3    H230683   6.269   1.948   1.458 -0.4343 -1.1346  0.3135
 3090TIP3   OH230684   3.532   0.504   3.591 -0.1911  0.1033  0.0330
 3090TIP3    H130685   3.610   0.557   3.606  0.6953 -1.5041  1.2951
 3090TIP3    H230686   3.505   0.474   3.678 -2.6051  1.0764 -0.2783
 3091TIP3   OH230687   2.896   6.144  14.500  0.2512 -0.4088  0.4225
 3091TIP3    H130688   2.862   6.080  14.437  2.5203 -0.4386 -0.9120
 3091TIP3    H230689   2.933   6.091  14.570  1.3151 -0.5672 -0.2362
 3092TIP3   OH230690   1.818   0.559   3.721 -0.8456 -0.0059  0.6809
 3092TIP3    H130691   1.838   0.653   3.717 -0.6612 -0.1028 -2.0918
 3092TIP3    H230692   1.904   0.517   3.732 -0.9005  0.0984  1.6237
 3093TIP3   OH230693   5.168   4.389  13.228 -0.6055  0.1607 -0.4087
 3093TIP3    H130694   5.102   4.383  13.159 -1.4641 -0.8656  0.4623
 3093TIP3    H230695   5.204   4.300  13.236 -0.5329  0.2509  0.4697
 3094TIP3   OH230696   5.242   5.191   1.174 -0.2957 -0.5011  0.1525
 3094TIP3    H130697   5.156   5.157   1.153 -0.5621 -0.4425  1.0963
 3094TIP3    H230698   5.298   5.114   1.179 -0.2119 -0.5147 -0.7546
 3095TIP3   OH230699   1.907   5.911  15.303 -0.1074  0.1879  0.4914
 3095TIP3    H130700   1.996   5.878  15.289 -0.1840 -0.2602  1.0476
 3095TIP3    H230701   1.918   5.986  15.361 -0.2478 -1.0009  2.1184
 3096TIP3   OH230702   0.783   2.111   5.319 -0.3721  0.4255 -0.5922
 3096TIP3    H130703   0.721   2.045   5.287  0.8039 -1.3887  0.6682
 3096TIP3    H230704   0.868   2.082   5.286  0.0900  1.7252 -0.5991
 3097TIP3   OH230705   2.958   6.379  15.835  0.3130 -0.4288 -0.0173
 3097TIP3    H130706   2.978   6.341  15.921  0.4823  0.2853  0.2669
 3097TIP3    H230707   2.907   6.458  15.855 -0.2328 -0.6251 -0.6083
 3098TIP3   OH230708   3.691   2.462  12.067 -0.3946  0.0865 -0.2572
 3098TIP3    H130709   3.620   2.502  12.116 -0.5444  0.8089 -1.0491
 3098TIP3    H230710   3.709   2.523  11.995  0.6828 -0.3273 -0.3613
 3099TIP3   OH230711   0.684   3.292   6.317  0.0993 -0.2973  0.0007
 3099TIP3    H130712   0.758   3.251   6.273 -0.0383  0.8027 -1.3346
 3099TIP3    H230713   0.611   3.232   6.301 -0.0478  0.2824 -1.7229
 3100TIP3   OH230714   0.294   0.528  16.123 -0.0915  0.3172  0.4563
 3100TIP3    H130715   0.282   0.463  16.192 -2.6884  1.3222  1.0664
 3100TIP3    H230716   0.349   0.595  16.164 -1.3442  0.7528  1.5153
 3101TIP3   OH230717   4.150   2.031  16.051  0.7493  0.3987  0.0198
 3101TIP3    H130718   4.066   2.039  16.097  0.4585 -1.3030 -0.1454
 3101TIP3    H230719   4.181   2.121  16.042 -1.3858  1.1318 -0.5312
 3102TIP3   OH230720   6.786   0.643   4.205 -0.0643 -0.3418 -0.3775
 3102TIP3    H130721   6.791   0.703   4.131  0.3649 -1.3260 -1.1677
 3102TIP3    H230722   6.860   0.668   4.260 -0.0947  0.0745 -0.5176
 3103TIP3   OH230723   0.211   3.590  11.634 -0.7201  0.3756 -0.0008
 3103TIP3    H130724   0.126   3.558  11.603 -0.4244  0.5469 -1.0119
 3103TIP3    H230725   0.198   3.683  11.649 -0.3498  0.7001 -1.5351
 3104TIP3   OH230726   2.451   2.664  10.691  0.0039 -0.0010  0.1378
 3104TIP3    H130727   2.431   2.674  10.784  1.4585 -3.2561  0.9575
 3104TIP3    H230728   2.368   2.637  10.652  0.1916 -2.8183  1.4193
 3105TIP3   OH230729   6.774   3.300  16.141 -0.1922  0.2915 -0.0776
 3105TIP3    H130730   6.829   3.327  16.214 -1.3386  1.1880  0.4782
 3105TIP3    H230731   6.685   3.313  16.172 -0.7110 -0.2837 -1.2811
 3106TIP3   OH230732   5.916   0.816  11.955  0.0546 -0.2197  0.1760
 3106TIP3    H130733   5.853   0.789  11.888 -0.1430  0.0395  0.2543
 3106TIP3    H230734   5.863   0.828  12.034 -0.3564  2.8620 -0.4278
 3107TIP3   OH230735   3.564   6.263   2.338 -0.0220  0.4252  0.0707
 3107TIP3    H130736   3.632   6.257   2.272 -0.9829 -1.6174 -0.8113
 3107TIP3    H230737   3.537   6.355   2.337  0.2979  0.5379 -2.0789
 3108TIP3   OH230738   4.084   0.782   3.556  0.2106  0.0106 -0.5657
 3108TIP3    H130739   4.037   0.865   3.555  0.6779  0.2767 -1.2279
 3108TIP3    H230740   4.058   0.739   3.475  0.4236 -0.2300 -0.5055
 3109TIP3   OH230741   2.952   6.435  13.166 -0.6101 -0.5075  0.6089
 3109TIP3    H130742   3.018   6.497  13.134 -1.0502  0.5991  1.7737
 3109TIP3    H230743   2.993   6.349  13.153 -0.3094 -0.0754 -1.7738
 3110TIP3   OH230744   5.531   0.224  13.214  0.6401 -0.0607  0.9589
 3110TIP3    H130745   5.603   0.201  13.156  0.1158  0.1315  0.2168
 3110TIP3    H230746   5.483   0.292  13.168 -0.5355 -0.8070  1.0203
 3111TIP3   OH230747   5.826   5.221  11.866 -0.0773 -0.7813  0.0897
 3111TIP3    H130748   5.863   5.164  11.799 -0.8480 -0.4629 -0.6164
 3111TIP3    H230749   5.899   5.278  11.892 -0.4157  1.0465 -2.5551
 3112TIP3   OH230750   1.728   0.616   3.469  0.2947 -0.1370  0.2886
 3112TIP3    H130751   1.633   0.603   3.475  0.3367  0.0476  1.7753
 3112TIP3    H230752   1.760   0.600   3.558  1.5055  1.0151  0.0914
 3113TIP3   OH230753   1.816   4.154   6.159 -0.0618 -0.4574 -0.2252
 3113TIP3    H130754   1.721   4.164   6.152 -0.1089  0.2842  1.1236
 3113TIP3    H230755   1.830   4.062   6.181 -0.4684 -0.5488 -0.3469
 3114TIP3   OH230756   5.082   3.316  16.889  0.0932  0.2660 -0.1503
 3114TIP3    H130757   5.001   3.352  16.926  1.0070  0.5160  1.7167
 3114TIP3    H230758   5.070   3.221  16.893 -0.1584  0.3017  0.0033
 3115TIP3   OH230759   0.726   0.378  12.401  0.2643  0.1931  0.8175
 3115TIP3    H130760   0.754   0.323  12.328  2.6773  0.3248  1.5761
 3115TIP3    H230761   0.705   0.316  12.471  0.5773  0.1527  0.8766
 3116TIP3   OH230762   4.669   3.710   3.283 -0.0672 -0.1802 -0.1552
 3116TIP3    H130763   4.692   3.630   3.237 -1.5316 -0.3455 -0.6478
 3116TIP3    H230764   4.699   3.781   3.226  1.8729 -0.3248  0.6080
 3117TIP3   OH230765   2.436   2.527  13.203  0.2496  0.2819 -0.0385
 3117TIP3    H130766   2.520   2.536  13.159  0.5782 -0.0981  0.4852
 3117TIP3    H230767   2.439   2.591  13.274  0.7279 -0.7395  0.9004
 3118TIP3   OH230768   1.545   5.990  16.772 -0.5010 -0.6721 -0.1397
 3118TIP3    H130769   1.529   5.896  16.775 -1.2348 -0.5338  2.6278
 3118TIP3    H230770   1.626   6.003  16.821 -2.6182  0.3953  3.4416
 3119TIP3   OH230771   3.346   5.545   5.294 -0.0410  0.0893 -0.2097
 3119TIP3    H130772   3.349   5.635   5.261 -0.3926 -0.0833 -0.7362
 3119TIP3    H230773   3.420   5.539   5.354  0.2460  0.6011 -0.5005
 3120TIP3   OH230774   4.900   1.875  17.185 -0.0193  0.2806 -0.1494
 3120TIP3    H130775   4.929   1.786  17.205 -2.0920 -1.1572 -2.7826
 3120TIP3    H230776   4.907   1.922  17.268  1.3135 -2.2669  1.3077
 3121TIP3   OH230777   4.271   0.461  12.620  0.2324 -0.1712  0.0704
 3121TIP3    H130778   4.328   0.491  12.549  0.4125  0.2399  0.3927
 3121TIP3    H230779   4.188   0.505  12.604  0.3490  0.1179  0.2602
 3122TIP3   OH230780   6.719   0.322   2.871 -0.4719 -0.5232  0.2315
 3122TIP3    H130781   6.682   0.406   2.899  0.3867  0.2147 -0.8014
 3122TIP3    H230782   6.645   0.275   2.833 -1.4839 -1.1974  2.8042
 3123TIP3   OH230783   5.551   5.242  13.751  0.6680  0.4258  0.5031
 3123TIP3    H130784   5.560   5.263  13.658  0.4606 -0.6856  0.2228
 3123TIP3    H230785   5.498   5.163  13.753  0.1764  0.7645  1.6057
 3124TIP3   OH230786   5.286   4.104  10.754 -0.4648 -0.8549 -0.2753
 3124TIP3    H130787   5.373   4.076  10.725  0.6574  0.4254  1.6750
 3124TIP3    H230788   5.267   4.182  10.703  0.6113  0.2275  0.9231
 3125TIP3   OH230789   5.014   2.972  11.924  0.2233 -0.0514  0.1309
 3125TIP3    H130790   4.980   2.907  11.863 -1.7290  1.5274 -0.5665
 3125TIP3    H230791   5.109   2.967  11.912  0.0086 -1.1397 -1.6085
 3126TIP3   OH230792   1.609   2.206   2.658  0.2538  0.3896  0.4317
 3126TIP3    H130793   1.516   2.214   2.639  0.1597  2.3324  1.4407
 3126TIP3    H230794   1.647   2.289   2.628  1.2821  0.4975  1.9130
 3127TIP3   OH230795   2.205   4.512  16.249 -0.5164  0.2554 -0.8586
 3127TIP3    H130796   2.221   4.450  16.321 -1.3319 -0.1030 -0.9687
 3127TIP3    H230797   2.110   4.511  16.239 -0.3892  0.0443 -2.1732
 3128TIP3   OH230798   0.325   5.231   5.131  0.7142 -0.1538 -0.1325
 3128TIP3    H130799   0.403   5.178   5.150  0.6011 -0.3554 -0.2378
 3128TIP3    H230800   0.262   5.170   5.095 -0.3686 -0.4929  2.1780
 3129TIP3   OH230801   0.373   3.439   6.851  0.1594 -0.0740 -0.3472
 3129TIP3    H130802   0.438   3.379   6.815  1.5744  0.2952  1.4046
 3129TIP3    H230803   0.325   3.387   6.915 -0.5280 -0.0496 -0.8377
 3130TIP3   OH230804   1.589   4.312  16.546 -0.1936 -0.4823  0.0088
 3130TIP3    H130805   1.614   4.223  16.570  0.9190 -0.4915 -1.0208
 3130TIP3    H230806   1.496   4.307  16.525 -0.2614 -1.2831  0.4908
 3131TIP3   OH230807   3.286   2.142  15.568  0.0208  1.0678  0.4898
 3131TIP3    H130808   3.375   2.140  15.532  0.2751 -0.2066  1.1211
 3131TIP3    H230809   3.247   2.059  15.539 -0.1089  0.4700  2.2507
 3132TIP3   OH230810   2.622   4.036  16.890  0.0774 -0.5514  0.3037
 3132TIP3    H130811   2.557   3.970  16.867 -0.7921  0.3227  0.2045
 3132TIP3    H230812   2.661   4.003  16.971  0.1748 -1.5385 -0.1259
 3133TIP3   OH230813   4.608   5.506   4.893  0.2823 -0.8893  0.3195
 3133TIP3    H130814   4.519   5.494   4.858 -0.5126 -1.4080  2.3489
 3133TIP3    H230815   4.594   5.524   4.986  2.2279  1.2311  0.2673
 3134TIP3   OH230816   2.651   1.963   2.173 -0.2064 -0.1162  0.2329
 3134TIP3    H130817   2.650   2.054   2.143  0.4945 -0.7052 -1.6799
 3134TIP3    H230818   2.563   1.949   2.210 -0.0540  1.5527  1.3365
 3135TIP3   OH230819   2.546   5.432  14.910 -0.0107 -0.1811 -0.0855
 3135TIP3    H130820   2.568   5.519  14.875  1.8534 -0.0193  1.3280
 3135TIP3    H230821   2.528   5.447  15.002  1.1014 -1.3578  0.3610
 3136TIP3   OH230822   1.920   1.745  12.318  0.3214 -0.8660 -0.4422
 3136TIP3    H130823   1.901   1.706  12.233 -3.2713 -0.7756  0.1922
 3136TIP3    H230824   1.857   1.816  12.327  2.7178  1.2623  1.0168
 3137TIP3   OH230825   1.024   3.210  13.544  0.0466  0.0334  0.5524
 3137TIP3    H130826   1.108   3.230  13.586  0.8280 -1.4890 -0.2270
 3137TIP3    H230827   1.047   3.180  13.457 -1.4219  0.9713 -0.2000
 3138TIP3   OH230828   5.471   2.246  14.418  0.5946  0.1849 -0.9289
 3138TIP3    H130829   5.378   2.225  14.421  0.0308  2.4620 -0.2194
 3138TIP3    H230830   5.474   2.332  14.376  2.4443 -0.0513 -1.3543
 3139TIP3   OH230831   4.144   5.408  11.148  0.6209  0.2607 -0.6810
 3139TIP3    H130832   4.150   5.331  11.204 -0.2647  0.0992 -0.7961
 3139TIP3    H230833   4.233   5.419  11.113  1.4976  1.0384  1.6118
 3140TIP3   OH230834   1.845   5.393  12.076 -0.5263  0.2984 -0.4275
 3140TIP3    H130835   1.933   5.402  12.113 -1.1500 -3.2987  2.5425
 3140TIP3    H230836   1.793   5.459  12.122 -0.0491  0.0004  0.5651
 3141TIP3   OH230837   5.853   1.651   6.520  0.0468 -0.1267 -0.5139
 3141TIP3    H130838   5.895   1.594   6.455 -0.5892 -0.6744 -0.4552
 3141TIP3    H230839   5.923   1.673   6.581  0.0164 -2.0670  0.3134
 3142TIP3   OH230840   4.156   3.832  11.799 -0.6252 -0.3296 -0.4436
 3142TIP3    H130841   4.121   3.824  11.710 -1.3492 -0.1072 -0.1852
 3142TIP3    H230842   4.246   3.802  11.791 -0.8317 -0.8132 -1.1545
 3143TIP3   OH230843   2.862   0.562  14.536 -0.0383  0.2377  0.1764
 3143TIP3    H130844   2.907   0.622  14.595  0.9176  0.1561 -0.4466
 3143TIP3    H230845   2.838   0.616  14.460  0.5229 -0.0667 -0.2328
 3144TIP3   OH230846   4.108   3.343  16.706  0.2797 -0.2185  0.2616
 3144TIP3    H130847   4.095   3.299  16.622  2.5863  0.5160 -0.5489
 3144TIP3    H230848   4.076   3.432  16.691 -0.2969 -0.3767  0.5201
 3145TIP3   OH230849   4.679   0.794  13.871 -0.0872  0.1942  0.2564
 3145TIP3    H130850   4.642   0.851  13.937 -2.2766  0.4023 -1.0587
 3145TIP3    H230851   4.638   0.709  13.886  0.9811 -0.3044  0.4364
 3146TIP3   OH230852   2.512   1.837   3.419  0.0239  0.5383 -0.0195
 3146TIP3    H130853   2.563   1.776   3.367  1.5636  1.3111  0.5068
 3146TIP3    H230854   2.569   1.859   3.493 -0.3529  2.7434 -0.2964
 3147TIP3   OH230855   1.459   2.470   2.510 -0.3809  0.0293  0.1136
 3147TIP3    H130856   1.490   2.518   2.433  0.3214 -1.9355 -0.8899
 3147TIP3    H230857   1.526   2.485   2.576 -0.1163  0.3330 -0.2176
 3148TIP3   OH230858   3.361   0.573   1.109 -0.3293 -0.1968 -0.4522
 3148TIP3    H130859   3.436   0.572   1.050  0.0737 -1.8663  0.0447
 3148TIP3    H230860   3.285   0.565   1.052 -0.0427 -0.1073 -0.8502
 3149TIP3   OH230861   0.131   3.410  12.833  0.0742 -0.0133 -0.3351
 3149TIP3    H130862   0.136   3.428  12.927  4.0254  0.3400 -0.4617
 3149TIP3    H230863   0.092   3.489  12.796 -0.0068  0.5353  0.8715
 3150TIP3   OH230864   3.359   3.640   3.707  0.1017  0.2601  0.0526
 3150TIP3    H130865   3.395   3.707   3.765  0.1008 -0.5417  0.9981
 3150TIP3    H230866   3.394   3.661   3.620  2.0633  0.0639  0.7662
 3151TIP3   OH230867   3.509   3.687   1.009 -0.1931  0.3902  0.0188
 3151TIP3    H130868   3.431   3.634   0.993 -0.8063  1.1811  0.3144
 3151TIP3    H230869   3.581   3.624   1.017 -1.0249 -0.4438  1.1178
 3152TIP3   OH230870   5.573   6.571   5.968  0.3691 -0.6162 -0.0445
 3152TIP3    H130871   5.488   6.527   5.978  0.8230 -1.3624  0.5773
 3152TIP3    H230872   5.631   6.504   5.932  0.8420 -0.2721  0.0676
 3153TIP3   OH230873   2.986   0.421   3.294  0.5798 -0.4085  0.2196
 3153TIP3    H130874   2.966   0.501   3.245 -0.7409 -0.8290  0.0413
 3153TIP3    H230875   2.930   0.426   3.371  0.6409 -1.0706  0.3058
 3154TIP3   OH230876   6.111   6.488  14.292  0.7598 -0.3053  0.1701
 3154TIP3    H130877   6.054   6.550  14.246  0.3279 -0.1166  0.9395
 3154TIP3    H230878   6.196   6.496  14.249  0.2567 -0.4492 -0.8696
 3155TIP3   OH230879   5.606   4.350  12.334  0.7019 -0.2055  0.0451
 3155TIP3    H130880   5.658   4.422  12.300  0.9390 -0.5948 -0.4367
 3155TIP3    H230881   5.533   4.343  12.273  1.3545 -1.1825 -0.6620
 3156TIP3   OH230882   5.388   1.489   0.627 -0.3986  0.2199 -0.2909
 3156TIP3    H130883   5.476   1.527   0.618  0.7368 -1.4226  2.5228
 3156TIP3    H230884   5.357   1.522   0.712 -1.8258 -0.4943 -0.5114
 3157TIP3   OH230885   1.934   1.603   1.734 -0.4982  0.1025  0.5737
 3157TIP3    H130886   2.028   1.609   1.748  0.5278 -2.9060 -3.4498
 3157TIP3    H230887   1.908   1.521   1.775 -0.7482 -0.4346 -0.6055
 3158TIP3   OH230888   1.787   4.887  11.628 -0.5112  0.2310  0.3025
 3158TIP3    H130889   1.745   4.835  11.559 -1.5183 -0.1741  1.1915
 3158TIP3    H230890   1.881   4.867  11.620 -0.8040 -1.1793  0.1558
 3159TIP3   OH230891   3.801   5.965   2.813 -0.2125  0.0736  0.0075
 3159TIP3    H130892   3.711   5.945   2.789 -0.2995  1.9805 -1.4526
 3159TIP3    H230893   3.820   6.048   2.770  2.6960 -0.9424 -0.9500
 3160TIP3   OH230894   1.786   6.049   1.352 -0.2919  0.2150 -0.5371
 3160TIP3    H130895   1.734   5.988   1.300 -2.4495  1.8552 -0.4371
 3160TIP3    H230896   1.873   6.009   1.356 -0.3824 -0.7043 -4.2113
 3161TIP3   OH230897   3.083   6.047  16.781  0.3344 -0.5247 -0.0734
 3161TIP3    H130898   3.049   6.133  16.754 -0.3315 -1.5178 -2.6800
 3161TIP3    H230899   3.026   6.020  16.852  1.1742  1.5736  1.5058
 3162TIP3   OH230900   6.497   5.846  10.348  0.0155 -0.6680  0.3297
 3162TIP3    H130901   6.537   5.919  10.396 -1.1454  0.1445  0.0885
 3162TIP3    H230902   6.539   5.768  10.386  0.1961  0.0273  1.6403
 3163TIP3   OH230903   6.582   0.509  16.794 -0.0583  0.4640  0.5311
 3163TIP3    H130904   6.670   0.524  16.829 -0.2663  0.9337  0.8695
 3163TIP3    H230905   6.531   0.481  16.869  0.3458 -2.2204 -0.1167
 3164TIP3   OH230906   0.546   5.156  14.908 -0.1002  0.5507  0.2720
 3164TIP3    H130907   0.606   5.139  14.835 -1.6346 -0.5878 -0.8114
 3164TIP3    H230908   0.506   5.240  14.886 -0.9448 -0.0358 -0.5272
 3165TIP3   OH230909   2.335   4.291  15.403 -0.6247  0.2188  0.5170
 3165TIP3    H130910   2.346   4.297  15.498 -2.3996  2.1471  0.6682
 3165TIP3    H230911   2.422   4.312  15.368  0.0128 -0.3556  1.6861
 3166TIP3   OH230912   4.564   5.048  16.841  0.1630  0.1113  0.4979
 3166TIP3    H130913   4.501   5.002  16.896 -1.2186 -1.8896 -2.5281
 3166TIP3    H230914   4.512   5.114  16.795  0.8540  0.3591  0.0538
 3167TIP3   OH230915   6.039   4.867  11.075 -0.0744  0.1617  0.1246
 3167TIP3    H130916   5.951   4.900  11.093 -0.4038 -0.1761 -0.8210
 3167TIP3    H230917   6.069   4.917  10.999  1.4286  1.7961  1.6934
 3168TIP3   OH230918   2.569   5.656   0.583  0.0662  0.0742 -0.2481
 3168TIP3    H130919   2.566   5.608   0.500 -1.3964 -0.2166 -0.0541
 3168TIP3    H230920   2.633   5.726   0.568  1.5742 -1.3494 -0.8464
 3169TIP3   OH230921   5.042   4.720   5.987 -0.2419  0.1064  0.6684
 3169TIP3    H130922   5.107   4.767   6.040 -1.1349  0.8687  1.1230
 3169TIP3    H230923   5.088   4.696   5.907  0.7154  0.2602  1.1666
 3170TIP3   OH230924   2.883   3.522   5.501  0.0388  0.3446  0.5597
 3170TIP3    H130925   2.972   3.498   5.527  1.2439  2.5549 -1.1535
 3170TIP3    H230926   2.857   3.588   5.565 -0.1487  0.1286  0.7086
 3171TIP3   OH230927   2.651   3.852   5.994 -0.5929 -0.8281 -0.0617
 3171TIP3    H130928   2.560   3.830   6.012 -0.4750  0.0707  1.9091
 3171TIP3    H230929   2.696   3.768   5.990 -1.2622 -1.2212  0.4290
 3172TIP3   OH230930   0.603   1.476  13.968  0.5791  0.3669  0.1377
 3172TIP3    H130931   0.577   1.385  13.954 -0.1419  0.0806  2.8834
 3172TIP3    H230932   0.521   1.522  13.984  0.8834  1.6628 -1.6712
 3173TIP3   OH230933   3.953   1.897   3.001 -0.0654 -0.3315  0.0029
 3173TIP3    H130934   3.931   1.989   3.014  0.1046 -0.0955 -1.2933
 3173TIP3    H230935   3.929   1.855   3.084  1.4602  1.1567  1.2879
 3174TIP3   OH230936   1.563   4.440   2.569 -0.2992  1.1994  0.0418
 3174TIP3    H130937   1.506   4.364   2.581  0.3480  0.6552 -0.2993
 3174TIP3    H230938   1.575   4.447   2.475  1.3291  0.4469  0.1692
 3175TIP3   OH230939   0.265   4.048  15.811 -0.0100 -0.0312 -0.4275
 3175TIP3    H130940   0.224   4.100  15.742  1.3545  1.6363 -0.0801
 3175TIP3    H230941   0.270   4.108  15.885  2.8065 -0.1766 -0.4027
 3176TIP3   OH230942   1.257   0.386  14.264  0.1211  0.4708 -0.4295
 3176TIP3    H130943   1.215   0.380  14.178  0.3811  0.8189 -0.5863
 3176TIP3    H230944   1.341   0.428  14.246  1.0347 -1.1991 -0.2805
 3177TIP3   OH230945   4.329   3.727  16.651 -0.0399  0.1649 -0.1360
 3177TIP3    H130946   4.257   3.672  16.682  0.2487 -0.3926 -0.4445
 3177TIP3    H230947   4.402   3.706  16.709  0.3397 -0.4652 -0.8323
 3178TIP3   OH230948   2.607   2.033   0.920  0.2173  0.0506 -0.4889
 3178TIP3    H130949   2.687   1.985   0.943 -0.3004 -0.7917 -0.3937
 3178TIP3    H230950   2.623   2.122   0.951  0.6011 -0.4249  0.7675
 3179TIP3   OH230951   1.232   5.093  13.080 -0.3080  0.6423 -0.5309
 3179TIP3    H130952   1.161   5.158  13.081 -1.2661 -0.3749  0.7156
 3179TIP3    H230953   1.209   5.034  13.008 -0.2782  0.7860 -0.6584
 3180TIP3   OH230954   5.928   1.197  11.862  0.0807 -0.6085  0.1454
 3180TIP3    H130955   5.925   1.162  11.951 -0.1638 -0.9696 -0.0047
 3180TIP3    H230956   5.966   1.127  11.809  0.5044 -0.2833  0.0143
 3181TIP3   OH230957   0.075   1.960  16.196  0.0135 -0.4682  0.4840
 3181TIP3    H130958   0.128   1.915  16.262 -1.3897 -1.6099  0.8673
 3181TIP3    H230959   0.003   1.901  16.178  0.1005  0.0390 -1.7644
 3182TIP3   OH230960   1.093   0.450   1.774 -0.1009  0.5569  0.3668
 3182TIP3    H130961   1.119   0.359   1.762  0.5448  0.7818 -0.0731
 3182TIP3    H230962   1.124   0.473   1.862  0.5476  0.6041  0.1317
 3183TIP3   OH230963   1.287   3.742  10.570  0.3238  0.1714 -0.1284
 3183TIP3    H130964   1.316   3.760  10.480  3.6491 -3.0805  0.0458
 3183TIP3    H230965   1.358   3.776  10.625  0.5529 -1.7992  0.8761
 3184TIP3   OH230966   1.439   6.683   4.237  0.3027  0.6337 -0.1693
 3184TIP3    H130967   1.503   6.697   4.307 -1.6442  1.5095  1.5528
 3184TIP3    H230968   1.469   6.739   4.165  2.7110 -0.7703 -0.3614
 3185TIP3   OH230969   3.931   1.450  16.478  0.5693 -0.1859 -0.5136
 3185TIP3    H130970   3.929   1.400  16.396 -1.3768  2.4515 -2.2427
 3185TIP3    H230971   4.023   1.473  16.490  0.7082  0.9794 -3.1152
 3186TIP3   OH230972   2.340   2.837  11.255  0.5686  0.1361 -0.4618
 3186TIP3    H130973   2.286   2.881  11.321  0.5650 -1.3082  0.5309
 3186TIP3    H230974   2.279   2.815  11.185  0.0335 -0.6358  0.2282
 3187TIP3   OH230975   5.915   4.414   5.322 -0.7136 -0.2007 -0.5652
 3187TIP3    H130976   5.882   4.480   5.383 -0.9028  0.0423 -0.9258
 3187TIP3    H230977   5.987   4.372   5.369 -1.4775 -0.6799  0.2005
 3188TIP3   OH230978   3.501   4.997  15.921 -0.3098 -0.9980 -0.3878
 3188TIP3    H130979   3.553   5.073  15.894 -0.4891 -1.6452 -2.8579
 3188TIP3    H230980   3.412   5.018  15.894 -1.0238 -0.7513  1.9596
 3189TIP3   OH230981   3.347   1.554   5.249 -0.1645  0.0543  0.3870
 3189TIP3    H130982   3.325   1.503   5.171 -0.0478  1.6885 -0.7692
 3189TIP3    H230983   3.319   1.643   5.228  1.2857  0.8453  1.5963
 3190TIP3   OH230984   1.826   1.042  11.078  0.3562  0.1845 -0.0426
 3190TIP3    H130985   1.745   1.077  11.039 -0.2859 -0.0419  1.0337
 3190TIP3    H230986   1.797   1.002  11.160  1.4411 -0.6896 -0.0645
 3191TIP3   OH230987   2.869   1.039  16.350 -0.1599 -0.4710 -0.2947
 3191TIP3    H130988   2.814   1.050  16.428  1.9493  0.8446  1.1125
 3191TIP3    H230989   2.853   1.117  16.297 -0.3713 -0.5582 -0.3580
 3192TIP3   OH230990   0.972   2.358  13.999 -0.0168  0.4711 -0.0426
 3192TIP3    H130991   1.034   2.338  14.069  1.0057  0.0981 -1.0058
 3192TIP3    H230992   0.951   2.273  13.961 -0.1747  0.7099 -0.4989
 3193TIP3   OH230993   2.197   3.866  11.729 -0.0101 -0.0595 -0.4360
 3193TIP3    H130994   2.156   3.851  11.644  0.8733  0.4472 -0.9767
 3193TIP3    H230995   2.217   3.960  11.729  2.0459 -0.4528 -0.6470
 3194TIP3   OH230996   6.413   0.427   0.669 -0.1936  0.1303  0.4618
 3194TIP3    H130997   6.326   0.402   0.700 -0.0494 -1.2479 -0.1571
 3194TIP3    H230998   6.426   0.375   0.590  0.4882  1.6541 -0.4765
 3195TIP3   OH230999   5.968   1.141   1.687  0.0248 -0.0936  0.1972
 3195TIP3    H131000   6.027   1.159   1.614  1.0576 -0.9536  0.7827
 3195TIP3    H231001   5.944   1.049   1.677  1.5342 -0.7329  1.8167
 3196TIP3   OH231002   4.436   1.956  16.601 -0.0878 -0.1435 -0.1447
 3196TIP3    H131003   4.450   2.011  16.524  0.3326 -1.9344 -1.4303
 3196TIP3    H231004   4.343   1.966  16.622 -0.5237 -0.5936 -1.7220
 3197TIP3   OH231005   4.809   2.153   1.108  0.4144 -0.0322  0.1835
 3197TIP3    H131006   4.887   2.196   1.074  1.5808 -2.0553  0.1988
 3197TIP3    H231007   4.761   2.123   1.031  0.3811 -0.0718  0.2194
 3198TIP3   OH231008   2.633   5.485   0.779 -0.4873  0.7496  0.2229
 3198TIP3    H131009   2.644   5.553   0.713  0.8430 -0.9593 -1.4284
 3198TIP3    H231010   2.571   5.522   0.842 -0.4752  3.1133 -1.0488
 3199TIP3   OH231011   4.171   4.642   5.392 -0.0593 -0.1053  0.4543
 3199TIP3    H131012   4.175   4.720   5.338 -0.7958 -0.1899  0.2776
 3199TIP3    H231013   4.119   4.580   5.341  1.9690 -1.3546 -0.2200
 3200TIP3   OH231014   0.649   1.839   4.533  0.3641 -0.0245 -0.4610
 3200TIP3    H131015   0.696   1.850   4.451  1.1205 -0.7073 -0.1276
 3200TIP3    H231016   0.615   1.927   4.553  1.4187  0.4663 -0.7594
 3201TIP3   OH231017   2.365   6.174  12.358 -0.4823  0.8041 -0.4553
 3201TIP3    H131018   2.316   6.221  12.291  0.1914  1.8598 -0.2437
 3201TIP3    H231019   2.306   6.106  12.389 -2.1353  2.5427  0.3776
 3202TIP3   OH231020   6.236   1.086   4.226  0.1319  0.5048 -0.5920
 3202TIP3    H131021   6.291   1.152   4.183 -0.3700  1.7079  0.5330
 3202TIP3    H231022   6.295   1.013   4.242  1.1382  1.3241 -0.4291
 3203TIP3   OH231023   0.377   0.891   3.074  0.6606 -0.1273  0.1180
 3203TIP3    H131024   0.350   0.933   3.157  0.1806  1.8959 -0.9868
 3203TIP3    H231025   0.319   0.815   3.066 -0.0363  0.2702  1.1135
 3204TIP3   OH231026   5.642   1.032   2.193  0.1481 -0.1076 -0.3788
 3204TIP3    H131027   5.722   1.025   2.141 -0.0394 -0.0115 -0.6868
 3204TIP3    H231028   5.659   1.104   2.254  1.0980 -1.4792  1.0195
 3205TIP3   OH231029   5.189   3.665   3.645 -0.1586  0.0923  0.4396
 3205TIP3    H131030   5.256   3.649   3.579 -1.4433 -0.6492 -0.7363
 3205TIP3    H231031   5.224   3.628   3.726  0.7522 -0.4764 -0.2067
 3206TIP3   OH231032   6.384   1.543  14.958 -0.6736  0.8118  0.5443
 3206TIP3    H131033   6.399   1.448  14.963 -0.9693  0.7794  0.8974
 3206TIP3    H231034   6.310   1.552  14.899 -1.2090  0.7588  1.2003
 3207TIP3   OH231035   5.844   6.733   0.023 -0.0209 -0.3126 -0.4639
 3207TIP3    H131036   5.932   6.758   0.051 -0.1613 -0.6858  0.3532
 3207TIP3    H231037   5.852   6.721  -0.072  1.1351 -1.5751 -0.2497
 3208TIP3   OH231038   0.752   1.047  13.772 -0.2071  0.6965 -0.3297
 3208TIP3    H131039   0.806   1.080  13.700 -0.8184  1.3167 -0.5293
 3208TIP3    H231040   0.674   1.011  13.728 -0.5091  0.9310  0.0060
 3209TIP3   OH231041   2.942   0.540   3.556 -0.4341  0.3835  0.1880
 3209TIP3    H131042   2.874   0.491   3.603  0.5247 -0.5292  0.6711
 3209TIP3    H231043   2.908   0.629   3.550 -1.4510  0.0587  0.8591
 3210TIP3   OH231044   1.118   5.573   2.454 -0.6633 -0.4986  0.4037
 3210TIP3    H131045   1.087   5.502   2.398 -0.8049 -0.9736  1.0713
 3210TIP3    H231046   1.069   5.650   2.426 -0.2153 -0.5626 -0.6048
 3211TIP3   OH231047   5.767   5.586  14.394  0.0931  0.0946  0.4235
 3211TIP3    H131048   5.782   5.508  14.447 -0.4547 -0.5617 -0.3535
 3211TIP3    H231049   5.851   5.631  14.392  0.4419 -0.5310  0.7979
 3212TIP3   OH231050   1.863   4.396   1.059  0.1780 -0.4357 -0.1620
 3212TIP3    H131051   1.931   4.336   1.028  0.7723  0.4984 -0.7261
 3212TIP3    H231052   1.863   4.466   0.994 -1.0611 -0.2222  0.0531
 3213TIP3   OH231053   6.692   1.416  16.033  0.0449  0.1776  0.4747
 3213TIP3    H131054   6.640   1.436  15.955  0.1204 -1.0605  0.0832
 3213TIP3    H231055   6.664   1.481  16.098 -0.0252  1.2155 -0.5720
 3214TIP3   OH231056   2.745   6.440   6.136  0.0911  0.2404 -0.3339
 3214TIP3    H131057   2.659   6.467   6.169 -0.2233 -0.1428 -0.8294
 3214TIP3    H231058   2.806   6.499   6.179 -0.3863  0.2853  0.3076
 3215TIP3   OH231059   2.928   4.921   2.792  0.3037 -0.2827  0.4044
 3215TIP3    H131060   2.836   4.898   2.807  0.5426 -0.4346  1.7257
 3215TIP3    H231061   2.953   4.868   2.717 -1.2239  1.2283 -1.2755
 3216TIP3   OH231062   2.203   0.526  10.929 -0.1264  0.0745 -0.3943
 3216TIP3    H131063   2.289   0.484  10.924 -0.4974 -0.5930 -1.8921
 3216TIP3    H231064   2.219   0.616  10.900 -0.0471 -0.2856 -1.5319
 3217TIP3   OH231065   5.521   2.251   1.733 -0.1407 -0.4709  0.1717
 3217TIP3    H131066   5.540   2.196   1.809 -0.8939 -0.4708  0.3640
 3217TIP3    H231067   5.503   2.189   1.662  1.2476 -0.4798 -0.2022
 3218TIP3   OH231068   0.098   2.564   1.660  0.0336 -0.0637 -0.5156
 3218TIP3    H131069   0.013   2.523   1.648  0.9754 -2.0809 -0.6930
 3218TIP3    H231070   0.106   2.575   1.754 -0.4835  0.2881 -0.5099
 3219TIP3   OH231071   3.669   3.281  13.944  0.4365 -0.1614 -0.1165
 3219TIP3    H131072   3.712   3.317  14.021 -1.7941  0.0846  1.1123
 3219TIP3    H231073   3.614   3.352  13.912 -0.7609 -1.0929 -0.2270
 3220TIP3   OH231074   1.751   0.395  11.023 -0.3113  0.9204  0.7637
 3220TIP3    H131075   1.790   0.317  10.983  0.4803  0.8411  1.6672
 3220TIP3    H231076   1.811   0.466  11.001 -1.2958  1.4081 -0.5063
 3221TIP3   OH231077   1.135   5.017  16.753 -0.3493  0.0862  0.0572
 3221TIP3    H131078   1.224   5.015  16.790 -0.2184 -0.2540 -0.2700
 3221TIP3    H231079   1.085   5.070  16.815 -0.5444 -1.8535  1.6588
 3222TIP3   OH231080   0.180   0.239  15.113 -0.0036  0.5236 -0.6661
 3222TIP3    H131081   0.098   0.210  15.073 -0.7566  0.9559  0.5265
 3222TIP3    H231082   0.173   0.213  15.205  1.6274 -0.3077 -0.7366
 3223TIP3   OH231083   3.125   0.448   2.058 -0.5014  0.4184  0.1334
 3223TIP3    H131084   3.196   0.395   2.022 -1.4269 -0.8534  0.1201
 3223TIP3    H231085   3.048   0.390   2.056 -1.4660  1.6389  0.4631
 3224TIP3   OH231086   2.436   5.949   4.752 -0.6526 -0.8026 -0.0460
 3224TIP3    H131087   2.475   5.862   4.760  1.4617  0.1934  1.6820
 3224TIP3    H231088   2.462   5.994   4.833 -1.3411  1.5612 -1.0651
 3225TIP3   OH231089   6.200   4.575   6.108  0.2374  0.8646 -0.2400
 3225TIP3    H131090   6.293   4.596   6.102  0.1884  0.7208 -1.7708
 3225TIP3    H231091   6.178   4.592   6.200  1.6347  1.4541  0.0130
 3226TIP3   OH231092   1.090   0.417   1.326 -0.1411  0.2599 -0.2375
 3226TIP3    H131093   1.159   0.412   1.393 -0.2452 -0.5817 -0.1838
 3226TIP3    H231094   1.009   0.426   1.376 -0.1303  0.6308 -0.2839
 3227TIP3   OH231095   6.502   1.308  13.315 -0.3152  0.1663 -0.1397
 3227TIP3    H131096   6.545   1.235  13.359 -0.9018  0.0075  0.1825
 3227TIP3    H231097   6.521   1.295  13.222  0.7507  0.3872  0.0352
 3228TIP3   OH231098   4.498   0.933   1.339  0.0901  0.5725 -0.0681
 3228TIP3    H131099   4.414   0.890   1.329  0.6867 -0.8791  0.7709
 3228TIP3    H231100   4.558   0.863   1.366  1.4460  1.6573 -0.1264
 3229TIP3   OH231101   0.824   3.449  17.036 -0.4378 -0.2453 -0.2101
 3229TIP3    H131102   0.738   3.442  17.078 -1.0081  2.2555 -0.8255
 3229TIP3    H231103   0.886   3.449  17.109 -1.1424  0.3018  0.4014
 3230TIP3   OH231104   4.439   2.545   1.163 -0.6995  0.2261  0.2838
 3230TIP3    H131105   4.407   2.456   1.174 -1.0696  0.4478  1.0668
 3230TIP3    H231106   4.533   2.535   1.148 -0.9080 -0.3520 -0.7484
 3231TIP3   OH231107   4.506   5.171  13.034  0.2220  0.3414  0.6600
 3231TIP3    H131108   4.449   5.241  13.001  0.8597  1.3608  1.6788
 3231TIP3    H231109   4.594   5.196  13.006  0.3878 -0.3987  0.4901
 3232TIP3   OH231110   4.853   1.480   3.364  0.2718 -0.1471 -0.3842
 3232TIP3    H131111   4.840   1.552   3.303  0.1170 -1.2919 -1.7401
 3232TIP3    H231112   4.932   1.435   3.332  0.6485 -0.3114  0.7293
 3233TIP3   OH231113   3.353   2.108  14.375  0.3927 -0.1396  0.1298
 3233TIP3    H131114   3.431   2.112  14.319 -0.3044  0.4155 -0.8209
 3233TIP3    H231115   3.304   2.033  14.343  0.2987 -0.2048  0.4241
 3234TIP3   OH231116   6.069   1.756  11.192  0.3189  0.3983  0.2483
 3234TIP3    H131117   6.038   1.787  11.107  0.1729  0.0584  0.1738
 3234TIP3    H231118   6.104   1.668  11.173  0.2300  0.2991  0.5513
 3235TIP3   OH231119   2.758   5.801   5.895  0.2225  0.1190 -0.0458
 3235TIP3    H131120   2.816   5.803   5.971  0.7526  0.1039 -0.4386
 3235TIP3    H231121   2.674   5.772   5.929  0.2689  0.7811  0.6569
 3236TIP3   OH231122   0.474   4.916  16.774 -0.0247 -0.2957  0.3591
 3236TIP3    H131123   0.512   4.989  16.725 -1.5354  0.0516 -0.3346
 3236TIP3    H231124   0.550   4.864  16.802  0.9372  0.1605 -1.3017
 3237TIP3   OH231125   6.207   2.254   0.119 -0.2471  0.1828 -0.6235
 3237TIP3    H131126   6.193   2.188   0.050 -1.1231 -0.2629 -0.0369
 3237TIP3    H231127   6.166   2.333   0.085 -2.0275 -0.4332 -0.0120
 3238TIP3   OH231128   4.277   0.843  13.439  0.3259 -0.4727 -0.5514
 3238TIP3    H131129   4.339   0.792  13.387  1.6690  0.3683  0.1572
 3238TIP3    H231130   4.310   0.835  13.529  0.2319  1.1265 -0.3517
 3239TIP3   OH231131   5.095   6.245  11.377 -0.1539  0.3533  0.1606
 3239TIP3    H131132   5.099   6.306  11.303  0.7015  1.1051  0.8162
 3239TIP3    H231133   5.020   6.189  11.357  0.8430 -0.3391 -1.9536
 3240TIP3   OH231134   1.346   4.610   2.112 -0.0019  0.4707  0.2038
 3240TIP3    H131135   1.398   4.593   2.033 -0.7176  0.7272 -0.3335
 3240TIP3    H231136   1.282   4.676   2.085 -1.7956 -1.1362  0.3192
 3241TIP3   OH231137   1.479   2.681   3.466 -0.4028  0.0556 -0.0363
 3241TIP3    H131138   1.451   2.763   3.506  1.4134  1.1006 -0.8083
 3241TIP3    H231139   1.481   2.619   3.540 -0.3539  1.0790  0.8489
 3242TIP3   OH231140   4.259   5.275  13.654 -0.4507 -0.2362  0.2844
 3242TIP3    H131141   4.312   5.339  13.702  0.6333 -2.1191  1.7732
 3242TIP3    H231142   4.195   5.244  13.719 -1.2891 -0.2976 -0.5579
 3243TIP3   OH231143   0.096   0.709  12.280 -0.7020 -0.0424 -0.0677
 3243TIP3    H131144   0.071   0.688  12.190  1.7215  1.1743 -1.1042
 3243TIP3    H231145   0.058   0.796  12.296 -0.0598  0.2990 -0.3865
 3244TIP3   OH231146   6.475   4.541  12.189 -0.2968 -0.1713  0.2519
 3244TIP3    H131147   6.542   4.479  12.219  0.0822  0.1404  0.0555
 3244TIP3    H231148   6.483   4.616  12.248  1.8256  1.3341 -1.7772
 3245TIP3   OH231149   6.390   1.129   0.723 -0.7000 -0.2989  0.1445
 3245TIP3    H131150   6.330   1.197   0.692 -0.3482 -0.0398  0.0292
 3245TIP3    H231151   6.343   1.047   0.709 -0.5411 -0.1935 -1.1057
 3246TIP3   OH231152   0.905   2.643  11.389 -0.1945 -0.0892  0.0117
 3246TIP3    H131153   1.001   2.645  11.386 -0.0642 -2.3849  0.9822
 3246TIP3    H231154   0.882   2.721  11.439  1.0750  1.0551 -1.0935
 3247TIP3   OH231155   3.712   0.664  10.965  0.0083  0.4117  0.1608
 3247TIP3    H131156   3.781   0.599  10.976 -0.2817  0.1940  0.7270
 3247TIP3    H231157   3.754   0.736  10.917  0.7112  0.4176  0.7740
 3248TIP3   OH231158   0.995   1.943   6.349 -0.8298  0.3393 -0.0688
 3248TIP3    H131159   0.959   1.903   6.270  0.0984 -0.2019 -0.2388
 3248TIP3    H231160   1.049   2.015   6.317  0.1119 -0.3158  0.0079
 3249TIP3   OH231161   5.480   3.864   6.401 -0.5736  0.5238 -0.1021
 3249TIP3    H131162   5.506   3.936   6.343 -1.2131 -0.2381 -1.3773
 3249TIP3    H231163   5.385   3.858   6.391 -0.3344 -1.7494 -1.5630
 3250TIP3   OH231164   3.684   1.597  13.326  0.5162  0.0992  0.3273
 3250TIP3    H131165   3.619   1.527  13.328  0.0599  0.3604 -2.1804
 3250TIP3    H231166   3.662   1.653  13.400 -1.5292 -0.3548  0.1065
 3251TIP3   OH231167   0.425   4.715  16.558  0.0365  0.2633 -0.4168
 3251TIP3    H131168   0.367   4.789  16.579  0.1806  0.3469 -0.3161
 3251TIP3    H231169   0.395   4.645  16.616 -1.8737 -0.6340 -2.3326
 3252TIP3   OH231170   1.730   3.411   3.837  0.3806 -0.0762 -0.3454
 3252TIP3    H131171   1.771   3.497   3.845 -1.4147  0.9074 -1.0098
 3252TIP3    H231172   1.638   3.428   3.858 -0.4473 -1.3899 -2.5938
 3253TIP3   OH231173   0.638   1.455   5.732  0.0895 -0.2321 -0.4097
 3253TIP3    H131174   0.656   1.532   5.678 -0.2132 -0.3190 -0.6371
 3253TIP3    H231175   0.711   1.451   5.793 -0.7743  1.2838  0.7939
 3254TIP3   OH231176   4.781   6.314   3.588 -0.5733 -0.7461  0.1306
 3254TIP3    H131177   4.743   6.239   3.543 -3.8198 -0.5817  2.3270
 3254TIP3    H231178   4.734   6.389   3.553 -0.5782 -0.2487  1.1907
 3255TIP3   OH231179   1.683   1.110  13.335 -0.3262 -0.3827 -0.1443
 3255TIP3    H131180   1.588   1.100  13.324 -0.5315 -0.2573  1.3262
 3255TIP3    H231181   1.719   1.027  13.304 -0.9172 -0.4966 -0.5633
 3256TIP3   OH231182   5.819   4.151   4.995 -0.4034 -0.1304  0.0651
 3256TIP3    H131183   5.831   4.189   4.908 -1.3776 -0.0822 -0.0568
 3256TIP3    H231184   5.906   4.155   5.035 -0.4576  2.2671  0.0705
 3257TIP3   OH231185   0.537   1.990  14.660 -0.4288 -0.3484  0.3476
 3257TIP3    H131186   0.454   1.976  14.705 -0.4929 -1.0258  0.0380
 3257TIP3    H231187   0.604   1.967  14.725 -0.4785  0.2802  0.6235
 3258TIP3   OH231188   5.641   1.153   6.310  0.2839  0.0617  0.3084
 3258TIP3    H131189   5.701   1.109   6.370 -0.6549 -0.1287  1.1331
 3258TIP3    H231190   5.698   1.203   6.252  1.3851 -2.2541 -0.7165
 3259TIP3   OH231191   4.706   5.798   0.001 -0.8568 -0.4210 -0.2415
 3259TIP3    H131192   4.680   5.785  -0.091  2.0092 -1.7113 -0.9690
 3259TIP3    H231193   4.766   5.727   0.020 -1.2761 -0.1258  2.6784
 3260TIP3   OH231194   5.290   3.980  11.324 -0.2061  0.1395  0.8701
 3260TIP3    H131195   5.291   3.885  11.334 -1.1413  0.1206  0.9179
 3260TIP3    H231196   5.218   3.997  11.263  0.9099  0.7320 -0.3056
 3261TIP3   OH231197   3.892   3.985   6.350 -0.0583 -0.0290  0.0571
 3261TIP3    H131198   3.933   3.905   6.384  0.3250 -0.2505 -0.8779
 3261TIP3    H231199   3.802   3.982   6.383 -0.3321 -1.3427 -0.7214
 3262TIP3   OH231200   5.910   1.898  15.464 -0.2189 -0.0628  0.1488
 3262TIP3    H131201   5.855   1.879  15.388 -1.7811 -0.2358  1.2460
 3262TIP3    H231202   5.888   1.989  15.487  0.3714  0.0481  0.2754
 3263TIP3   OH231203   4.296   6.448   0.379  0.1122 -0.5036 -0.5062
 3263TIP3    H131204   4.363   6.408   0.435  0.0568  1.1464  0.8458
 3263TIP3    H231205   4.339   6.525   0.341 -0.7015 -0.0022 -0.4460
 3264TIP3   OH231206   0.574   2.208   6.526 -0.7224 -0.0085 -0.6000
 3264TIP3    H131207   0.609   2.120   6.540 -0.7908 -0.0944 -0.9631
 3264TIP3    H231208   0.651   2.263   6.516 -0.6806 -0.0883 -0.7297
 3265TIP3   OH231209   3.624   5.423   4.109 -0.1349  0.5438 -0.4942
 3265TIP3    H131210   3.719   5.415   4.108 -0.1643 -2.0031  2.0103
 3265TIP3    H231211   3.605   5.473   4.188 -0.8777  0.9361 -0.9126
 3266TIP3   OH231212   0.866   0.194   3.498  0.0430 -0.0825 -0.4506
 3266TIP3    H131213   0.895   0.271   3.449 -0.1002  0.1898 -0.1108
 3266TIP3    H231214   0.945   0.140   3.506  0.5539  0.7933  0.7260
 3267TIP3   OH231215   4.401   5.876   0.291  0.1739  0.2046  0.2440
 3267TIP3    H131216   4.377   5.909   0.204  0.2798 -0.4475 -0.0410
 3267TIP3    H231217   4.421   5.955   0.342  1.2778  0.5516 -0.6689
 3268TIP3   OH231218   4.735   0.875   6.738  0.1860 -0.2177  0.6343
 3268TIP3    H131219   4.706   0.805   6.680  0.6606 -0.8633  1.1628
 3268TIP3    H231220   4.828   0.856   6.754 -0.2440 -0.8319  2.6603
 3269TIP3   OH231221   6.754   5.407   2.040 -0.2804  0.3542  0.0604
 3269TIP3    H131222   6.760   5.415   1.945 -0.2228 -0.7508 -0.0348
 3269TIP3    H231223   6.831   5.357   2.066 -0.1681  0.8488  0.7306
 3270TIP3   OH231224   2.670   2.113   0.003  0.6747 -0.0840 -0.4122
 3270TIP3    H131225   2.676   2.087  -0.089  1.7990  2.3446 -1.1316
 3270TIP3    H231226   2.605   2.184   0.003  0.3981 -0.3182  0.7415
 3271TIP3   OH231227   4.412   3.222  14.298 -0.0484  0.0630  0.2102
 3271TIP3    H131228   4.350   3.295  14.284 -0.3289 -0.3251 -0.6856
 3271TIP3    H231229   4.416   3.179  14.213 -0.6719 -1.5855  0.9810
 3272TIP3   OH231230   1.011   2.696   0.190 -0.1823  0.1518 -0.0542
 3272TIP3    H131231   0.915   2.703   0.185 -0.1673 -0.4827 -2.6294
 3272TIP3    H231232   1.028   2.602   0.193  0.3941  0.2438 -0.4090
 3273TIP3   OH231233   4.528   4.569   0.934 -0.1360  0.0182 -0.3725
 3273TIP3    H131234   4.598   4.520   0.891  0.1598  0.2004 -0.0994
 3273TIP3    H231235   4.489   4.621   0.864 -0.2750 -0.3996 -0.6103
 3274TIP3   OH231236   4.611   6.060  14.396 -0.7278  0.4829 -0.0710
 3274TIP3    H131237   4.529   6.049  14.349 -1.1275  2.1790  0.1423
 3274TIP3    H231238   4.585   6.091  14.483  0.1096  0.2394  0.2825
 3275TIP3   OH231239   0.680   5.948   4.498  0.1027  0.3961 -0.4341
 3275TIP3    H131240   0.601   5.904   4.530  1.0448  0.0052  1.4452
 3275TIP3    H231241   0.698   5.906   4.414 -0.7907 -0.6151 -0.1466
 3276TIP3   OH231242   2.644   1.236   2.358  0.2367 -0.0046 -0.1469
 3276TIP3    H131243   2.695   1.276   2.429  1.3095 -1.5844  0.0270
 3276TIP3    H231244   2.700   1.165   2.326 -0.5678  0.1676 -2.0531
 3277TIP3   OH231245   2.517   4.933   5.629 -0.1449 -0.1118  0.3361
 3277TIP3    H131246   2.429   4.927   5.666 -0.3112  2.1084  0.4530
 3277TIP3    H231247   2.520   5.019   5.588  2.3923  0.4740  1.5282
 3278TIP3   OH231248   2.352   2.609   3.467 -0.3501 -0.0169  1.1763
 3278TIP3    H131249   2.308   2.590   3.550 -0.9508  0.0876  0.8881
 3278TIP3    H231250   2.284   2.648   3.412  0.2279  0.6285  0.8928
 3279TIP3   OH231251   3.486   0.640   1.861  0.1289 -0.5164  0.3313
 3279TIP3    H131252   3.395   0.612   1.863 -0.3822  1.0110  0.1556
 3279TIP3    H231253   3.524   0.607   1.942 -0.9518 -0.0340  1.0570
 3280TIP3   OH231254   3.569   5.402  14.086  0.1128  0.2570 -0.3327
 3280TIP3    H131255   3.529   5.468  14.029  0.6807  0.0984 -0.9242
 3280TIP3    H231256   3.545   5.319  14.046  0.3572  0.1395 -0.2344
 3281TIP3   OH231257   3.742   3.472  13.066  0.0623  0.0681  0.2703
 3281TIP3    H131258   3.836   3.459  13.075  0.0573 -1.6448 -1.5192
 3281TIP3    H231259   3.706   3.383  13.062 -1.5796  0.6902  0.3066
 3282TIP3   OH231260   4.917   1.070  14.201 -0.5208 -0.0719  0.1723
 3282TIP3    H131261   4.880   1.138  14.257 -0.8485  0.2587 -0.4394
 3282TIP3    H231262   4.940   1.115  14.120  2.5398  0.0539  0.9735
 3283TIP3   OH231263   4.133   0.465  12.196 -0.0754 -0.2843 -0.1541
 3283TIP3    H131264   4.165   0.378  12.221 -1.1876 -1.2475 -1.8491
 3283TIP3    H231265   4.212   0.515  12.176  0.5249 -2.0047 -2.4655
 3284TIP3   OH231266   5.444   6.227  17.005  0.2835 -0.4229 -0.2746
 3284TIP3    H131267   5.384   6.171  16.958 -0.6848 -1.0430  1.5907
 3284TIP3    H231268   5.415   6.223  17.096  0.4704  2.7120  0.0516
 3285TIP3   OH231269   2.708   4.820  12.548 -0.5431 -0.4983  0.1016
 3285TIP3    H131270   2.766   4.744  12.559 -0.8983 -0.7137  0.5727
 3285TIP3    H231271   2.652   4.818  12.626 -1.5768 -0.6433 -0.6190
 3286TIP3   OH231272   1.475   1.733   3.365 -0.3960 -0.0149 -0.2681
 3286TIP3    H131273   1.525   1.653   3.384  1.1851  0.4922 -1.9512
 3286TIP3    H231274   1.540   1.803   3.370 -1.8576  1.2909  1.6766
 3287TIP3   OH231275   4.105   3.069   2.627  0.3562  0.1562 -0.1972
 3287TIP3    H131276   4.011   3.053   2.617 -0.1175 -0.3488  3.4615
 3287TIP3    H231277   4.142   2.983   2.645  1.3231  0.5006 -0.5037
 3288TIP3   OH231278   1.642   5.036   3.745 -0.1700 -0.2767  0.1588
 3288TIP3    H131279   1.720   5.062   3.795 -0.0704  0.1389 -0.2089
 3288TIP3    H231280   1.669   5.044   3.653  0.3663 -3.1040 -0.0417
 3289TIP3   OH231281   3.552   5.718   3.785 -0.6994  0.4202  0.5972
 3289TIP3    H131282   3.457   5.713   3.798 -0.7750 -0.4859 -0.2470
 3289TIP3    H231283   3.580   5.627   3.778  0.0488  0.7141 -0.4167
 3290TIP3   OH231284   1.913   1.585  16.742 -0.2393  0.5877 -0.3647
 3290TIP3    H131285   1.890   1.515  16.803  0.2229 -1.1398 -2.1168
 3290TIP3    H231286   2.002   1.610  16.767 -0.7352  1.2419  0.8477
 3291TIP3   OH231287   2.717   2.817  14.031 -0.8230  0.4239 -0.5044
 3291TIP3    H131288   2.743   2.907  14.010 -0.3563  0.1705 -1.0504
 3291TIP3    H231289   2.668   2.788  13.954  2.8008 -1.2858 -2.4491
 3292TIP3   OH231290   4.212   4.645   2.743  0.0035 -0.2423  0.3951
 3292TIP3    H131291   4.292   4.679   2.702  0.9052 -2.9788 -0.3209
 3292TIP3    H231292   4.181   4.578   2.682 -0.3933 -2.2423  2.6929
 3293TIP3   OH231293   1.195   1.028   1.566 -0.7243 -0.5374  0.4030
 3293TIP3    H131294   1.202   1.055   1.474  2.4905 -2.9971 -0.2119
 3293TIP3    H231295   1.159   1.105   1.610 -0.4584  1.4503 -2.5578
 3294TIP3   OH231296   1.957   6.739  11.666 -0.8835 -0.1138  0.1056
 3294TIP3    H131297   1.988   6.811  11.611  1.6378 -0.1958  1.3026
 3294TIP3    H231298   1.866   6.726  11.639 -0.1802  0.7298 -3.0587
 3295TIP3   OH231299   6.114   3.332   4.302  0.3786 -0.8761  0.3017
 3295TIP3    H131300   6.020   3.343   4.288  0.6261 -0.2114 -1.0866
 3295TIP3    H231301   6.154   3.379   4.228  1.8011 -0.8917  1.0341
 3296TIP3   OH231302   6.643   0.871  15.220  0.1581  0.0177 -0.4176
 3296TIP3    H131303   6.590   0.822  15.282  2.0758 -0.2647  1.1319
 3296TIP3    H231304   6.713   0.811  15.195  0.0104  0.4882 -2.0814
 3297TIP3   OH231305   0.431   3.806  15.093  0.1993 -0.4830  0.1272
 3297TIP3    H131306   0.416   3.759  15.175  1.1953  0.0068  0.6069
 3297TIP3    H231307   0.394   3.893  15.109  3.6117  0.8936  1.4851
 3298TIP3   OH231308   6.564   4.176  12.293 -0.9119 -0.0490 -1.0513
 3298TIP3    H131309   6.610   4.244  12.341 -0.1122 -2.5467  2.0396
 3298TIP3    H231310   6.472   4.187  12.317 -1.0486  0.9360 -1.9630
 3299TIP3   OH231311   1.036   3.426   0.817 -0.5044 -0.1364  0.2198
 3299TIP3    H131312   1.129   3.413   0.796 -0.7438  1.0618 -1.7754
 3299TIP3    H231313   0.994   3.345   0.788 -0.3567  0.1687 -0.8836
 3300TIP3   OH231314   3.875   6.791  10.763  0.6345 -0.0901  0.5433
 3300TIP3    H131315   3.872   6.701  10.729  0.4653  0.1934 -0.2179
 3300TIP3    H231316   3.867   6.846  10.685 -0.1120  0.5870  1.0864
 3301TIP3   OH231317   3.906   2.634  11.797 -0.1751 -0.0937 -0.4858
 3301TIP3    H131318   3.910   2.729  11.784  0.7066 -0.3768 -2.7376
 3301TIP3    H231319   3.815   2.611  11.782 -0.3422  0.3424 -0.1782
 3302TIP3   OH231320   5.160   5.227  13.080  0.0381  0.2646 -0.3608
 3302TIP3    H131321   5.188   5.286  13.010 -0.7143  2.3522  0.9877
 3302TIP3    H231322   5.149   5.143  13.038 -1.5867  1.7048 -3.0558
 3303TIP3   OH231323   4.238   5.890   2.362 -0.1732 -0.4342 -0.3178
 3303TIP3    H131324   4.322   5.923   2.330  1.2463  0.2343  3.5447
 3303TIP3    H231325   4.208   5.832   2.292  2.8223  0.2892 -2.4587
 3304TIP3   OH231326   3.325   0.826   1.627 -0.1229 -0.1148  0.2993
 3304TIP3    H131327   3.404   0.778   1.651  0.8719  0.6069 -1.3268
 3304TIP3    H231328   3.294   0.864   1.710  0.3692 -1.6085  1.2096
 3305TIP3   OH231329   0.801   6.048   2.496 -0.1450  0.4325 -0.0349
 3305TIP3    H131330   0.766   6.068   2.410  0.3449  0.8763 -0.1347
 3305TIP3    H231331   0.751   6.102   2.556 -1.2728 -0.7067  0.1074
 3306TIP3   OH231332   3.667   1.813   3.293  0.1405 -0.4596 -0.2740
 3306TIP3    H131333   3.632   1.882   3.349  0.5314  0.1449 -0.7642
 3306TIP3    H231334   3.671   1.852   3.205 -0.0844 -1.2591 -0.6568
 3307TIP3   OH231335   5.450   4.019   1.316 -0.3683 -0.3716 -0.0226
 3307TIP3    H131336   5.363   3.995   1.284  0.5336 -1.4673 -1.8287
 3307TIP3    H231337   5.468   4.103   1.275 -1.7573  1.4936  2.8529
 3308TIP3   OH231338   3.226   3.869  15.764 -0.0650  0.1270  0.6894
 3308TIP3    H131339   3.223   3.788  15.713 -2.3942  1.4995 -1.5633
 3308TIP3    H231340   3.135   3.888  15.785  0.0666  3.3915 -1.0387
 3309TIP3   OH231341   3.816   3.579  12.267  0.2572 -0.4637  0.1139
 3309TIP3    H131342   3.859   3.587  12.352  0.2366 -1.2281  0.2038
 3309TIP3    H231343   3.886   3.553  12.207  1.0890  3.4404 -0.9030
 3310TIP3   OH231344   2.946   4.872   5.944 -0.2168 -0.1955  0.1436
 3310TIP3    H131345   2.872   4.844   5.889 -1.6163  0.0924  1.8013
 3310TIP3    H231346   2.923   4.960   5.971  2.6229  1.5230 -2.3829
 3311TIP3   OH231347   2.984   3.514   5.254 -0.3608 -0.2298  0.6682
 3311TIP3    H131348   2.957   3.437   5.204 -1.2359  0.7702 -0.4777
 3311TIP3    H231349   2.948   3.500   5.341 -1.4974 -0.6093  0.1614
 3312TIP3   OH231350   1.363   3.550  12.540  0.2557 -0.0389 -0.3684
 3312TIP3    H131351   1.423   3.585  12.474  2.9235 -1.6933  0.9906
 3312TIP3    H231352   1.410   3.477  12.579 -2.2812 -0.8025  1.5772
 3313TIP3   OH231353   3.520   6.555  14.222  0.5734 -0.2062 -0.5782
 3313TIP3    H131354   3.539   6.638  14.178 -1.6861  0.5112 -0.3389
 3313TIP3    H231355   3.478   6.580  14.305  0.9346 -1.5791  0.0530
 3314TIP3   OH231356   3.981   6.477  14.527 -0.6019 -0.5374  0.0016
 3314TIP3    H131357   3.996   6.462  14.434 -1.6936 -1.0958 -0.0955
 3314TIP3    H231358   4.068   6.465  14.567 -0.1544 -0.4245 -0.9128
 3315TIP3   OH231359   4.568   2.328   3.515  0.2494  0.2774 -0.3515
 3315TIP3    H131360   4.634   2.396   3.508 -0.2708  0.6171 -3.3115
 3315TIP3    H231361   4.602   2.256   3.462  0.2498 -1.3544  1.7733
 3316TIP3   OH231362   0.468   2.379  15.499 -0.2144 -0.0459  0.3136
 3316TIP3    H131363   0.483   2.431  15.578 -0.2545 -0.0739  0.3397
 3316TIP3    H231364   0.552   2.335  15.482 -0.1154  0.1979  0.1663
 3317TIP3   OH231365   1.649   5.843   2.322 -0.0325 -0.1370  0.4341
 3317TIP3    H131366   1.582   5.775   2.335 -2.3006  1.9679  0.4851
 3317TIP3    H231367   1.617   5.918   2.373  0.8299  1.9460 -1.8899
 3318TIP3   OH231368   5.900   6.162   0.705  0.2050  0.5767  0.7857
 3318TIP3    H131369   5.853   6.231   0.753  0.2497  1.0397  0.1682
 3318TIP3    H231370   5.978   6.205   0.671 -0.2329  0.4677 -0.4049
 3319TIP3   OH231371   5.850   5.414   1.558  0.0960 -0.3672  0.3578
 3319TIP3    H131372   5.787   5.417   1.485  1.9598 -1.6364 -1.4147
 3319TIP3    H231373   5.907   5.490   1.544 -0.3088  0.1168  1.2730
 3320TIP3   OH231374   1.656   4.413  13.786  0.9375 -0.0360  1.0375
 3320TIP3    H131375   1.634   4.501  13.755  2.2638  0.3270  1.0780
 3320TIP3    H231376   1.583   4.389  13.843  0.0542  0.6094  0.2312
 3321TIP3   OH231377   4.264   0.539   5.150 -0.0928  0.0007 -0.1775
 3321TIP3    H131378   4.300   0.614   5.102  0.4817  0.2928  0.6883
 3321TIP3    H231379   4.244   0.574   5.237 -1.5975 -0.3948 -0.3379
 3322TIP3   OH231380   0.138   4.173   3.024 -0.6045  0.0512 -0.5278
 3322TIP3    H131381   0.161   4.209   3.110 -2.2895  2.5715 -1.0076
 3322TIP3    H231382   0.043   4.184   3.019 -0.3505  2.0778 -3.5165
 3323TIP3   OH231383   5.355   4.560   4.475 -0.1003  0.1647 -0.0949
 3323TIP3    H131384   5.288   4.590   4.413 -0.4086 -0.7782 -0.2337
 3323TIP3    H231385   5.371   4.469   4.451  1.1966  0.3408 -0.0226
 3324TIP3   OH231386   6.275   5.886   4.660 -0.3050 -0.2616  0.0843
 3324TIP3    H131387   6.330   5.964   4.654 -0.7773  0.1535  1.0509
 3324TIP3    H231388   6.263   5.859   4.569  1.0406 -0.0497 -0.1779
 3325TIP3   OH231389   2.223   2.795   2.586 -0.3859  0.1525 -0.2938
 3325TIP3    H131390   2.289   2.741   2.542 -0.3089  0.6949 -0.8564
 3325TIP3    H231391   2.268   2.877   2.605  0.2791 -0.8257  2.8413
 3326TIP3   OH231392   2.427   5.817   3.317  0.3311  0.0298 -0.2075
 3326TIP3    H131393   2.380   5.782   3.241  0.5429  1.6973 -1.1498
 3326TIP3    H231394   2.367   5.882   3.355  1.0433  0.6876 -0.1855
 3327TIP3   OH231395   1.375   6.485  11.602  0.1708  0.6620  0.3536
 3327TIP3    H131396   1.371   6.459  11.510  0.8923  1.6826  0.0059
 3327TIP3    H231397   1.295   6.535  11.616 -0.2058  0.0381  0.4389
 3328TIP3   OH231398   0.566   0.980  12.609  0.0152  0.1339  0.1716
 3328TIP3    H131399   0.655   0.945  12.611 -1.0356 -3.0132 -0.9826
 3328TIP3    H231400   0.549   0.996  12.516 -1.5546 -2.4634 -0.1175
 3329TIP3   OH231401   1.867   0.425   4.770  0.2762 -0.2027  0.3039
 3329TIP3    H131402   1.834   0.507   4.732  1.8439 -0.3535 -1.5284
 3329TIP3    H231403   1.790   0.384   4.810 -1.5360  0.0366 -2.6536
 3330TIP3   OH231404   1.027   3.535   6.074  0.3296 -0.2944  0.2918
 3330TIP3    H131405   1.099   3.547   6.013 -0.3327  1.2098 -0.2366
 3330TIP3    H231406   1.065   3.554   6.160  0.6655  0.1127  0.0594
 3331TIP3   OH231407   5.937   5.396  15.803  0.2630 -0.0070  0.0399
 3331TIP3    H131408   5.992   5.435  15.871  0.5256  1.6166 -1.0615
 3331TIP3    H231409   5.983   5.314  15.780  1.3203  0.4865  0.3102
 3332TIP3   OH231410   2.852   5.946   2.543 -0.0859  0.2920 -0.2440
 3332TIP3    H131411   2.941   5.950   2.509 -0.4785  1.6835 -1.2118
 3332TIP3    H231412   2.831   6.037   2.565 -1.3636  0.0348 -0.3160
 3333TIP3   OH231413   2.926   6.707   0.050 -0.3146 -0.2866 -0.2942
 3333TIP3    H131414   2.916   6.802   0.043  0.2661 -0.1685  0.3503
 3333TIP3    H231415   2.857   6.680   0.111  0.5770 -0.0388  0.8568
 3334TIP3   OH231416   1.233   0.652   2.770 -0.1803 -0.3113 -0.1919
 3334TIP3    H131417   1.213   0.566   2.805 -2.3521 -0.1077 -0.8088
 3334TIP3    H231418   1.211   0.647   2.677  0.0035  0.8014 -0.3211
 3335TIP3   OH231419   1.889   2.916   1.592 -0.7149  0.4625 -0.0839
 3335TIP3    H131420   1.821   2.984   1.584 -0.6451  0.6587  0.8725
 3335TIP3    H231421   1.847   2.836   1.561 -1.4695  0.5354  0.7115
 3336TIP3   OH231422   2.289   0.324   2.217  0.2829  0.3194  0.6155
 3336TIP3    H131423   2.277   0.387   2.287  1.4033 -0.3475  1.4462
 3336TIP3    H231424   2.207   0.326   2.168  0.0553  1.9224  1.0088
 3337TIP3   OH231425   6.039   3.623  12.798  0.3564  0.5751 -0.2771
 3337TIP3    H131426   6.104   3.580  12.854  0.4505  3.3113  1.9977
 3337TIP3    H231427   5.969   3.559  12.789  2.0549 -1.3765 -0.2981
 3338TIP3   OH231428   4.688   6.391   4.583 -0.1955 -0.0857 -0.0495
 3338TIP3    H131429   4.689   6.487   4.584 -1.8244 -0.0169 -0.8217
 3338TIP3    H231430   4.725   6.368   4.498  2.0221 -0.2515  0.9079
 3339TIP3   OH231431   5.705   5.232  17.197 -0.1903  0.0680 -0.0133
 3339TIP3    H131432   5.733   5.159  17.252 -2.2862 -3.6024 -3.2903
 3339TIP3    H231433   5.786   5.265  17.158  0.7625 -1.2486  0.7524
 3340TIP3   OH231434   1.112   1.355  11.869 -0.0049 -0.2585 -0.0040
 3340TIP3    H131435   1.197   1.368  11.911  0.6980  0.5781 -1.5992
 3340TIP3    H231436   1.082   1.443  11.848 -0.9400 -0.5918 -0.0955
 3341TIP3   OH231437   2.135   0.272  16.367 -0.0078 -0.1181 -0.4082
 3341TIP3    H131438   2.206   0.266  16.303 -0.4894 -0.0680 -0.9584
 3341TIP3    H231439   2.073   0.334  16.328 -0.8735 -0.9940 -0.4456
 3342TIP3   OH231440   2.053   1.063  13.422  0.3217 -0.1014 -0.7765
 3342TIP3    H131441   2.082   0.995  13.482  0.8338  0.7702 -0.0054
 3342TIP3    H231442   2.061   1.024  13.335 -0.8871 -1.5504 -0.2727
 3343TIP3   OH231443   3.357   4.584  14.742 -0.0436 -0.0353  0.0013
 3343TIP3    H131444   3.444   4.620  14.728 -0.2442  0.9739  1.1655
 3343TIP3    H231445   3.308   4.608  14.662 -0.7726  4.3167  1.4758
 3344TIP3   OH231446   2.296   1.906   5.105 -0.2560  0.1054 -0.3916
 3344TIP3    H131447   2.330   1.859   5.181 -0.1508  0.3859 -0.2661
 3344TIP3    H231448   2.224   1.958   5.139 -0.7734 -0.4330 -0.6458
 3345TIP3   OH231449   2.772   0.608   0.750 -0.5983 -0.0936 -0.0486
 3345TIP3    H131450   2.787   0.691   0.795 -0.4957  0.1078 -0.4423
 3345TIP3    H231451   2.804   0.624   0.661  0.2473 -0.8262  0.1012
 3346TIP3   OH231452   6.132   0.389  13.925 -0.0378 -0.1549 -0.1976
 3346TIP3    H131453   6.181   0.344  13.994 -1.0990 -0.7151  0.2041
 3346TIP3    H231454   6.089   0.320  13.876 -1.0422  0.3552 -0.0709
 3347TIP3   OH231455   2.135   0.800   6.007  0.1342  0.1970  0.6417
 3347TIP3    H131456   2.059   0.746   6.027  1.4856 -1.2479  2.2074
 3347TIP3    H231457   2.128   0.875   6.067  0.4770 -0.5018  1.5844
 3348TIP3   OH231458   1.827   2.783  11.987  0.2415 -0.2731 -0.6218
 3348TIP3    H131459   1.909   2.801  11.942 -0.2515  2.7792 -0.4716
 3348TIP3    H231460   1.759   2.819  11.931 -0.6929  0.2087  0.7510
 3349TIP3   OH231461   1.011   6.750  14.326 -0.2234 -0.6311  0.1905
 3349TIP3    H131462   0.946   6.755  14.395  0.3388 -2.5869  0.9192
 3349TIP3    H231463   1.009   6.836  14.285 -3.1749 -0.5990  0.2300
 3350TIP3   OH231464   4.866   2.606   0.310  0.0285  0.0853 -0.1874
 3350TIP3    H131465   4.779   2.596   0.272  0.1263 -0.3688 -0.2982
 3350TIP3    H231466   4.852   2.657   0.390 -0.2826  0.3700 -0.4220
 3351TIP3   OH231467   0.151   3.072   5.209  0.5649 -0.5080 -0.9679
 3351TIP3    H131468   0.092   3.144   5.187  0.5437  0.0036  0.6343
 3351TIP3    H231469   0.178   3.036   5.124 -0.7774  0.2737 -1.7640
 3352TIP3   OH231470   3.284   0.695  16.864  0.1735 -0.2265  1.0361
 3352TIP3    H131471   3.366   0.726  16.902  1.1017  0.6535 -1.4733
 3352TIP3    H231472   3.262   0.761  16.799 -1.8646 -1.1214  0.7595
 3353TIP3   OH231473   4.732   4.589  14.574  0.0830 -0.0431  0.1849
 3353TIP3    H131474   4.803   4.638  14.534 -0.0383  0.4919  0.6120
 3353TIP3    H231475   4.684   4.551  14.501 -0.7917  1.8321 -0.2622
 3354TIP3   OH231476   0.715   5.084  13.416  0.3062 -0.3924 -0.1457
 3354TIP3    H131477   0.787   5.146  13.428 -1.5501  2.4127 -2.1162
 3354TIP3    H231478   0.636   5.139  13.416 -1.7411 -3.1353  0.6057
 3355TIP3   OH231479   3.096   5.141   2.404  0.0561  0.4862  0.6217
 3355TIP3    H131480   3.031   5.148   2.473 -0.1524  0.5898  0.4169
 3355TIP3    H231481   3.061   5.075   2.345 -1.3943  2.6536 -1.1149
 3356TIP3   OH231482   3.353   3.130   2.281  0.8545 -0.2512 -0.1640
 3356TIP3    H131483   3.440   3.101   2.309 -0.1194 -2.8882  0.4653
 3356TIP3    H231484   3.321   3.059   2.225 -0.2776  1.4196 -1.7507
 3357TIP3   OH231485   1.636   2.963  16.889  0.4185 -0.1633 -0.1132
 3357TIP3    H131486   1.603   3.044  16.929 -0.3501  0.6749 -2.2901
 3357TIP3    H231487   1.731   2.966  16.902  0.2823  0.5167  0.7990
 3358TIP3   OH231488   0.230   4.660   5.294 -0.1231 -0.0841  0.1929
 3358TIP3    H131489   0.172   4.697   5.361 -0.5718 -0.4111 -0.0135
 3358TIP3    H231490   0.203   4.569   5.286  0.7056 -0.3636  0.4045
 3359TIP3   OH231491   0.536   5.547  15.075 -0.7158  0.0805 -0.0554
 3359TIP3    H131492   0.474   5.615  15.049 -0.4335 -0.1661 -1.4972
 3359TIP3    H231493   0.532   5.482  15.004  0.9722 -0.0804 -0.0534
 3360TIP3   OH231494   0.809   5.218  14.243 -0.1938 -0.1571  0.0830
 3360TIP3    H131495   0.840   5.263  14.164 -0.9404 -0.5515 -0.4456
 3360TIP3    H231496   0.824   5.125  14.225  0.0323 -0.2253  0.5945
 3361TIP3   OH231497   6.504   6.711   5.305 -0.5223 -0.2755 -0.6585
 3361TIP3    H131498   6.560   6.684   5.378  1.1108  3.2283 -0.4267
 3361TIP3    H231499   6.418   6.725   5.345 -0.0288  0.1404  0.2872
 3362TIP3   OH231500   1.022   2.214   2.760 -1.2297 -0.4719 -0.2474
 3362TIP3    H131501   0.990   2.299   2.731 -1.3111 -1.0875 -2.0867
 3362TIP3    H231502   1.044   2.167   2.680 -1.0494 -2.1483  0.7160
 3363TIP3   OH231503   5.015   6.416   0.874  0.2046 -0.9814 -0.6241
 3363TIP3    H131504   4.955   6.395   0.946 -0.4175 -0.0765 -0.8635
 3363TIP3    H231505   5.082   6.471   0.915  1.2083 -2.4110 -0.2420
 3364TIP3   OH231506   4.828   3.508  16.422 -0.4676  0.1770  0.0771
 3364TIP3    H131507   4.780   3.432  16.455  1.7068 -0.7898  1.2071
 3364TIP3    H231508   4.884   3.473  16.353  1.1768  0.5140  1.1759
 3365TIP3   OH231509   0.303   4.304   5.482  0.7725  0.6556  0.2303
 3365TIP3    H131510   0.233   4.339   5.538  0.8113 -0.5415  1.0641
 3365TIP3    H231511   0.382   4.350   5.512  0.2557  2.7681 -1.3979
 3366TIP3   OH231512   2.743   4.518   2.234  0.0186 -0.0392  0.3679
 3366TIP3    H131513   2.669   4.573   2.257 -1.9509 -1.8417 -1.1804
 3366TIP3    H231514   2.773   4.551   2.149 -0.0517 -0.2640  0.2526
 3367TIP3   OH231515   1.895   4.770  15.115 -0.1225 -0.4523 -0.0395
 3367TIP3    H131516   1.929   4.697  15.166 -2.4419 -1.4376  0.2085
 3367TIP3    H231517   1.823   4.805  15.168 -0.5119  0.5521 -1.1934
 3368TIP3   OH231518   3.373   4.878  13.319  0.4980 -0.2792  0.3049
 3368TIP3    H131519   3.323   4.954  13.289  0.6153 -1.0873 -2.1394
 3368TIP3    H231520   3.363   4.814  13.249  0.2109 -2.6495  2.3716
 3369TIP3   OH231521   0.553   1.870  15.184  0.2826  0.3476 -0.4197
 3369TIP3    H131522   0.632   1.862  15.130 -0.7772 -0.8014 -1.8636
 3369TIP3    H231523   0.487   1.819  15.138 -0.9384  0.0894  1.5173
 3370TIP3   OH231524   3.429   4.050   0.440  0.4160  0.1938 -0.6124
 3370TIP3    H131525   3.376   4.126   0.462 -0.1775 -0.6407  1.0287
 3370TIP3    H231526   3.380   4.006   0.369 -0.1232  0.4282 -0.3910
 3371TIP3   OH231527   0.133   5.770   4.414  0.0963  0.1651 -0.1047
 3371TIP3    H131528   0.181   5.693   4.384 -0.3449 -0.3868  0.5656
 3371TIP3    H231529   0.094   5.807   4.335 -0.3042 -0.7301 -0.3337
 3372TIP3   OH231530   6.781   1.112   3.959  0.4214 -0.3311  0.0214
 3372TIP3    H131531   6.876   1.104   3.963  0.4943  0.3989 -0.0258
 3372TIP3    H231532   6.764   1.162   3.879  0.0883  0.6430  0.6729
 3373TIP3   OH231533   1.786   1.757  13.862  0.1944  0.5356  0.7725
 3373TIP3    H131534   1.699   1.789  13.840  0.5372  1.2979  0.5147
 3373TIP3    H231535   1.829   1.830  13.906  0.4213 -0.1106  1.6775
 3374TIP3   OH231536   0.197   4.888   1.387 -0.3785  0.1629  0.8598
 3374TIP3    H131537   0.274   4.925   1.432  0.1685 -0.5228  0.5022
 3374TIP3    H231538   0.206   4.917   1.297  0.0529 -0.8088  0.5763
 3375TIP3   OH231539   3.196   2.602  15.029 -0.2644  0.0456  0.0667
 3375TIP3    H131540   3.211   2.654  15.107 -0.8117 -0.8422  0.7879
 3375TIP3    H231541   3.141   2.657  14.973  1.7342  1.4751 -0.6095
 3376TIP3   OH231542   3.118   5.876   2.319  0.1103  0.3009  0.4433
 3376TIP3    H131543   3.137   5.806   2.382 -0.0715 -0.3053 -0.1691
 3376TIP3    H231544   3.181   5.863   2.248  0.5029  1.1553  0.6190
 3377TIP3   OH231545   3.726   2.422  12.691  0.0731  0.0420 -0.1301
 3377TIP3    H131546   3.768   2.507  12.679 -0.6018  0.4863  0.5449
 3377TIP3    H231547   3.665   2.415  12.617  1.4669 -0.7193 -1.2562
 3378TIP3   OH231548   4.658   6.300  14.021  0.4330  0.8675  0.3094
 3378TIP3    H131549   4.743   6.261  14.040  0.1564  0.3455  0.4890
 3378TIP3    H231550   4.667   6.392  14.048  1.4841  1.2700 -1.2657
 3379TIP3   OH231551   5.373   3.585  14.494 -1.2632 -0.5870 -0.2063
 3379TIP3    H131552   5.348   3.629  14.575  1.3337 -1.2097  1.0338
 3379TIP3    H231553   5.393   3.656  14.434  0.1243 -0.0447  0.8485
 3380TIP3   OH231554   3.517   5.704  10.793 -0.0147 -0.6354 -0.5476
 3380TIP3    H131555   3.576   5.684  10.866 -0.5638 -0.6613 -0.1071
 3380TIP3    H231556   3.447   5.757  10.832 -0.9604 -1.6587 -0.8033
 3381TIP3   OH231557   2.652   0.456  14.738 -0.8146 -0.0362 -0.3814
 3381TIP3    H131558   2.692   0.375  14.769 -0.0739  0.6588  0.5345
 3381TIP3    H231559   2.686   0.468  14.650 -0.1552 -0.2142 -0.1525
 3382TIP3   OH231560   6.703   0.064   4.115 -0.2528 -0.4570  0.0444
 3382TIP3    H131561   6.711   0.157   4.092  3.0086 -0.4060  0.8853
 3382TIP3    H231562   6.705   0.018   4.031 -0.2095  0.1574 -0.2974
 3383TIP3   OH231563   5.387   4.619   0.680 -0.0125  0.4335  0.2278
 3383TIP3    H131564   5.357   4.531   0.704  1.3123 -0.3421 -0.8114
 3383TIP3    H231565   5.390   4.617   0.585  2.8281  0.5882  0.2477
 3384TIP3   OH231566   4.893   5.835  14.746  0.3123 -0.1609  0.3085
 3384TIP3    H131567   4.822   5.876  14.796  0.5147  0.4336  0.1118
 3384TIP3    H231568   4.850   5.762  14.701  0.2362 -1.0727  1.7813
 3385TIP3   OH231569   3.547   3.693  14.946 -0.4559 -0.3550 -0.1455
 3385TIP3    H131570   3.492   3.659  14.876  0.2094  1.5491 -1.6681
 3385TIP3    H231571   3.504   3.774  14.974 -1.1867 -1.4853  2.3284
 3386TIP3   OH231572   0.583   6.094  11.994  0.1401  0.2987 -0.5112
 3386TIP3    H131573   0.525   6.018  11.991  0.1282  0.2137  1.0538
 3386TIP3    H231574   0.628   6.094  11.909 -1.0180 -0.5189 -1.1551
 3387TIP3   OH231575   6.232   1.864   3.712 -0.1169 -0.0855  0.5050
 3387TIP3    H131576   6.190   1.921   3.776  0.6156 -0.7388  1.5949
 3387TIP3    H231577   6.314   1.909   3.689 -0.1601 -0.0754  0.3666
 3388TIP3   OH231578   2.556   2.887   6.375 -0.4213 -0.2296 -0.5862
 3388TIP3    H131579   2.474   2.839   6.389 -0.6514  0.1917 -0.4665
 3388TIP3    H231580   2.529   2.972   6.341 -0.0857  0.1972  0.1725
 3389TIP3   OH231581   5.921   4.274  15.484  0.4855 -0.3470  0.0634
 3389TIP3    H131582   5.840   4.275  15.534  0.9258 -0.0640  0.7814
 3389TIP3    H231583   5.989   4.254  15.548  1.1867  1.0701 -0.1940
 3390TIP3   OH231584   4.891   6.363   6.335  0.3143  0.1144  0.1802
 3390TIP3    H131585   4.922   6.449   6.361 -0.0768 -0.4122  2.5741
 3390TIP3    H231586   4.822   6.342   6.397 -1.3625 -0.8986 -1.8941
 3391TIP3   OH231587   6.160   5.463   5.473  0.1758  0.1782 -0.1195
 3391TIP3    H131588   6.175   5.554   5.497 -0.4481  0.0927  0.6474
 3391TIP3    H231589   6.122   5.423   5.552  2.0385 -1.1725  0.1494
 3392TIP3   OH231590   2.001   1.761  10.428 -0.0037 -0.1129 -0.1001
 3392TIP3    H131591   2.022   1.689  10.369  0.2920  0.7110 -1.0385
 3392TIP3    H231592   2.082   1.812  10.434  0.4576 -1.0112  2.2836
 3393TIP3   OH231593   4.406   4.275  16.910 -0.2815 -0.2807 -0.1135
 3393TIP3    H131594   4.385   4.327  16.988  0.5932  0.3379 -0.2804
 3393TIP3    H231595   4.501   4.262  16.915 -0.3860 -1.2661 -0.4524
 3394TIP3   OH231596   1.901   2.530   0.232  0.5315 -0.5270 -0.4589
 3394TIP3    H131597   1.902   2.563   0.142  0.2175  0.2014 -0.2025
 3394TIP3    H231598   1.950   2.596   0.281 -0.7573 -0.0250  0.1955
 3395TIP3   OH231599   1.222   1.494  16.730  0.0264 -0.4458 -1.1020
 3395TIP3    H131600   1.218   1.589  16.739  1.0562 -0.5022  0.1622
 3395TIP3    H231601   1.240   1.479  16.637 -0.1868  0.5834 -1.3162
 3396TIP3   OH231602   0.398   3.193   5.687 -0.2009 -0.0480  0.3688
 3396TIP3    H131603   0.458   3.160   5.753  0.5903  0.8093  0.0925
 3396TIP3    H231604   0.338   3.250   5.735  1.0506  1.4537  0.2092
 3397TIP3   OH231605   0.902   2.004   0.292  0.3462 -0.3970  0.1942
 3397TIP3    H131606   0.951   2.066   0.346 -2.2434  0.7188  1.4695
 3397TIP3    H231607   0.904   2.042   0.204  0.1387  0.7115  0.6438
 3398TIP3   OH231608   3.183   0.268  12.925  0.5786  0.1933 -0.1602
 3398TIP3    H131609   3.119   0.221  12.979  1.5011  0.5859  1.3616
 3398TIP3    H231610   3.201   0.209  12.852 -1.7607  0.2417 -0.8505
 3399TIP3   OH231611   2.610   4.171  15.058 -0.6462  0.5074  0.4228
 3399TIP3    H131612   2.518   4.189  15.041 -1.7449 -1.8207  3.1271
 3399TIP3    H231613   2.656   4.210  14.984 -3.7021  2.3115 -0.7077
 3400TIP3   OH231614   3.857   0.473  14.130 -0.0226  0.2718  0.0652
 3400TIP3    H131615   3.796   0.536  14.092 -1.2750 -0.4765  0.7842
 3400TIP3    H231616   3.803   0.418  14.187  1.1498 -1.0461 -0.0427
 3401TIP3   OH231617   3.867   6.126   6.275  0.9270 -0.3067  0.0462
 3401TIP3    H131618   3.939   6.120   6.213  0.5118 -1.8639 -0.3225
 3401TIP3    H231619   3.874   6.214   6.312  1.6464  0.3822 -1.6318
 3402TIP3   OH231620   2.569   6.734   5.567  0.1284 -0.1398  0.6569
 3402TIP3    H131621   2.556   6.641   5.547  1.7940 -0.0342 -1.2030
 3402TIP3    H231622   2.661   6.740   5.594  0.0808  0.9895  0.6180
 3403TIP3   OH231623   1.827   0.070   0.888 -0.0185 -0.1751 -0.8899
 3403TIP3    H131624   1.879   0.061   0.808 -0.4955  1.3025 -1.4011
 3403TIP3    H231625   1.875   0.134   0.940 -0.3879 -0.1778 -0.5477
 3404TIP3   OH231626   1.972   3.350  16.890  0.0941  0.2014  0.2718
 3404TIP3    H131627   2.060   3.317  16.876  0.3944  0.3572  1.6505
 3404TIP3    H231628   1.975   3.441  16.860 -0.3303 -0.4885 -2.0958
 3405TIP3   OH231629   0.123   2.740   4.617 -0.1304  0.5029  0.1526
 3405TIP3    H131630   0.168   2.656   4.628 -2.0801 -0.8993 -1.7897
 3405TIP3    H231631   0.193   2.801   4.594  1.0246 -1.3246 -1.6280
 3406TIP3   OH231632   6.322   4.209   2.962  0.0018  0.1573 -0.1265
 3406TIP3    H131633   6.329   4.297   2.926 -0.8944  0.3059  0.0482
 3406TIP3    H231634   6.288   4.156   2.890  0.3849 -0.0182 -0.1822
 3407TIP3   OH231635   0.552   3.788  16.479 -0.4477  0.6966 -0.1094
 3407TIP3    H131636   0.614   3.810  16.410  0.1279  1.8111  0.7168
 3407TIP3    H231637   0.512   3.872  16.503 -2.9813 -0.1055 -1.2331
 3408TIP3   OH231638   0.772   0.128   1.842  0.3442  0.3834  0.1568
 3408TIP3    H131639   0.773   0.034   1.822  0.6315 -0.0426  1.9358
 3408TIP3    H231640   0.749   0.170   1.760 -0.5937 -1.2969 -0.4914
 3409TIP3   OH231641   4.333   2.920  17.277 -1.1821  0.1771  0.3068
 3409TIP3    H131642   4.337   2.860  17.352 -0.0394  0.6605  0.6505
 3409TIP3    H231643   4.406   2.892  17.221 -0.4444  1.4150  0.6176
 3410TIP3   OH231644   2.404   5.062  12.489  0.2990  0.6277 -0.6800
 3410TIP3    H131645   2.480   5.119  12.506  1.9506 -1.3712 -0.9439
 3410TIP3    H231646   2.355   5.064  12.571 -0.0200  2.8171 -0.8534
 3411TIP3   OH231647   1.450   6.475  16.522 -0.4617  0.2882 -0.1287
 3411TIP3    H131648   1.458   6.395  16.573 -1.0731  1.1828  1.4452
 3411TIP3    H231649   1.395   6.532  16.575 -0.9993  1.3375 -1.7404
 3412TIP3   OH231650   5.336   2.735   4.782 -0.0306 -0.3237 -0.2808
 3412TIP3    H131651   5.427   2.707   4.783 -0.5306 -2.0485  0.9642
 3412TIP3    H231652   5.334   2.814   4.837  0.6792 -0.3336 -0.2372
 3413TIP3   OH231653   3.110   5.882  16.497  0.2174  0.3293 -0.0893
 3413TIP3    H131654   3.187   5.901  16.443  0.3198 -0.1979 -0.1430
 3413TIP3    H231655   3.140   5.893  16.587  0.6321 -0.7654 -0.0707
 3414TIP3   OH231656   4.259   1.536   2.326 -0.2621  0.0271 -0.4872
 3414TIP3    H131657   4.199   1.494   2.264  0.0218  0.3292 -0.9676
 3414TIP3    H231658   4.211   1.535   2.409 -0.1380 -1.5278 -0.4034
 3415TIP3   OH231659   4.930   3.177   4.094 -0.0610  0.3726 -0.1289
 3415TIP3    H131660   5.006   3.216   4.050  0.0681  0.2084 -0.0520
 3415TIP3    H231661   4.964   3.098   4.134  0.0240  0.9863  1.0426
 3416TIP3   OH231662   5.095   6.012  14.982  0.5420 -0.2484  0.3737
 3416TIP3    H131663   5.096   5.953  15.057  1.0403 -1.0632 -0.2546
 3416TIP3    H231664   5.125   5.958  14.909  1.6205  0.9480 -0.0985
 3417TIP3   OH231665   1.969   3.694  17.094 -0.4046  0.0397  0.0806
 3417TIP3    H131666   1.893   3.647  17.128 -0.9648 -0.3778 -1.6200
 3417TIP3    H231667   2.025   3.708  17.170 -1.8505 -0.2700  1.2544
 3418TIP3   OH231668   5.670   4.222  17.070 -0.2583 -0.3391 -0.0287
 3418TIP3    H131669   5.672   4.240  16.976 -1.7314 -1.5364 -0.3324
 3418TIP3    H231670   5.758   4.191  17.091  0.4532  1.1464 -0.7347
 3419TIP3   OH231671   5.566   5.012  11.519  0.7731 -0.5419 -0.0554
 3419TIP3    H131672   5.564   5.022  11.615 -0.6441 -1.6862  0.0578
 3419TIP3    H231673   5.660   5.013  11.498  1.0935  0.3121  1.2721
 3420TIP3   OH231674   1.928   3.540   3.417 -0.1715  0.2318  0.1374
 3420TIP3    H131675   1.999   3.552   3.480 -0.4011  0.6248  0.3224
 3420TIP3    H231676   1.860   3.493   3.465  0.3837 -1.1293 -0.3436
 3421TIP3   OH231677   0.607   0.209   0.044 -0.1133  0.7112  0.2153
 3421TIP3    H131678   0.641   0.256   0.121 -0.3818  1.2325  0.0242
 3421TIP3    H231679   0.615   0.272  -0.028 -2.9471  1.5134  0.4517
 3422TIP3   OH231680   0.430   0.774   3.854 -0.2360  0.0210  0.5572
 3422TIP3    H131681   0.484   0.793   3.777 -0.8694 -0.9418 -0.1389
 3422TIP3    H231682   0.431   0.679   3.862 -0.2116  0.1037  1.7332
 3423TIP3   OH231683   5.653   1.758  12.200  0.7559  0.2623 -0.3578
 3423TIP3    H131684   5.641   1.841  12.153 -2.6270 -0.7673 -1.5890
 3423TIP3    H231685   5.614   1.773  12.286  0.3589 -0.0048 -0.4949
 3424TIP3   OH231686   6.350   6.322   5.859  0.2137  0.4207  0.0672
 3424TIP3    H131687   6.288   6.293   5.927  0.2509  0.7525  0.2457
 3424TIP3    H231688   6.311   6.293   5.777 -0.2134  0.6828  0.1749
 3425TIP3   OH231689   5.390   1.212   4.084  0.2125 -0.4045  0.0888
 3425TIP3    H131690   5.322   1.168   4.135  1.0590  0.5764  2.1850
 3425TIP3    H231691   5.451   1.245   4.149  1.7320  0.3643 -1.6336
 3426TIP3   OH231692   4.399   3.623   0.043 -0.3276  0.3939  0.1385
 3426TIP3    H131693   4.362   3.694   0.096  2.4518  1.7559  0.4359
 3426TIP3    H231694   4.443   3.668  -0.029 -1.9324 -1.3127 -2.0677
 3427TIP3   OH231695   3.984   6.374  13.929  0.0339  0.0645  0.1875
 3427TIP3    H131696   3.894   6.390  13.903  0.1303 -0.4599 -0.4739
 3427TIP3    H231697   4.034   6.378  13.848  0.3220 -1.6881  0.2484
 3428TIP3   OH231698   4.165   5.286   4.934 -0.4103 -0.1042  0.0035
 3428TIP3    H131699   4.086   5.340   4.929  0.8314  1.8409  0.4355
 3428TIP3    H231700   4.191   5.290   5.025  2.0543  2.1922 -0.6824
 3429TIP3   OH231701   2.927   6.107   1.093 -0.4450 -0.2193  0.3865
 3429TIP3    H131702   2.861   6.158   1.141  0.5062  2.2536 -0.7734
 3429TIP3    H231703   3.009   6.126   1.138  0.2821  1.2104 -1.4289
 3430TIP3   OH231704   4.432   1.088   2.263 -0.3878 -0.7159  0.4711
 3430TIP3    H131705   4.409   1.075   2.172  0.1997 -0.0272  0.2136
 3430TIP3    H231706   4.523   1.119   2.261 -0.6999  0.2944  1.2243
 3431TIP3   OH231707   4.395   6.025  15.271 -0.1803  0.0735  0.2683
 3431TIP3    H131708   4.466   6.066  15.221 -0.9624 -1.2925 -2.1247
 3431TIP3    H231709   4.439   5.969  15.335  0.9007  0.1644 -0.3767
 3432TIP3   OH231710   4.288   0.439  13.155  0.1012  0.4490 -0.4661
 3432TIP3    H131711   4.232   0.447  13.077  0.5203  0.5915 -0.7546
 3432TIP3    H231712   4.284   0.346  13.178  0.0355  0.3930 -0.7021
 3433TIP3   OH231713   1.143   0.565  15.989  0.4488 -0.7417  0.5527
 3433TIP3    H131714   1.211   0.581  16.054 -0.2800  0.2528  1.0957
 3433TIP3    H231715   1.080   0.507  16.033  0.1074 -0.3133  0.6341
 3434TIP3   OH231716   0.701   4.329   5.120 -0.2641 -0.4290 -0.3842
 3434TIP3    H131717   0.640   4.306   5.050 -2.6310  1.0037  1.0912
 3434TIP3    H231718   0.749   4.248   5.138  0.3404 -0.8810 -3.4908
 3435TIP3   OH231719   4.393   3.842  12.037  0.9691  0.1620  0.2962
 3435TIP3    H131720   4.405   3.929  12.075 -0.8550  1.1735 -1.2416
 3435TIP3    H231721   4.424   3.851  11.947  0.1473 -0.5574 -0.0722
 3436TIP3   OH231722   6.788   5.523  13.207  0.6920  0.2071 -0.4372
 3436TIP3    H131723   6.813   5.469  13.282  1.0574  0.6734 -0.2211
 3436TIP3    H231724   6.725   5.469  13.159  0.8058 -0.2805 -0.0480
 3437TIP3   OH231725   3.024   4.482   3.290  0.0819  0.3560  0.0706
 3437TIP3    H131726   3.077   4.414   3.248  0.1628  1.1606 -1.2023
 3437TIP3    H231727   3.060   4.564   3.256 -0.8143  0.9859  0.6087
 3438TIP3   OH231728   5.909   2.814  13.156 -0.2374  0.5407  0.2097
 3438TIP3    H131729   5.983   2.835  13.213 -0.7024  1.5259  0.4850
 3438TIP3    H231730   5.948   2.773  13.079  0.3495 -1.5043  1.5281
 3439TIP3   OH231731   5.037   4.824   0.071 -0.1000  0.3517 -0.0119
 3439TIP3    H131732   5.019   4.817  -0.023 -2.2990 -0.3487  0.4052
 3439TIP3    H231733   4.994   4.905   0.097  0.1829  0.3476  0.4623
 3440TIP3   OH231734   1.570   1.415  10.984 -0.1469  0.6108  0.4220
 3440TIP3    H131735   1.540   1.427  11.074 -1.0515  0.6822  0.1164
 3440TIP3    H231736   1.516   1.475  10.932  1.0229  1.3045 -0.0576
 3441TIP3   OH231737   4.546   4.672  14.839 -0.1361  0.3343 -0.4805
 3441TIP3    H131738   4.545   4.760  14.877 -0.1074  0.8313 -1.6020
 3441TIP3    H231739   4.608   4.677  14.766 -0.1226 -0.6242 -0.5576
 3442TIP3   OH231740   0.926   2.957   3.239 -0.4146 -0.2280  0.2395
 3442TIP3    H131741   0.960   3.027   3.295  1.4216 -1.3377  0.5746
 3442TIP3    H231742   0.896   3.002   3.160  0.4120  0.9745  0.5838
 3443TIP3   OH231743   4.905   5.603  15.148  0.5597  0.3080 -0.0357
 3443TIP3    H131744   4.862   5.518  15.152 -0.2287  0.2771 -4.3827
 3443TIP3    H231745   4.982   5.594  15.204 -1.3513 -1.9710  2.4594
 3444TIP3   OH231746   2.049   2.062   0.010  0.3691 -0.0746  0.1534
 3444TIP3    H131747   1.981   2.066   0.078  0.5714 -0.6439  0.3979
 3444TIP3    H231748   2.001   2.041  -0.070  0.1415  0.4873  0.1412
 3445TIP3   OH231749   0.167   1.504  15.988  1.3102  0.2431 -0.2731
 3445TIP3    H131750   0.083   1.460  15.992  1.5813 -0.2721 -0.2335
 3445TIP3    H231751   0.216   1.470  16.062  1.6973  0.2498 -0.5214
 3446TIP3   OH231752   3.191   6.748  15.307  0.1685 -0.2153 -0.3189
 3446TIP3    H131753   3.173   6.734  15.400 -0.9129  1.8312 -0.1751
 3446TIP3    H231754   3.130   6.690  15.261 -0.3603 -0.1049  0.2438
 3447TIP3   OH231755   0.048   0.847  14.375 -0.1133 -0.4468  0.3957
 3447TIP3    H131756   0.001   0.929  14.361  1.4447  0.6771  1.2754
 3447TIP3    H231757   0.023   0.820  14.463 -1.2107 -1.3538 -0.1787
 3448TIP3   OH231758   2.895   2.566   6.110 -0.6431  0.4477  0.1465
 3448TIP3    H131759   2.950   2.592   6.183 -0.0895  0.1491 -0.1594
 3448TIP3    H231760   2.898   2.470   6.110 -1.6184  0.4001  0.4693
 3449TIP3   OH231761   2.256   4.326  13.348 -0.3086 -0.0394  0.1158
 3449TIP3    H131762   2.326   4.265  13.372 -0.1165  0.1860  0.1375
 3449TIP3    H231763   2.195   4.273  13.296 -0.3939 -0.3690  0.5466
 3450TIP3   OH231764   0.300   0.782   0.553 -0.4128 -0.0468 -0.4493
 3450TIP3    H131765   0.339   0.862   0.517  0.2050 -1.2824 -2.7091
 3450TIP3    H231766   0.209   0.785   0.526 -0.7918  0.6306  0.8508
 3451TIP3   OH231767   1.173   1.887   6.016 -0.0014 -0.4355 -0.4180
 3451TIP3    H131768   1.083   1.920   6.019 -0.4261 -1.4484 -1.3850
 3451TIP3    H231769   1.170   1.814   5.955  1.7905  0.4218 -1.6250
 3452TIP3   OH231770   3.103   5.175  14.985  0.0372 -0.2765 -0.7232
 3452TIP3    H131771   3.131   5.169  15.077  4.7218  0.0464 -1.8846
 3452TIP3    H231772   3.133   5.094  14.946  0.3167  0.6027 -2.4191
 3453TIP3   OH231773   0.548   0.886  14.572 -0.3310 -0.3779  0.4948
 3453TIP3    H131774   0.590   0.965  14.606  2.0957 -0.6475 -1.6024
 3453TIP3    H231775   0.490   0.917  14.503 -0.8450 -0.3169  0.9417
 3454TIP3   OH231776   2.092   6.585  14.427 -0.3473 -0.6770  0.0831
 3454TIP3    H131777   2.024   6.548  14.370  1.1032  0.2516 -2.3854
 3454TIP3    H231778   2.162   6.612  14.368  1.6522 -0.3760  2.4043
 3455TIP3   OH231779   3.975   0.545   2.701  0.1645  0.0677  0.2599
 3455TIP3    H131780   4.054   0.591   2.674 -0.3000  0.6027 -0.2446
 3455TIP3    H231781   3.958   0.576   2.790  1.3430 -1.2006  0.9466
 3456TIP3   OH231782   4.939   3.232  11.908  0.1567 -0.3940  0.4101
 3456TIP3    H131783   4.955   3.140  11.927 -0.1491 -0.9332 -1.7051
 3456TIP3    H231784   5.023   3.275  11.924  0.5135 -1.1642  0.6442
 3457TIP3   OH231785   1.580   4.143  16.030 -0.6401  0.0902 -0.0749
 3457TIP3    H131786   1.583   4.237  16.047 -0.7442  0.0400  0.2201
 3457TIP3    H231787   1.496   4.114  16.066 -1.8315  0.3319 -2.4229
 3458TIP3   OH231788   0.907   3.831  12.212 -0.2689 -0.5295 -0.1258
 3458TIP3    H131789   0.844   3.826  12.139 -0.5829  0.6562  0.0425
 3458TIP3    H231790   0.865   3.782  12.283 -0.5725 -0.5530 -0.3183
 3459TIP3   OH231791   2.208   1.408  16.727 -0.0136  0.2548 -0.9828
 3459TIP3    H131792   2.297   1.401  16.692  0.5004  0.2028  0.2796
 3459TIP3    H231793   2.155   1.437  16.653  1.0906  0.4669 -1.7101
 3460TIP3   OH231794   6.464   2.892  16.264  0.7716 -0.1395  0.0803
 3460TIP3    H131795   6.479   2.923  16.353  0.3325 -0.8814  0.4277
 3460TIP3    H231796   6.375   2.922  16.243  0.1198 -1.5886  0.6323
 3461TIP3   OH231797   0.776   1.223   2.037  0.1710  0.0973 -0.4983
 3461TIP3    H131798   0.826   1.290   2.083 -3.0017  3.8452 -1.9742
 3461TIP3    H231799   0.799   1.236   1.945 -0.1230 -1.2543 -0.7790
 3462TIP3   OH231800   0.971   6.128   3.650 -0.2429  0.2786 -0.3562
 3462TIP3    H131801   0.892   6.111   3.702 -1.2636  1.0713 -1.5842
 3462TIP3    H231802   0.950   6.207   3.600  0.8795 -0.1929 -1.6186
 3463TIP3   OH231803   1.940   2.856  13.465  0.2842 -0.1789 -0.0378
 3463TIP3    H131804   1.861   2.899  13.499  0.4964 -1.0385  1.6473
 3463TIP3    H231805   1.985   2.823  13.543  0.6279 -2.5705 -1.1620
 3464TIP3   OH231806   2.905   1.359   2.126  0.0759 -0.1735 -0.7810
 3464TIP3    H131807   2.985   1.340   2.176  1.8800 -0.1541 -3.4257
 3464TIP3    H231808   2.843   1.291   2.153  1.2659 -0.7309  0.7151
 3465TIP3   OH231809   4.879   0.139   0.633 -0.0985 -0.8292  0.4676
 3465TIP3    H131810   4.855   0.116   0.723 -2.3580  1.3256  0.5235
 3465TIP3    H231811   4.857   0.061   0.582 -3.0628 -0.6511  1.2567
 3466TIP3   OH231812   3.725   3.363   4.111  0.2315  0.0853  0.4425
 3466TIP3    H131813   3.767   3.308   4.046 -3.1098 -1.9811 -0.1871
 3466TIP3    H231814   3.712   3.447   4.067  0.4335 -0.4221 -0.6078
 3467TIP3   OH231815   2.119   0.005  13.869 -0.4696 -0.1577  0.5726
 3467TIP3    H131816   2.111   0.089  13.913 -0.0420 -0.2418  0.8166
 3467TIP3    H231817   2.033  -0.036  13.877 -0.0055 -0.8448  2.6873
 3468TIP3   OH231818   4.175   0.071   0.480 -0.2477 -0.1985 -0.5158
 3468TIP3    H131819   4.216  -0.005   0.523  0.0201  0.5178  0.5493
 3468TIP3    H231820   4.163   0.134   0.551 -2.5556 -0.0961 -0.9365
 3469TIP3   OH231821   2.697   0.161   0.880  0.3726 -0.2249  0.1990
 3469TIP3    H131822   2.711   0.201   0.794  0.9393 -1.9805 -0.5509
 3469TIP3    H231823   2.761   0.204   0.937  0.9815 -0.0694 -0.5894
 3470TIP3   OH231824   3.234   1.282  14.117  0.1471  0.0138 -0.5277
 3470TIP3    H131825   3.295   1.355  14.123 -1.9999  2.0105 -1.2494
 3470TIP3    H231826   3.257   1.238  14.035 -0.0093  1.3797 -1.3349
 3471TIP3   OH231827   2.570   4.114  11.410 -0.7014  0.2745  0.1418
 3471TIP3    H131828   2.570   4.049  11.481  1.5032  0.4039  0.3323
 3471TIP3    H231829   2.512   4.077  11.344  1.5841 -2.7046 -0.4025
 3472TIP3   OH231830   1.670   3.257   3.093  0.3920  0.2162 -0.0069
 3472TIP3    H131831   1.699   3.342   3.126 -1.5215  1.2307 -0.7855
 3472TIP3    H231832   1.613   3.222   3.161  0.9279 -0.3122  0.1781
 3473TIP3   OH231833   4.742   0.109  14.748 -0.8116  0.3793  0.7280
 3473TIP3    H131834   4.664   0.114  14.692  2.0424 -1.4692 -3.9618
 3473TIP3    H231835   4.757   0.015  14.760  1.7331  0.5677 -0.3665
 3474TIP3   OH231836   6.394   3.452   4.369 -0.0265 -0.2666  0.1685
 3474TIP3    H131837   6.322   3.410   4.414  0.3126  0.2873  1.2598
 3474TIP3    H231838   6.465   3.456   4.433  0.5882  0.2307 -0.5104
 3475TIP3   OH231839   5.325   0.074  11.398  0.3204  0.1384  0.5116
 3475TIP3    H131840   5.399   0.087  11.339  0.9426  0.3135  1.3094
 3475TIP3    H231841   5.280  -0.003  11.363 -0.0984  0.9993 -0.9345
 3476TIP3   OH231842   1.123   1.013   0.386 -0.3124  0.3666 -0.7079
 3476TIP3    H131843   1.074   0.964   0.453 -0.1889 -0.2347 -1.0513
 3476TIP3    H231844   1.178   0.947   0.344  0.2949  0.9165 -0.7838
 3477TIP3   OH231845   3.410   1.596  15.932  0.2771  0.2185 -0.4536
 3477TIP3    H131846   3.452   1.680  15.913  2.8886 -0.1214  2.7013
 3477TIP3    H231847   3.389   1.601  16.025 -0.0657 -2.3884 -0.3215
 3478TIP3   OH231848   0.641   0.479   0.826 -0.0522  0.6759  0.4810
 3478TIP3    H131849   0.578   0.501   0.895 -1.2002  0.3364 -0.4317
 3478TIP3    H231850   0.688   0.402   0.859  0.1884  1.1806  1.3450
 3479TIP3   OH231851   6.224   2.065  12.502  0.4890  0.7332 -0.7227
 3479TIP3    H131852   6.298   2.107  12.457  0.9150  0.3018 -0.4292
 3479TIP3    H231853   6.150   2.123  12.485  0.6355  0.5755 -2.0047
 3480TIP3   OH231854   2.595   5.579  11.799 -0.1836  0.4478  0.9401
 3480TIP3    H131855   2.663   5.512  11.810 -0.1201  0.3146 -0.1270
 3480TIP3    H231856   2.579   5.582  11.705 -2.2317 -0.0933  1.2060
 3481TIP3   OH231857   3.082   2.228  15.732 -0.4291  0.1978 -0.1379
 3481TIP3    H131858   3.155   2.218  15.671 -0.9501  3.0433 -1.3749
 3481TIP3    H231859   3.122   2.218  15.819  1.1827  0.3798 -0.8234
 3482TIP3   OH231860   5.479   2.260  12.101  0.3624  0.3630  0.2423
 3482TIP3    H131861   5.558   2.289  12.055 -0.4002  2.5114  0.1875
 3482TIP3    H231862   5.470   2.320  12.175  0.1260 -1.4245  1.7508
 3483TIP3   OH231863   3.152   5.919  12.726  0.4861 -0.2353  0.1099
 3483TIP3    H131864   3.173   6.003  12.685  0.1958 -0.5150 -0.6243
 3483TIP3    H231865   3.106   5.870  12.658 -2.4103  0.2827  1.5153
 3484TIP3   OH231866   4.503   0.543   3.729  0.1832  0.3580 -0.0605
 3484TIP3    H131867   4.438   0.612   3.743  0.1948  0.5389 -0.8705
 3484TIP3    H231868   4.486   0.511   3.641  0.9907  0.1966 -0.1641
 3485TIP3   OH231869   4.893   1.159   1.594  0.0289 -0.6989 -0.2302
 3485TIP3    H131870   4.931   1.235   1.550  1.8586 -0.3478  1.7896
 3485TIP3    H231871   4.806   1.189   1.622  0.5930  0.5620  0.2528
 3486TIP3   OH231872   0.956   2.426   6.142  0.5553 -0.0640 -0.4282
 3486TIP3    H131873   0.960   2.498   6.080  0.7650  0.6529  0.3956
 3486TIP3    H231874   1.046   2.417   6.174  0.3332 -0.0206  0.2203
 3487TIP3   OH231875   1.678   6.206   4.705 -0.7551 -0.1610  0.2825
 3487TIP3    H131876   1.727   6.153   4.643  0.6097  1.3056  0.0277
 3487TIP3    H231877   1.627   6.266   4.650  0.7103  1.3664  0.4990
 3488TIP3   OH231878   0.433   6.267   5.830  0.3136  0.3474  0.3429
 3488TIP3    H131879   0.443   6.346   5.882  2.3241 -0.9051  2.0540
 3488TIP3    H231880   0.520   6.227   5.830 -0.6430 -1.9417 -0.2888
 3489TIP3   OH231881   2.510   4.469  11.661  0.6545  0.2584  0.1340
 3489TIP3    H131882   2.474   4.389  11.698 -0.1915  0.4945 -0.1731
 3489TIP3    H231883   2.594   4.481  11.707 -0.0152  0.1366  1.4342
 3490TIP3   OH231884   1.595   0.616   5.063 -0.0716 -0.7710  0.0401
 3490TIP3    H131885   1.572   0.609   5.156 -1.1909  0.0891 -0.1381
 3490TIP3    H231886   1.511   0.613   5.018  0.5219 -2.0918 -1.0308
 3491TIP3   OH231887   5.502   1.631   3.043 -0.5135 -0.3277 -0.3352
 3491TIP3    H131888   5.447   1.607   3.118 -1.3811  2.5511  0.0661
 3491TIP3    H231889   5.568   1.690   3.079 -0.1951  0.1490 -1.6337
 3492TIP3   OH231890   1.837   3.582   6.051  0.0067  0.2469  0.6564
 3492TIP3    H131891   1.816   3.498   6.093  0.4446  0.3450  1.0721
 3492TIP3    H231892   1.914   3.614   6.098  1.5040 -0.3945 -1.2565
 3493TIP3   OH231893   3.396   4.383   0.231  0.1618  0.3038  0.3841
 3493TIP3    H131894   3.425   4.470   0.256  1.3381 -0.2785  1.1648
 3493TIP3    H231895   3.433   4.370   0.143  2.7968 -0.5746  1.5094
 3494TIP3   OH231896   1.417   5.680   5.163  0.0954  0.0761  0.3929
 3494TIP3    H131897   1.411   5.773   5.188  1.7085  0.5490 -0.7853
 3494TIP3    H231898   1.509   5.658   5.178 -0.0893 -1.1036 -0.1227
 3495TIP3   OH231899   5.627   6.316   3.227 -0.4014  0.3766  0.3564
 3495TIP3    H131900   5.650   6.247   3.166 -0.5037  0.7521 -0.1185
 3495TIP3    H231901   5.532   6.328   3.214 -0.3320  0.7986  0.2262
 3496TIP3   OH231902   3.272   3.214   3.246 -1.7198 -0.1919  0.0091
 3496TIP3    H131903   3.267   3.298   3.199  1.4679 -0.7775 -1.6449
 3496TIP3    H231904   3.211   3.157   3.199 -1.6663  0.3861 -0.7962
 3497TIP3   OH231905   0.720   2.423   5.946  0.1438  0.3026  0.1862
 3497TIP3    H131906   0.631   2.446   5.917  0.6957  0.0952 -1.8657
 3497TIP3    H231907   0.763   2.507   5.960 -0.2766  0.4051  0.9108
 3498TIP3   OH231908   1.819   1.191  13.558 -0.3289 -0.6316  0.2619
 3498TIP3    H131909   1.891   1.181  13.496 -0.1616 -1.1020  0.5244
 3498TIP3    H231910   1.741   1.165  13.508 -0.7100  2.1292 -0.7738
 3499TIP3   OH231911   4.859   1.145  15.438 -0.0433 -0.1411  0.0321
 3499TIP3    H131912   4.917   1.217  15.414  0.8049 -0.3596  1.3807
 3499TIP3    H231913   4.828   1.111  15.354  2.7398 -0.8179 -0.8031
 3500TIP3   OH231914   2.014   2.427  12.549  0.1640 -0.0000 -0.5269
 3500TIP3    H131915   1.966   2.499  12.591 -0.8934  0.1551 -1.9344
 3500TIP3    H231916   2.007   2.445  12.455  3.6313  0.4126 -0.8299
 3501TIP3   OH231917   6.761   1.656   1.713 -0.1796  0.0807 -0.1524
 3501TIP3    H131918   6.849   1.620   1.705 -0.1437  0.5755 -3.2954
 3501TIP3    H231919   6.775   1.749   1.730 -0.2258 -0.3673  2.8213
 3502TIP3   OH231920   1.973   5.021  15.364  0.3152  0.4778  0.5543
 3502TIP3    H131921   1.962   5.023  15.459  1.1605  0.9467  0.6508
 3502TIP3    H231922   2.068   5.015  15.350  0.3163  1.9269 -0.2615
 3503TIP3   OH231923   3.519   5.713   1.757  0.6555 -0.3534 -0.0928
 3503TIP3    H131924   3.439   5.752   1.722 -0.8264 -2.8192  0.3010
 3503TIP3    H231925   3.545   5.770   1.829  0.0908  1.2586 -1.1312
 3504TIP3   OH231926   0.482   0.006  10.997 -0.2574  0.2156 -0.5641
 3504TIP3    H131927   0.517   0.020  11.086 -0.2016  0.2938 -0.5984
 3504TIP3    H231928   0.418  -0.065  11.008 -0.7010  0.6470 -0.3510
 3505TIP3   OH231929   1.521   3.198  16.965  0.0548  0.6028  0.8095
 3505TIP3    H131930   1.428   3.197  16.944 -0.2214  0.4878  1.9504
 3505TIP3    H231931   1.526   3.164  17.055  1.2146  0.4016  0.6924
 3506TIP3   OH231932   0.425   5.261   5.997  0.2976 -0.2035  0.0761
 3506TIP3    H131933   0.408   5.173   6.032 -2.1192  0.1896  0.0488
 3506TIP3    H231934   0.482   5.246   5.922  1.7217 -1.5066  1.3332
 3507TIP3   OH231935   6.157   4.306   5.434 -0.3176 -0.3171 -0.3924
 3507TIP3    H131936   6.173   4.223   5.390 -0.6384  0.0523 -1.2217
 3507TIP3    H231937   6.237   4.323   5.484  0.0771 -0.7039 -0.8889
 3508TIP3   OH231938   4.594   5.037  15.663 -0.5288 -0.2783  0.2137
 3508TIP3    H131939   4.613   5.072  15.576 -0.7866 -0.0362  0.2503
 3508TIP3    H231940   4.648   5.090  15.722  1.0670 -1.6551  0.0516
 3509TIP3   OH231941   2.654   3.413   0.580 -0.0271  0.1034 -0.2639
 3509TIP3    H131942   2.610   3.387   0.499 -0.8004  0.9891 -0.1487
 3509TIP3    H231943   2.701   3.493   0.557 -1.0527  0.9192  0.3792
 3510TIP3   OH231944   4.454   0.701  11.580  0.5628  0.2928  0.3563
 3510TIP3    H131945   4.454   0.610  11.611 -3.1823 -0.5316 -1.4799
 3510TIP3    H231946   4.401   0.748  11.644 -0.8562  0.2158 -0.7043
 3511TIP3   OH231947   3.010   6.332   6.127 -0.1008 -0.0967 -0.1213
 3511TIP3    H131948   2.916   6.337   6.112 -0.4307  0.1469  1.8071
 3511TIP3    H231949   3.019   6.318   6.221  1.7939 -0.1639 -0.2715
 3512TIP3   OH231950   1.719   6.103   3.452  0.3211 -0.3210  0.2966
 3512TIP3    H131951   1.696   6.168   3.518  0.8354  1.8863 -1.5862
 3512TIP3    H231952   1.635   6.065   3.426  0.1508 -1.5817  2.4746
 3513TIP3   OH231953   0.080   0.017  13.804 -0.3658 -0.0164 -0.0166
 3513TIP3    H131954   0.143  -0.025  13.746  0.5055  0.8136  0.3012
 3513TIP3    H231955   0.131   0.082  13.852 -0.9827 -0.9054  1.9439
 3514TIP3   OH231956   4.972   5.287  13.935  0.0337  0.5742 -0.5758
 3514TIP3    H131957   4.924   5.256  13.858 -0.3833 -0.3654  0.0461
 3514TIP3    H231958   4.933   5.372  13.955 -1.4010 -0.1820 -0.0677
 3515TIP3   OH231959   1.190   2.295  14.151 -0.1896 -0.0998  0.0116
 3515TIP3    H131960   1.221   2.224  14.206 -1.6500 -0.3015  0.6361
 3515TIP3    H231961   1.265   2.352  14.139  1.3088 -2.2256 -1.3236
 3516TIP3   OH231962   5.514   6.023  14.801  0.1457 -0.5840 -0.2386
 3516TIP3    H131963   5.468   6.098  14.765  0.3561 -0.2915  0.1034
 3516TIP3    H231964   5.530   5.966  14.725  1.3414  0.4107 -0.7635
 3517TIP3   OH231965   4.501   0.857   5.687 -0.3592 -0.3185  0.3542
 3517TIP3    H131966   4.411   0.852   5.655 -0.6335  0.4900  0.9643
 3517TIP3    H231967   4.555   0.845   5.609 -1.0155  2.3448 -0.6215
 3518TIP3   OH231968   1.865   5.688  11.790 -0.6519  0.2351 -0.2651
 3518TIP3    H131969   1.776   5.659  11.809 -0.2307 -0.3567  0.8724
 3518TIP3    H231970   1.856   5.743  11.712 -1.8240 -0.9496 -1.0220
 3519TIP3   OH231971   6.441   3.083  10.762 -0.7639  0.3666 -0.5571
 3519TIP3    H131972   6.500   3.030  10.709 -0.5668  0.8726 -0.8488
 3519TIP3    H231973   6.454   3.051  10.852 -0.1494  0.3828 -0.6356
 3520TIP3   OH231974   0.658   5.580  16.951 -0.1251  0.2763 -0.2287
 3520TIP3    H131975   0.601   5.505  16.935 -1.1498  1.4443 -2.7349
 3520TIP3    H231976   0.607   5.637  17.009 -1.2955  0.9520 -1.8259
 3521TIP3   OH231977   2.696   6.690  14.132  0.2894  0.3581  0.2238
 3521TIP3    H131978   2.729   6.696  14.222 -0.3466  1.4929  0.3962
 3521TIP3    H231979   2.775   6.695  14.077  0.7830 -1.3028  0.7034
 3522TIP3   OH231980   3.279   3.601  15.371  0.0361 -0.3355 -0.4075
 3522TIP3    H131981   3.186   3.596  15.348 -0.0989 -1.4476  0.2663
 3522TIP3    H231982   3.279   3.604  15.467  0.6874 -0.1411 -0.4091
 3523TIP3   OH231983   5.739   1.686  16.558 -0.0784 -0.5208 -0.4175
 3523TIP3    H131984   5.763   1.770  16.518 -0.5611 -0.8066 -1.3124
 3523TIP3    H231985   5.725   1.708  16.650  0.8844  0.1690 -0.4084
 3524TIP3   OH231986   5.664   3.616  14.327  0.4183  0.5063 -0.0694
 3524TIP3    H131987   5.718   3.541  14.304 -0.0731  0.2235 -0.3094
 3524TIP3    H231988   5.574   3.589  14.308 -0.2464 -0.2503  3.4070
 3525TIP3   OH231989   5.919   5.700  15.236  0.0298 -0.2917 -0.3719
 3525TIP3    H131990   5.934   5.784  15.280  1.3455 -0.5672 -0.2376
 3525TIP3    H231991   5.917   5.722  15.143 -1.3992  0.1053 -0.2791
 3526TIP3   OH231992   5.649   2.699  14.012 -0.7755  0.4546 -0.3237
 3526TIP3    H131993   5.637   2.610  14.043  0.6107 -0.2702 -1.6980
 3526TIP3    H231994   5.713   2.737  14.072  1.1055 -0.5997 -1.5339
 3527TIP3   OH231995   2.317   5.795  13.639 -0.2912  0.5631  0.4437
 3527TIP3    H131996   2.331   5.889  13.631  0.0028  0.3727 -2.0896
 3527TIP3    H231997   2.317   5.778  13.734  0.6632  2.9319  0.9246
 3528TIP3   OH231998   1.670   2.354  16.560 -0.1528 -0.1793 -0.4152
 3528TIP3    H131999   1.726   2.310  16.624 -0.9823  0.1000  0.5370
 3528TIP3    H232000   1.646   2.286  16.498 -0.6479 -0.8669  0.4992
 3529TIP3   OH232001   1.397   4.173   1.649 -0.5776 -0.3592 -0.1133
 3529TIP3    H132002   1.343   4.102   1.614 -0.7518 -0.4285  0.2914
 3529TIP3    H232003   1.335   4.227   1.699 -0.0742 -1.0835  1.3408
 3530TIP3   OH232004   0.660   5.989   4.903 -0.2927  0.1152 -0.6832
 3530TIP3    H132005   0.619   5.904   4.918 -1.3220  0.1058 -3.1245
 3530TIP3    H232006   0.589   6.045   4.872  0.6583  1.4488 -0.5429
 3531TIP3   OH232007   6.006   1.076   3.712 -0.2168  0.2596 -0.8301
 3531TIP3    H132008   5.973   1.164   3.728  0.5752  0.6946 -1.4731
 3531TIP3    H232009   6.090   1.073   3.758 -0.4916 -0.3506 -0.3563
 3532TIP3   OH232010   4.354   2.808   1.146  0.0455 -0.8163 -0.0761
 3532TIP3    H132011   4.297   2.784   1.072 -2.8771 -2.5335  2.4886
 3532TIP3    H232012   4.392   2.725   1.174 -0.7230 -0.6090  1.6890
 3533TIP3   OH232013   2.418   2.275  11.960 -0.1082 -0.1490 -0.1192
 3533TIP3    H132014   2.353   2.246  12.024 -0.7654 -0.3163 -0.8477
 3533TIP3    H232015   2.447   2.195  11.917 -2.3215  0.2029 -2.5131
 3534TIP3   OH232016   3.245   4.012  14.043 -0.0362 -0.0857  0.0401
 3534TIP3    H132017   3.152   4.022  14.021  0.0157  3.2066  0.8595
 3534TIP3    H232018   3.254   4.052  14.129  2.0158 -1.1277  0.3635
 3535TIP3   OH232019   4.488   5.517  16.469  0.6014 -0.8315  0.1013
 3535TIP3    H132020   4.458   5.472  16.548  1.4607  0.2010  1.0469
 3535TIP3    H232021   4.571   5.557  16.494  0.8948 -0.4777 -1.3364
 3536TIP3   OH232022   4.638   2.106  10.893 -0.0292  0.8487  0.0973
 3536TIP3    H132023   4.696   2.154  10.834  0.6529  0.8494  0.7432
 3536TIP3    H232024   4.588   2.048  10.836  0.7670  0.6922 -0.4569
 3537TIP3   OH232025   3.366   6.530   0.404 -0.2133 -0.1220 -0.7116
 3537TIP3    H132026   3.338   6.591   0.335  0.6324 -1.0427 -1.9013
 3537TIP3    H232027   3.446   6.568   0.439  0.2044 -0.4300 -1.3164
 3538TIP3   OH232028   1.574   5.026  12.104 -0.4452 -0.4359  0.1005
 3538TIP3    H132029   1.558   4.999  12.014 -0.4074  0.3889 -0.1644
 3538TIP3    H232030   1.601   4.946  12.149  1.4739 -0.5154 -1.0712
 3539TIP3   OH232031   0.986   6.464  17.041  0.5760  0.7087 -0.1627
 3539TIP3    H132032   0.927   6.394  17.012 -0.3164  2.0291 -1.7282
 3539TIP3    H232033   1.067   6.448  16.994 -0.2228  1.6987 -1.9853
 3540TIP3   OH232034   5.453   4.142   3.042  0.4848  0.5639 -0.6590
 3540TIP3    H132035   5.364   4.117   3.020  0.0924  0.9523  0.4026
 3540TIP3    H232036   5.476   4.085   3.116  1.0852  0.5277 -0.8676
 3541TIP3   OH232037   5.502   5.634  12.065  0.1593 -0.0433  0.0168
 3541TIP3    H132038   5.434   5.700  12.049 -0.1842  0.0146  1.5722
 3541TIP3    H232039   5.464   5.577  12.132  1.2856 -0.5646  0.2253
 3542TIP3   OH232040   4.761   6.595   5.528 -0.1217  0.7179 -0.2221
 3542TIP3    H132041   4.753   6.503   5.501 -1.5826  0.6234  0.4159
 3542TIP3    H232042   4.815   6.635   5.460 -0.4173 -0.3726 -1.1322
 3543TIP3   OH232043   4.530   5.675  15.240  0.1278  0.6676  0.2003
 3543TIP3    H132044   4.602   5.677  15.177  0.5905  0.1692  0.7126
 3543TIP3    H232045   4.546   5.750  15.297  0.2167  0.5785  0.2917
 3544TIP3   OH232046   1.248   3.667   3.821  0.0320  0.6564  0.2099
 3544TIP3    H132047   1.289   3.656   3.735 -1.6632  1.4160 -0.7415
 3544TIP3    H232048   1.204   3.584   3.838  2.9058 -0.6821  1.8631
 3545TIP3   OH232049   1.886   4.183   2.945 -0.2767  0.5065  0.2116
 3545TIP3    H132050   1.806   4.130   2.937 -0.3743  0.8327 -1.1103
 3545TIP3    H232051   1.875   4.230   3.028 -1.4393  0.5071  0.0789
 3546TIP3   OH232052   0.672   5.801   6.057  0.3207  0.2250  1.2666
 3546TIP3    H132053   0.656   5.782   6.149  1.3760  1.0823  1.6509
 3546TIP3    H232054   0.616   5.739   6.009  0.9846 -1.3648  2.4558
 3547TIP3   OH232055   3.568   0.888   0.063  0.0348 -0.4009 -0.3347
 3547TIP3    H132056   3.595   0.912   0.152 -1.9200 -0.0245  0.1983
 3547TIP3    H232057   3.506   0.817   0.075 -1.6946  0.8890 -1.2326
 3548TIP3   OH232058   0.948   0.330   5.757 -0.7953 -0.6008  0.2783
 3548TIP3    H132059   0.904   0.391   5.817  0.2215  0.9007 -0.4314
 3548TIP3    H232060   1.039   0.359   5.755 -0.4279 -1.7218 -0.6425
 3549TIP3   OH232061   6.288   4.653  16.973 -0.2623  0.2854  0.3919
 3549TIP3    H132062   6.357   4.685  16.915  1.5203 -0.9134  1.7409
 3549TIP3    H232063   6.218   4.624  16.915  1.8578 -1.8628 -1.2598
 3550TIP3   OH232064   2.116   4.322   4.625  0.1928  0.2659  0.2912
 3550TIP3    H132065   2.147   4.371   4.701 -1.0004  0.0739  0.9252
 3550TIP3    H232066   2.084   4.240   4.661  2.7902 -1.3627 -0.8200
 3551TIP3   OH232067   0.660   3.247   4.316 -0.2891  0.0092  0.5412
 3551TIP3    H132068   0.612   3.324   4.285 -2.2970 -1.9995 -1.6817
 3551TIP3    H232069   0.733   3.239   4.256 -0.1232  0.1194  0.7268
 3552TIP3   OH232070   3.588   6.702   3.195 -0.2856 -0.0952 -0.0578
 3552TIP3    H132071   3.526   6.751   3.141  0.5730  0.9401 -0.1338
 3552TIP3    H232072   3.668   6.754   3.192 -0.4575  0.5293  2.9702
 3553TIP3   OH232073   3.436   3.044  12.539  0.0622  0.0946 -0.5889
 3553TIP3    H132074   3.475   3.072  12.622  1.3293 -3.1408  0.0655
 3553TIP3    H232075   3.357   2.997  12.564 -0.7287  0.9370 -1.4283
 3554TIP3   OH232076   2.619   2.718   3.482 -0.0193 -0.4272  0.5772
 3554TIP3    H132077   2.528   2.709   3.452 -0.0595  2.0326 -0.2347
 3554TIP3    H232078   2.670   2.667   3.419 -0.7226 -1.1205  0.5430
 3555TIP3   OH232079   5.268   4.358  12.663 -0.2442  0.3592 -0.2127
 3555TIP3    H132080   5.308   4.413  12.595 -0.9641  1.0026 -0.1295
 3555TIP3    H232081   5.333   4.290  12.680  0.8959  1.4739  0.0413
 3556TIP3   OH232082   6.608   3.114  11.517 -0.4034  0.6448 -0.6127
 3556TIP3    H132083   6.542   3.159  11.569 -0.5509  1.9134 -1.8594
 3556TIP3    H232084   6.653   3.183  11.469  2.6372 -0.0275  1.0097
 3557TIP3   OH232085   2.594   0.053   1.791  0.1089  0.3245 -0.0765
 3557TIP3    H132086   2.558   0.127   1.839 -0.3968  0.1052 -0.1165
 3557TIP3    H232087   2.543  -0.023   1.820  0.3996  0.0446 -0.2836
 3558TIP3   OH232088   1.265   3.364   2.300  0.2060 -0.4306  0.0685
 3558TIP3    H132089   1.311   3.364   2.216  0.6003 -2.6603  0.2100
 3558TIP3    H232090   1.307   3.433   2.351 -0.0925  1.0010 -1.5705
 3559TIP3   OH232091   1.133   4.058   2.881 -0.1988 -0.2321 -0.0539
 3559TIP3    H132092   1.195   3.987   2.867  0.3650  0.2337  0.0241
 3559TIP3    H232093   1.187   4.137   2.887 -0.7812  0.1602  0.2218
 3560TIP3   OH232094   2.550   2.221  16.729 -0.4740 -0.5865  0.3422
 3560TIP3    H132095   2.590   2.223  16.642  1.4800  0.4251  1.1958
 3560TIP3    H232096   2.518   2.310  16.743  0.7234 -0.2800  1.2756
 3561TIP3   OH232097   2.000   3.046  11.702 -0.2419  0.3670 -0.1818
 3561TIP3    H132098   2.009   3.141  11.699 -3.0739  0.7407 -3.0859
 3561TIP3    H232099   2.085   3.013  11.672  1.1290  1.8379  1.8303
 3562TIP3   OH232100   0.273   3.602  16.614  0.0588  0.1916 -0.8135
 3562TIP3    H132101   0.367   3.594  16.630 -0.0368  0.6157  0.0700
 3562TIP3    H232102   0.258   3.697  16.612  0.0106  0.2030 -3.3789
 3563TIP3   OH232103   4.045   0.540  14.965  0.1756 -0.0071 -0.7725
 3563TIP3    H132104   4.004   0.599  14.902  0.5036 -0.2054 -1.1754
 3563TIP3    H232105   4.136   0.569  14.968 -0.3463  1.6781  1.5324
 3564TIP3   OH232106   2.447   4.534  15.683  0.0574  0.1505  0.0123
 3564TIP3    H132107   2.362   4.492  15.672 -0.0555  0.6842 -1.3253
 3564TIP3    H232108   2.437   4.591  15.759 -0.4395 -0.6032  0.5196
 3565TIP3   OH232109   3.752   1.275  15.070 -0.6324  0.2389  0.2369
 3565TIP3    H132110   3.841   1.247  15.093 -0.7667 -0.0420  0.4208
 3565TIP3    H232111   3.737   1.236  14.984 -0.0557  1.4518 -0.4363
 3566TIP3   OH232112   6.752   2.072   5.324  0.5513 -0.2703  0.5002
 3566TIP3    H132113   6.771   2.077   5.418  0.2457 -2.2425  0.7018
 3566TIP3    H232114   6.742   1.979   5.306  0.2132  0.0944 -1.4319
 3567TIP3   OH232115   1.431   0.588  15.750 -0.3445 -0.3007  0.2158
 3567TIP3    H132116   1.465   0.672  15.779 -0.9238  0.1225 -0.3084
 3567TIP3    H232117   1.483   0.567  15.672 -1.8857  0.8161 -1.1646
 3568TIP3   OH232118   2.930   2.201  11.383 -0.8561 -0.1154  0.6457
 3568TIP3    H132119   3.014   2.246  11.395 -0.7647  0.8468 -2.5993
 3568TIP3    H232120   2.865   2.261  11.421 -0.4547  1.5530 -1.1267
 3569TIP3   OH232121   2.510   5.244   2.002  0.5566  0.1694 -0.1639
 3569TIP3    H132122   2.551   5.302   2.066 -1.2301  0.7444  0.5144
 3569TIP3    H232123   2.560   5.257   1.922  1.7064  0.7971  0.6320
 3570TIP3   OH232124   4.213   6.619  13.240  0.4426 -0.4428  0.2816
 3570TIP3    H132125   4.264   6.604  13.320  2.4811  2.2847 -0.3598
 3570TIP3    H232126   4.152   6.689  13.262  0.8691  0.1771 -0.4582
 3571TIP3   OH232127   2.550   6.294  11.688  0.7733  0.1845 -0.1473
 3571TIP3    H132128   2.525   6.202  11.690  0.1975  0.2337 -2.5688
 3571TIP3    H232129   2.493   6.335  11.753 -2.0767 -0.5173 -2.0263
 3572TIP3   OH232130   0.967   0.384  14.732 -0.5651  0.2271 -0.1823
 3572TIP3    H132131   1.011   0.312  14.776  0.0971 -0.6626 -2.1972
 3572TIP3    H232132   1.027   0.458  14.741  1.2439 -0.8279 -2.4248
 3573TIP3   OH232133   0.666   5.905   0.605 -0.0635  0.1278 -0.7020
 3573TIP3    H132134   0.695   5.993   0.581  0.1210  0.3401  0.2341
 3573TIP3    H232135   0.672   5.903   0.701 -2.8793  0.0934 -0.4281
 3574TIP3   OH232136   1.377   5.891  11.898  0.1711  0.0884 -0.7694
 3574TIP3    H132137   1.310   5.929  11.841  0.5868 -0.5296 -1.6836
 3574TIP3    H232138   1.370   5.941  11.979  0.2780  1.7120 -1.7167
 3575TIP3   OH232139   2.129   0.073  11.852 -0.1312  0.1996 -0.5124
 3575TIP3    H132140   2.188   0.036  11.918 -0.6591  0.8574  0.3540
 3575TIP3    H232141   2.071   0.000  11.829 -1.1326  0.4112  1.1444
 3576TIP3   OH232142   0.694   3.796  12.020  0.2477  0.1824  0.6899
 3576TIP3    H132143   0.729   3.871  11.971  0.9089 -0.3926  0.2716
 3576TIP3    H232144   0.674   3.731  11.952  1.0809 -0.5872  1.1649
 3577TIP3   OH232145   3.444   1.680  10.998  0.1551 -0.6343 -0.1163
 3577TIP3    H132146   3.455   1.732  10.918 -0.7336  0.6445  0.5497
 3577TIP3    H232147   3.525   1.631  11.006  0.6481 -0.0540 -1.2890
 3578TIP3   OH232148   5.721   6.157   3.033 -0.2445  0.3344  0.3046
 3578TIP3    H132149   5.692   6.068   3.015 -0.8499  0.8066 -1.1478
 3578TIP3    H232150   5.817   6.150   3.041 -0.2591 -0.3839 -0.1178
 3579TIP3   OH232151   1.919   6.203   5.094  0.2664 -0.2748 -0.0846
 3579TIP3    H132152   1.955   6.127   5.050  1.3173 -1.0715  2.0272
 3579TIP3    H232153   1.993   6.243   5.140 -0.5649  1.1273  0.1248
 3580TIP3   OH232154   2.270   5.151  15.103 -0.2362 -0.1085 -0.2689
 3580TIP3    H132155   2.182   5.184  15.122 -0.6531 -0.4606 -1.4624
 3580TIP3    H232156   2.328   5.202  15.160 -1.0393  1.3707 -0.7197
 3581TIP3   OH232157   5.679   3.066  13.638 -0.6163  0.1381  0.2503
 3581TIP3    H132158   5.702   3.030  13.553 -1.5922 -1.0574  0.4684
 3581TIP3    H232159   5.738   3.141  13.649  0.5635 -0.5922 -0.7975
 3582TIP3   OH232160   5.308   3.344  17.035  0.0243  0.2536 -0.1052
 3582TIP3    H132161   5.224   3.337  16.990  0.8514 -0.6764 -1.5789
 3582TIP3    H232162   5.294   3.411  17.102 -2.1268 -0.4992  0.2546
 3583TIP3   OH232163   6.039   6.403  12.984  0.3180  0.0725  0.2562
 3583TIP3    H132164   6.023   6.428  13.075 -0.2138  0.0695  0.1646
 3583TIP3    H232165   6.135   6.405  12.975  0.3412  0.9603  0.5666
 3584TIP3   OH232166   2.588   1.565  13.589 -0.1760 -0.4393 -0.4228
 3584TIP3    H132167   2.525   1.497  13.564 -0.2161 -0.3432 -0.5795
 3584TIP3    H232168   2.535   1.645  13.596 -0.3853 -0.6718  1.0499
 3585TIP3   OH232169   0.998   0.512  15.315  0.2085  0.0686 -0.1259
 3585TIP3    H132170   1.013   0.437  15.258 -0.6722  1.3915 -2.2038
 3585TIP3    H232171   1.065   0.504  15.383 -0.8333 -3.4404  0.6897
 3586TIP3   OH232172   2.081   5.550  11.075 -0.2099  0.1994 -0.0102
 3586TIP3    H132173   2.034   5.472  11.045  0.1529  0.4762 -1.3643
 3586TIP3    H232174   2.034   5.623  11.035 -0.3843  0.6838  1.0344
 3587TIP3   OH232175   6.334   4.215   2.231  0.1117 -0.8019 -0.1770
 3587TIP3    H132176   6.289   4.297   2.209  0.6917 -0.7916 -1.4255
 3587TIP3    H232177   6.313   4.200   2.323 -2.4550 -0.8029 -0.6780
 3588TIP3   OH232178   3.766   4.227   0.054  0.3705  0.5045  0.3928
 3588TIP3    H132179   3.851   4.182   0.056 -0.4256 -1.3808 -2.2052
 3588TIP3    H232180   3.703   4.161   0.082 -0.5977  0.5658 -1.4512
 3589TIP3   OH232181   2.858   2.161   5.111  0.5166  0.4858 -0.1000
 3589TIP3    H132182   2.830   2.246   5.076  0.4314  0.6770  0.4251
 3589TIP3    H232183   2.778   2.108   5.113  0.9711 -0.4780 -2.7815
 3590TIP3   OH232184   1.818   6.039   2.204 -0.2456  0.8731  0.2109
 3590TIP3    H132185   1.800   5.968   2.265 -0.1229  0.7537  0.1089
 3590TIP3    H232186   1.741   6.096   2.210 -1.4455 -0.4991 -1.4624
 3591TIP3   OH232187   1.335   3.880   2.853 -0.0751 -0.2445  0.0351
 3591TIP3    H132188   1.294   3.845   2.932 -0.3303  1.0203  0.4848
 3591TIP3    H232189   1.424   3.903   2.880 -0.0317 -0.1896 -0.1535
 3592TIP3   OH232190   3.378   5.778   5.153 -0.4861 -0.1965  0.1348
 3592TIP3    H132191   3.466   5.815   5.144 -0.3551 -0.4229  0.4416
 3592TIP3    H232192   3.342   5.779   5.065  0.0163 -0.5677 -0.0768
 3593TIP3   OH232193   5.199   1.414   4.892 -0.0607 -0.8426 -0.2129
 3593TIP3    H132194   5.274   1.388   4.945  1.2872 -0.5510 -1.8902
 3593TIP3    H232195   5.178   1.503   4.921 -1.2409 -1.7285  1.8101
 3594TIP3   OH232196   0.674   1.429   2.877 -0.0041 -0.0066 -0.3617
 3594TIP3    H132197   0.647   1.366   2.810  1.5015 -1.8791  0.6990
 3594TIP3    H232198   0.769   1.436   2.867 -0.2280  3.9171 -1.8764
 3595TIP3   OH232199   6.078   3.665   4.428 -0.5274 -0.2205  0.6486
 3595TIP3    H132200   6.037   3.734   4.479  1.0346  1.3179 -0.0519
 3595TIP3    H232201   6.056   3.687   4.337  0.2191 -0.4429  0.4041
 3596TIP3   OH232202   2.817   0.231  13.281  0.6218 -0.4796 -0.4489
 3596TIP3    H132203   2.736   0.268  13.246 -0.5955 -2.3348  0.3020
 3596TIP3    H232204   2.886   0.291  13.249 -1.0767  1.6261 -0.3832
 3597TIP3   OH232205   6.236   2.964  14.617  0.1287  0.0569 -0.1923
 3597TIP3    H132206   6.265   2.946  14.706 -3.1457 -1.4616  0.7249
 3597TIP3    H232207   6.304   2.926  14.561  1.6712  0.0083  1.6393
 3598TIP3   OH232208   3.047   2.001   5.777 -0.0259 -0.6140  0.3019
 3598TIP3    H132209   3.073   1.972   5.690  2.3170 -1.1321  1.1109
 3598TIP3    H232210   3.118   2.059   5.806 -0.6326 -0.6245  1.9505
 3599TIP3   OH232211   2.409   3.700  11.306  0.1038  0.1163  0.5645
 3599TIP3    H132212   2.327   3.664  11.271  0.1425  0.5587  0.0056
 3599TIP3    H232213   2.472   3.629  11.298  0.9069  1.0449 -3.1118
 3600TIP3   OH232214   4.130   5.182   1.312  0.2638  0.6438 -0.4832
 3600TIP3    H132215   4.085   5.119   1.256  0.0750  1.2883 -1.0682
 3600TIP3    H232216   4.148   5.134   1.392 -1.4781  0.3579 -0.2229
 3601TIP3   OH232217   6.246   0.068   5.492  0.0353  0.3754  0.2560
 3601TIP3    H132218   6.200   0.151   5.495  0.8417  0.8524 -0.2575
 3601TIP3    H232219   6.210   0.024   5.414 -0.1869  0.3574  0.3676
 3602TIP3   OH232220   6.420   5.769   4.858 -0.2825  0.3502 -0.2234
 3602TIP3    H132221   6.409   5.828   4.933 -1.0193  2.2231 -1.7168
 3602TIP3    H232222   6.373   5.812   4.787 -0.6977 -1.9969 -1.4712
 3603TIP3   OH232223   5.096   2.725   0.973 -0.3156 -0.6236 -0.6120
 3603TIP3    H132224   5.156   2.705   0.901  0.4272 -0.8399  0.0438
 3603TIP3    H232225   5.146   2.703   1.052 -1.9411 -2.7392 -0.0612
 3604TIP3   OH232226   3.442   0.286   3.448 -0.2231  0.1051  0.0834
 3604TIP3    H132227   3.496   0.287   3.369  1.1784  0.5661  1.0079
 3604TIP3    H232228   3.463   0.368   3.493 -1.5827  0.2174  0.5668
 3605TIP3   OH232229   4.584   5.935  11.320  0.4063 -0.0985  0.0822
 3605TIP3    H132230   4.675   5.911  11.339  0.4773  0.5382  0.5931
 3605TIP3    H232231   4.571   5.912  11.229  1.0475 -0.3149  0.0422
 3606TIP3   OH232232   1.415   4.676  12.548  0.0466  0.0271  0.1532
 3606TIP3    H132233   1.406   4.699  12.640  0.0180 -3.0153  1.0156
 3606TIP3    H232234   1.502   4.708  12.524  1.0021 -1.1267  1.9179
 3607TIP3   OH232235   3.504   6.111   1.696 -0.3921  0.2587 -0.0862
 3607TIP3    H132236   3.559   6.037   1.672  0.0493  0.1506  1.2084
 3607TIP3    H232237   3.561   6.169   1.746 -1.1554  0.6952  0.3024
 3608TIP3   OH232238   4.697   0.510   1.231 -0.3398 -0.5661  0.5017
 3608TIP3    H132239   4.731   0.422   1.210 -1.0250 -0.8259  0.4701
 3608TIP3    H232240   4.687   0.552   1.146  0.2557 -0.3513  0.5327
 3609TIP3   OH232241   4.088   1.851   2.756 -0.0162 -0.1722  0.2713
 3609TIP3    H132242   4.030   1.842   2.832 -0.4794  0.0444 -0.0499
 3609TIP3    H232243   4.160   1.790   2.773 -0.8660 -1.2318  0.2018
 3610TIP3   OH232244   5.824   2.163  14.093 -0.8628  0.4996 -0.1166
 3610TIP3    H132245   5.825   2.180  14.188 -0.7466  0.4949 -0.1165
 3610TIP3    H232246   5.824   2.250  14.053 -3.6417  0.5940 -0.1053
 3611TIP3   OH232247   6.068   4.603  16.782 -0.3747 -0.4167 -0.4767
 3611TIP3    H132248   6.008   4.678  16.778  2.7229  2.3171  0.0681
 3611TIP3    H232249   6.093   4.588  16.690 -2.4369 -2.1738 -0.8172
 3612TIP3   OH232250   6.025   1.399  15.178  0.0316  0.8870 -0.0120
 3612TIP3    H132251   6.049   1.415  15.087  1.2215 -0.0049  0.1253
 3612TIP3    H232252   6.106   1.408  15.227  0.2900 -2.4497  0.4398
 3613TIP3   OH232253   2.613   5.506  16.717  0.4820 -0.4235  0.2541
 3613TIP3    H132254   2.542   5.455  16.680  1.5731 -2.3696  0.6877
 3613TIP3    H232255   2.607   5.491  16.812 -0.9525  2.7147  0.7817
 3614TIP3   OH232256   5.547   1.578  11.783 -0.2690  0.2367  0.4361
 3614TIP3    H132257   5.589   1.556  11.700  0.0906 -0.7096  0.8457
 3614TIP3    H232258   5.579   1.665  11.804 -1.3257  1.0222 -1.0036
 3615TIP3   OH232259   6.205   3.391   2.464 -0.0750  0.2167  0.0109
 3615TIP3    H132260   6.134   3.386   2.529 -0.5444 -1.3511 -0.5726
 3615TIP3    H232261   6.160   3.413   2.382  0.5225  2.2537  0.1821
 3616TIP3   OH232262   6.254   4.165   3.228 -0.0297  0.2200 -0.7597
 3616TIP3    H132263   6.272   4.077   3.262  1.1319  0.1824 -1.4261
 3616TIP3    H232264   6.304   4.170   3.147 -0.6594  1.2497 -1.1073
 3617TIP3   OH232265   5.409   0.679   2.757 -0.4089 -0.0313 -0.4927
 3617TIP3    H132266   5.433   0.727   2.837 -0.9691  0.9558 -0.9034
 3617TIP3    H232267   5.326   0.719   2.729 -0.8706 -1.2241 -0.8719
 3618TIP3   OH232268   4.028   5.959  12.003 -0.1242  0.1422  0.1397
 3618TIP3    H132269   3.976   5.918  12.072 -2.9328 -1.1778 -2.4971
 3618TIP3    H232270   4.094   5.893  11.980  0.0249  0.0902  0.7125
 3619TIP3   OH232271   3.514   1.942  13.163  0.1847 -0.6069  0.2063
 3619TIP3    H132272   3.567   2.020  13.148  2.9017 -2.3626 -0.1140
 3619TIP3    H232273   3.489   1.947  13.255  1.9192 -0.2273  0.6885
 3620TIP3   OH232274   4.767   3.245  15.614 -0.5575 -0.0010  0.2675
 3620TIP3    H132275   4.856   3.208  15.616 -1.9714 -4.0915  4.4682
 3620TIP3    H232276   4.717   3.182  15.562 -1.5164  0.8885  0.0956
 3621TIP3   OH232277   0.739   6.487   1.288  0.7632  0.2908  0.4851
 3621TIP3    H132278   0.812   6.455   1.236  1.0192 -1.5573  1.8875
 3621TIP3    H232279   0.663   6.479   1.231  1.4838  1.4325 -0.6951
 3622TIP3   OH232280   0.587   4.602   4.379 -0.8228  0.0383 -0.6956
 3622TIP3    H132281   0.610   4.689   4.413  0.4861 -0.4722 -0.2038
 3622TIP3    H232282   0.517   4.571   4.437  0.8216 -0.4850  1.1017
 3623TIP3   OH232283   2.541   1.061  16.702 -0.1026  0.0436 -0.1447
 3623TIP3    H132284   2.447   1.054  16.713 -0.1884  1.0402 -0.1639
 3623TIP3    H232285   2.553   1.090  16.612  0.1192  1.5921  0.3487
 3624TIP3   OH232286   0.751   4.347  11.110  0.0697  0.5188 -0.0198
 3624TIP3    H132287   0.679   4.287  11.092  0.2990  0.7186 -1.7826
 3624TIP3    H232288   0.729   4.386  11.195 -1.6011  0.1544 -0.2451
 3625TIP3   OH232289   5.443   3.427   6.878  0.0433 -0.3862 -0.2748
 3625TIP3    H132290   5.469   3.497   6.938  0.9530  0.7806 -1.9646
 3625TIP3    H232291   5.511   3.360   6.889  0.4294 -0.0041 -0.2908
 3626TIP3   OH232292   6.450   4.619  11.920 -0.2145  0.5265  0.1068
 3626TIP3    H132293   6.481   4.709  11.905  1.3267 -0.2528 -1.7983
 3626TIP3    H232294   6.476   4.599  12.010  2.5452  0.8450 -0.5456
 3627TIP3   OH232295   6.055   3.320   1.814  0.4555  0.5476 -0.5336
 3627TIP3    H132296   6.087   3.279   1.895  1.1780  2.3320  0.1220
 3627TIP3    H232297   5.963   3.338   1.831  0.8927  2.0244  0.3866
 3628TIP3   OH232298   5.915   0.872   1.713 -0.1970 -0.2859 -0.5640
 3628TIP3    H132299   5.943   0.811   1.780  2.9209  1.6238  0.0422
 3628TIP3    H232300   5.944   0.833   1.631  0.2653 -0.3971 -0.3473
 3629TIP3   OH232301   5.137   3.697  14.730 -0.6140  0.2417  0.1261
 3629TIP3    H132302   5.128   3.619  14.675 -0.9054 -0.5352  1.2405
 3629TIP3    H232303   5.146   3.663  14.819  0.5875  1.4375  0.5075
 3630TIP3   OH232304   5.281   4.298   4.591 -0.2332 -0.1975 -0.0080
 3630TIP3    H132305   5.372   4.270   4.589 -0.1341  0.1381 -0.5760
 3630TIP3    H232306   5.231   4.218   4.607 -0.0108 -0.8898 -2.3116
 3631TIP3   OH232307   5.911   5.768  17.112  0.3779  0.0551 -0.4985
 3631TIP3    H132308   5.967   5.690  17.115 -1.2147 -1.1260  0.1798
 3631TIP3    H232309   5.871   5.772  17.199 -1.8992 -0.1896 -1.4778
 3632TIP3   OH232310   1.089   1.661   3.757  0.4943 -0.2920 -0.4500
 3632TIP3    H132311   1.096   1.727   3.688 -0.3957 -0.0978 -0.3603
 3632TIP3    H232312   1.077   1.579   3.710 -0.1531 -0.1543 -0.5306
 3633TIP3   OH232313   0.191   4.854   1.023 -0.2441  0.2493  0.6298
 3633TIP3    H132314   0.144   4.934   1.002 -1.1222 -0.1193  1.1191
 3633TIP3    H232315   0.268   4.882   1.073  0.6276  0.9405 -1.0358
 3634TIP3   OH232316   2.260   3.534  15.698  0.0145  0.0069  0.0795
 3634TIP3    H132317   2.169   3.505  15.691 -0.1630  0.1924  1.3222
 3634TIP3    H232318   2.304   3.494  15.623 -1.3931  1.1937 -1.4503
 3635TIP3   OH232319   1.453   1.261  13.108 -0.3689  0.4887 -0.2015
 3635TIP3    H132320   1.438   1.175  13.149 -0.3678  0.0955 -1.0136
 3635TIP3    H232321   1.366   1.293  13.088 -0.4043  0.9608  0.6450
 3636TIP3   OH232322   2.028   0.477  14.852  0.6149  0.1052 -0.3705
 3636TIP3    H132323   1.998   0.519  14.933  1.6350 -1.6054  0.9915
 3636TIP3    H232324   2.121   0.498  14.847  1.1028 -1.6813  0.2279
 3637TIP3   OH232325   5.983   4.020  13.865  0.1343  0.1717 -0.6075
 3637TIP3    H132326   6.014   4.073  13.792 -2.5601  2.2411 -0.4244
 3637TIP3    H232327   6.031   4.053  13.941  0.9144 -0.0323 -1.0041
 3638TIP3   OH232328   2.780   0.168   3.600  0.4010  0.4535 -0.9280
 3638TIP3    H132329   2.727   0.230   3.650 -3.1878 -2.8163 -0.2009
 3638TIP3    H232330   2.765   0.192   3.508 -0.8220  0.7894 -0.6581
 3639TIP3   OH232331   0.480   4.352  13.168  0.0246  0.4466 -0.3302
 3639TIP3    H132332   0.406   4.363  13.228 -2.4756  1.3716 -3.3189
 3639TIP3    H232333   0.480   4.259  13.146 -0.0277  0.3883 -0.0926
 3640TIP3   OH232334   5.674   4.414   3.421  0.5917 -0.7654 -0.2800
 3640TIP3    H132335   5.618   4.460   3.484  1.1768 -0.0258 -0.2760
 3640TIP3    H232336   5.616   4.390   3.350  0.0723 -0.9040  0.1814
 3641TIP3   OH232337   2.426   6.672   4.915 -0.4984 -0.5880  0.0228
 3641TIP3    H132338   2.474   6.750   4.887 -0.7204 -1.0064 -1.6664
 3641TIP3    H232339   2.492   6.602   4.911 -1.0349 -1.0422 -1.6504
 3642TIP3   OH232340   4.625   2.124  14.654 -0.0972 -0.1059  0.2280
 3642TIP3    H132341   4.561   2.058  14.628 -0.9196  0.9385 -0.5054
 3642TIP3    H232342   4.687   2.127  14.581  0.7798 -1.0793  0.9153
 3643TIP3   OH232343   6.418   1.951   2.684 -0.1662  1.2211 -0.1486
 3643TIP3    H132344   6.401   2.045   2.685 -2.7840  0.8744 -1.5343
 3643TIP3    H232345   6.407   1.924   2.775  0.3067  2.1963  0.2140
 3644TIP3   OH232346   4.996   2.033  14.927  0.1248 -0.2048 -0.4656
 3644TIP3    H132347   5.079   1.994  14.900  1.9593  1.4771  2.2425
 3644TIP3    H232348   5.014   2.127  14.929 -1.9054  0.2219  0.0731
 3645TIP3   OH232349   5.477   5.981   1.538 -0.2100  0.2918  0.0147
 3645TIP3    H132350   5.479   5.938   1.623 -2.5776  1.5502  0.7900
 3645TIP3    H232351   5.437   5.916   1.479 -0.7370  0.2577  0.4097
 3646TIP3   OH232352   1.955   0.796   2.848  0.8759  0.0532 -0.5215
 3646TIP3    H132353   1.885   0.848   2.809 -1.9753 -3.0309  0.0788
 3646TIP3    H232354   1.985   0.849   2.922  1.0602  2.5701 -2.2693
 3647TIP3   OH232355   2.968   3.959   0.812  0.1935 -0.0700  0.7667
 3647TIP3    H132356   3.033   3.944   0.744  0.1218 -0.6996  0.8330
 3647TIP3    H232357   3.019   3.963   0.893  0.1562 -0.5367  0.8155
 3648TIP3   OH232358   2.894   1.314  17.149  0.0306 -0.3674  0.1661
 3648TIP3    H132359   2.916   1.352  17.234 -0.6993  0.0561  0.1730
 3648TIP3    H232360   2.802   1.291  17.156 -0.1517  0.0784 -0.6626
 3649TIP3   OH232361   4.793   5.777   4.063  0.2039 -0.0933 -0.0210
 3649TIP3    H132362   4.761   5.759   3.974  0.9094  0.9895 -0.5131
 3649TIP3    H232363   4.882   5.810   4.050  0.1447  0.5434  1.0558
 3650TIP3   OH232364   6.415   0.313   2.391  0.1572  0.7698 -0.0985
 3650TIP3    H132365   6.442   0.405   2.394  0.8930  0.5347  2.1146
 3650TIP3    H232366   6.493   0.264   2.416  0.5380 -0.7328 -3.6011
 3651TIP3   OH232367   3.947   5.845  17.042  0.2896  0.1222 -0.1298
 3651TIP3    H132368   3.955   5.940  17.034  0.9482  0.2172  1.3064
 3651TIP3    H232369   3.926   5.831  17.135  0.3579 -1.1404 -0.2925
 3652TIP3   OH232370   2.929   5.374   3.821  0.1090  0.2861  0.4019
 3652TIP3    H132371   2.850   5.427   3.823  0.1010  0.2932 -0.0198
 3652TIP3    H232372   2.907   5.300   3.764  0.5308  0.4950 -0.0426
 3653TIP3   OH232373   2.919   4.179  14.930  0.4190  0.5429 -0.0543
 3653TIP3    H132374   2.921   4.226  14.847  0.4832  2.9913  1.2540
 3653TIP3    H232375   3.011   4.167  14.953  0.3973  0.8900  0.2110
 3654TIP3   OH232376   2.907   5.587   0.471  0.3068 -0.9779 -0.5713
 3654TIP3    H132377   2.863   5.575   0.556 -0.6363 -0.8575 -1.0296
 3654TIP3    H232378   2.994   5.621   0.494 -0.1760 -0.2825  0.3237
 3655TIP3   OH232379   5.297   5.906   1.097 -0.1419 -0.2320 -0.0111
 3655TIP3    H132380   5.389   5.930   1.081 -0.1977  1.6500  1.9810
 3655TIP3    H232381   5.246   5.971   1.049 -0.4021 -0.1558  0.3621
 3656TIP3   OH232382   6.674   3.033  11.932  0.1399 -0.0304 -0.1911
 3656TIP3    H132383   6.589   3.071  11.957 -1.3403 -2.1660 -1.5980
 3656TIP3    H232384   6.738   3.099  11.958 -1.9098  1.5550  1.2136
 3657TIP3   OH232385   0.066   2.409   3.942 -0.8299  0.0399  0.5120
 3657TIP3    H132386   0.133   2.353   3.901 -1.1674  0.6799 -0.9732
 3657TIP3    H232387   0.041   2.361   4.021 -0.1831 -1.2870 -0.0412
 3658TIP3   OH232388   5.794   4.865   0.330  0.5000  0.3110  0.7003
 3658TIP3    H132389   5.884   4.835   0.346  0.4782  0.3758  0.9334
 3658TIP3    H232390   5.788   4.870   0.234  0.1563 -1.5373  0.5900
 3659TIP3   OH232391   5.341   2.368   3.165  0.6544 -0.3039  0.7787
 3659TIP3    H132392   5.369   2.449   3.207  0.1577  0.0381  0.4570
 3659TIP3    H232393   5.286   2.396   3.092 -0.2460 -0.9452  1.1971
 3660TIP3   OH232394   1.590   1.661  12.206  0.4621  0.2172 -0.0808
 3660TIP3    H132395   1.550   1.576  12.227  0.9710  0.0848  0.3556
 3660TIP3    H232396   1.665   1.639  12.152 -1.3980  0.5995 -3.0536
 3661TIP3   OH232397   5.818   3.848  14.323 -0.2914 -0.6547  0.0721
 3661TIP3    H132398   5.768   3.776  14.361 -0.7220  0.0871  0.9470
 3661TIP3    H232399   5.891   3.862  14.383 -1.3319  0.9474  1.0473
 3662TIP3   OH232400   6.504   0.055  12.262  0.2955 -0.5882  0.5476
 3662TIP3    H132401   6.492   0.056  12.168 -0.2301 -0.7543  0.6104
 3662TIP3    H232402   6.438  -0.006  12.295 -0.5810  0.6506  1.1525
 3663TIP3   OH232403   5.471   2.578  13.528  0.2415 -0.9967  0.0223
 3663TIP3    H132404   5.536   2.553  13.594  0.4486  1.1892  0.7228
 3663TIP3    H232405   5.396   2.610  13.579 -0.0469 -0.3556 -0.7769
 3664TIP3   OH232406   5.421   4.360  11.582 -0.3051 -0.2509  0.1843
 3664TIP3    H132407   5.478   4.349  11.506  0.7776  0.1096  0.9205
 3664TIP3    H232408   5.390   4.272  11.603 -0.3720 -0.3898 -0.4764
 3665TIP3   OH232409   2.496   6.302   2.992  0.1722  0.1745  0.0642
 3665TIP3    H132410   2.575   6.355   2.981 -1.9223  3.7631  0.8138
 3665TIP3    H232411   2.485   6.294   3.087 -0.5646  0.0301 -0.0263
 3666TIP3   OH232412   3.448   5.439   3.037  0.2874  0.2627 -0.0639
 3666TIP3    H132413   3.485   5.361   3.078  0.1289  0.1700 -0.0956
 3666TIP3    H232414   3.431   5.499   3.109 -1.3994 -0.4738  0.2077
 3667TIP3   OH232415   4.983   5.732  16.324 -0.5600 -0.3257  0.6241
 3667TIP3    H132416   5.027   5.816  16.337  1.5847 -0.9403 -1.8464
 3667TIP3    H232417   4.907   5.753  16.270 -1.1677  0.2337  1.6589
 3668TIP3   OH232418   6.668   5.263  16.842  0.3464 -0.2388  0.1960
 3668TIP3    H132419   6.685   5.240  16.750 -1.7056 -0.1302 -0.2574
 3668TIP3    H232420   6.661   5.178  16.886  2.2982 -0.2877  0.4924
 3669TIP3   OH232421   3.375   6.713  11.367 -0.0840 -0.0055 -0.3462
 3669TIP3    H132422   3.328   6.740  11.446 -0.4598 -0.7676 -0.2927
 3669TIP3    H232423   3.386   6.618  11.377  1.9147  0.1999 -0.1231
 3670TIP3   OH232424   2.128   5.269  10.759 -0.1871  0.1637  0.3414
 3670TIP3    H132425   2.038   5.240  10.777 -0.2863 -0.2753 -0.7581
 3670TIP3    H232426   2.117   5.343  10.699  0.1954 -0.6510 -0.7723
 3671TIP3   OH232427   3.968   0.088   0.890  0.4966  0.2339 -0.5527
 3671TIP3    H132428   3.902   0.131   0.945 -1.0090  0.5538 -2.5029
 3671TIP3    H232429   3.920   0.058   0.813  1.7959 -3.5093 -0.1299
 3672TIP3   OH232430   0.782   1.104   1.741 -0.8955 -0.2163  0.0402
 3672TIP3    H132431   0.800   1.013   1.717 -0.1599  0.2376 -1.2567
 3672TIP3    H232432   0.818   1.156   1.669 -1.4378  1.1067  0.6691
 3673TIP3   OH232433   0.479   0.493   3.915 -0.0648 -0.7243  0.0358
 3673TIP3    H132434   0.464   0.413   3.865 -3.3129 -1.0191  1.1990
 3673TIP3    H232435   0.416   0.488   3.987  0.0747  2.5682  0.5477
 3674TIP3   OH232436   6.646   6.782   0.119 -0.3803  0.3036 -0.0949
 3674TIP3    H132437   6.616   6.702   0.075  0.4592 -0.5814  0.8860
 3674TIP3    H232438   6.681   6.836   0.048 -0.0701 -0.6255 -0.6693
 3675TIP3   OH232439   1.447   3.145   5.876  0.4561 -0.2492  0.0114
 3675TIP3    H132440   1.420   3.137   5.785 -0.7740 -0.2598  0.3705
 3675TIP3    H232441   1.469   3.238   5.886 -1.1544  0.1338  0.1651
 3676TIP3   OH232442   5.902   5.896  13.578  0.3557  0.2971  0.0271
 3676TIP3    H132443   5.907   5.864  13.488 -1.1528 -0.8058  0.3097
 3676TIP3    H232444   5.888   5.818  13.631 -1.1063  1.1422  0.9687
 3677TIP3   OH232445   2.655   5.072  12.678  0.6111  0.2915 -0.2015
 3677TIP3    H132446   2.601   5.011  12.728  0.0284  0.8898 -0.0998
 3677TIP3    H232447   2.722   5.016  12.637  0.1327 -0.4021 -0.0454
 3678TIP3   OH232448   6.075   2.587   0.317 -0.0135  0.6466  0.2041
 3678TIP3    H132449   6.020   2.665   0.319 -1.1858 -0.0598 -1.8216
 3678TIP3    H232450   6.082   2.565   0.224  0.8488 -1.2752  0.6868
 3679TIP3   OH232451   4.108   1.984  14.580 -0.4195  0.1132  0.1111
 3679TIP3    H132452   4.167   2.001  14.654 -0.3230  1.4372 -0.2496
 3679TIP3    H232453   4.057   1.908  14.607 -1.3581  1.3803  2.1502
 3680TIP3   OH232454   2.987   3.427  14.220  0.1619 -0.1735  0.3746
 3680TIP3    H132455   2.977   3.341  14.259 -0.9452  0.1988  0.9400
 3680TIP3    H232456   3.043   3.475  14.281  0.7682 -0.4745  0.0652
 3681TIP3   OH232457   3.881   2.948   1.580 -0.0815 -0.1511  0.3654
 3681TIP3    H132458   3.834   2.971   1.660  0.2759  0.9387  0.2770
 3681TIP3    H232459   3.850   2.860   1.558 -2.0179  0.5025  0.3350
 3682TIP3   OH232460   1.668   0.454  11.335 -0.1208 -0.0287 -0.2481
 3682TIP3    H132461   1.734   0.511  11.373 -0.6816  0.8567 -0.5867
 3682TIP3    H232462   1.714   0.407  11.265  1.0625 -2.0653  1.7663
 3683TIP3   OH232463   3.197   2.185  11.114  0.2959 -0.4879  0.1920
 3683TIP3    H132464   3.226   2.201  11.024  0.1564  0.7179  0.3382
 3683TIP3    H232465   3.232   2.259  11.164 -0.3339 -0.7008  0.9760
 3684TIP3   OH232466   0.476   4.178  14.598 -0.0984 -0.1418  0.1853
 3684TIP3    H132467   0.451   4.105  14.655 -0.8566  2.3205  3.3644
 3684TIP3    H232468   0.571   4.184  14.608 -0.0107 -0.7875 -0.2338
 3685TIP3   OH232469   3.102   0.114   2.437 -0.4714  0.2606 -0.0330
 3685TIP3    H132470   3.076   0.173   2.366 -0.4312 -0.0862 -0.3370
 3685TIP3    H232471   3.023   0.107   2.492 -0.7165  0.0044 -0.4088
 3686TIP3   OH232472   3.408   4.373  16.326 -0.7201  0.0509 -0.6012
 3686TIP3    H132473   3.455   4.435  16.270  0.6869  0.7508  1.2495
 3686TIP3    H232474   3.345   4.331  16.267  0.2716  1.1379 -2.5580
 3687TIP3   OH232475   5.658   3.659  14.604 -0.0913  0.0788 -0.2154
 3687TIP3    H132476   5.566   3.682  14.621  0.5546  1.8871  1.1239
 3687TIP3    H232477   5.660   3.638  14.511 -2.4045 -3.0388  0.2290
 3688TIP3   OH232478   6.552   0.818   5.315  0.4430  0.0794 -0.0021
 3688TIP3    H132479   6.465   0.833   5.278  0.0834  1.2703  1.2352
 3688TIP3    H232480   6.556   0.877   5.390  2.5846  0.5227 -0.4170
 3689TIP3   OH232481   6.161   5.898   3.829 -0.2209  0.1009 -0.4737
 3689TIP3    H132482   6.141   5.930   3.917 -0.5796 -1.7826  0.1642
 3689TIP3    H232483   6.183   5.978   3.779 -0.4287  1.2440  1.1824
 3690TIP3   OH232484   6.465   3.428   3.452  0.3445  0.5323 -0.3587
 3690TIP3    H132485   6.457   3.511   3.500  1.7306  0.1970  0.4868
 3690TIP3    H232486   6.379   3.387   3.461  0.4706  0.6122  1.6436
 3691TIP3   OH232487   3.757   2.320  11.296  0.1812  0.1355  0.5352
 3691TIP3    H132488   3.761   2.403  11.343  0.3732 -0.3825  1.4455
 3691TIP3    H232489   3.783   2.342  11.206  0.4637  1.0082  0.8210
 3692TIP3   OH232490   2.339   0.103   2.813 -0.2851  0.4889  0.3936
 3692TIP3    H132491   2.283   0.097   2.891 -1.8103 -0.5088 -0.7116
 3692TIP3    H232492   2.368   0.013   2.798  1.9306  1.0299  1.1088
 3693TIP3   OH232493   3.109   3.502  14.449 -0.2502 -0.1431  0.8319
 3693TIP3    H132494   3.193   3.547  14.456 -0.2515  0.1033 -0.5162
 3693TIP3    H232495   3.048   3.558  14.497 -0.3020  1.4612 -0.9895
 3694TIP3   OH232496   0.536   2.581  14.875  0.0193  0.3835  0.4482
 3694TIP3    H132497   0.546   2.631  14.956 -0.0251 -1.9309  1.9498
 3694TIP3    H232498   0.515   2.492  14.903 -1.9848 -0.0971 -2.1359
 3695TIP3   OH232499   2.819   3.382   0.149 -0.4505 -0.1879 -0.2447
 3695TIP3    H132500   2.888   3.370   0.084 -0.5904 -2.8131  0.0027
 3695TIP3    H232501   2.867   3.404   0.230 -0.0485 -0.1650 -0.4834
 3696TIP3   OH232502   0.561   2.892   0.097  0.0337  0.3249 -0.3019
 3696TIP3    H132503   0.473   2.856   0.107  0.4726 -0.6643  0.0502
 3696TIP3    H232504   0.551   2.985   0.121 -1.1844  0.5668 -1.6613
 3697TIP3   OH232505   5.204   0.603   2.411 -0.2958 -0.2983 -0.4665
 3697TIP3    H132506   5.146   0.527   2.400 -0.8799  0.0459  0.0964
 3697TIP3    H232507   5.189   0.631   2.502 -2.1313  2.0930 -1.3902
 3698TIP3   OH232508   5.978   5.946   5.433  0.2837 -0.0440  0.0817
 3698TIP3    H132509   5.942   6.033   5.444  1.8380  0.7176 -0.4963
 3698TIP3    H232510   5.903   5.887   5.436 -0.8762  1.3780 -0.2849
 3699TIP3   OH232511   1.202   5.149  13.771  0.8231  0.3600  0.3032
 3699TIP3    H132512   1.274   5.195  13.814  1.5931 -1.2753  0.8222
 3699TIP3    H232513   1.187   5.071  13.824 -1.8927  1.0129  0.6727
 3700TIP3   OH232514   2.060   5.642  12.163 -0.2121  0.2237 -0.5744
 3700TIP3    H132515   1.969   5.672  12.159 -0.4757 -0.4979 -0.1898
 3700TIP3    H232516   2.075   5.599  12.078 -0.4456 -0.2366 -0.3875
 3701TIP3   OH232517   1.707   3.308   5.702  0.1182 -0.6567  0.2420
 3701TIP3    H132518   1.748   3.393   5.717  0.4323 -0.8328  0.4020
 3701TIP3    H232519   1.613   3.326   5.699  0.1983 -0.2758  0.0632
 3702TIP3   OH232520   2.701   5.591   5.199 -0.2742  0.8089  0.1059
 3702TIP3    H132521   2.779   5.546   5.169  0.6255  0.4257  2.7594
 3702TIP3    H232522   2.630   5.555   5.147  1.2010  0.7577 -1.9717
 3703TIP3   OH232523   2.094   5.889  16.737  0.0432 -0.3909 -0.1431
 3703TIP3    H132524   2.103   5.896  16.642  1.6789 -1.6866 -0.1231
 3703TIP3    H232525   2.033   5.817  16.750  0.7099 -0.9912 -0.2377
 3704TIP3   OH232526   3.291   6.236  14.279  1.2444 -0.3606 -0.2111
 3704TIP3    H132527   3.276   6.192  14.363  0.6844  0.8175  0.3350
 3704TIP3    H232528   3.229   6.195  14.219 -0.8648  1.1057  0.8309
 3705TIP3   OH232529   1.509   4.496  14.752 -0.4078  0.6404  0.0235
 3705TIP3    H132530   1.490   4.578  14.705  1.3636  0.3697 -1.2883
 3705TIP3    H232531   1.435   4.439  14.732 -0.9752  1.4485 -0.2278
 3706TIP3   OH232532   2.443   6.223   0.000 -0.0325  0.3135 -0.0830
 3706TIP3    H132533   2.385   6.147   0.000 -0.3166  0.4922  1.5277
 3706TIP3    H232534   2.412   6.276  -0.073 -2.1228  0.5175  0.8487
 3707TIP3   OH232535   2.799   6.465  11.038 -0.4582 -0.0920 -0.0658
 3707TIP3    H132536   2.782   6.540  11.095  1.0804 -1.8250  2.9012
 3707TIP3    H232537   2.894   6.456  11.037 -0.5638 -1.5074 -1.0710
 3708TIP3   OH232538   0.211   0.897   1.701  0.0593 -0.0512  0.4370
 3708TIP3    H132539   0.253   0.841   1.766  1.2374  1.4302  0.9910
 3708TIP3    H232540   0.176   0.835   1.636  3.2435 -1.4018 -0.1643
 3709TIP3   OH232541   5.953   4.574  12.222 -0.4404 -0.0731 -0.9244
 3709TIP3    H132542   6.038   4.592  12.182 -0.1771 -1.3737 -1.0085
 3709TIP3    H232543   5.890   4.586  12.151 -0.7355  3.6345 -0.2425
 3710TIP3   OH232544   3.886   0.775  16.488  0.1918  0.9324  0.2886
 3710TIP3    H132545   3.951   0.834  16.450  0.8651  1.3148  1.9371
 3710TIP3    H232546   3.928   0.689  16.484 -0.0025  0.8584 -0.3648
 3711TIP3   OH232547   1.907   5.127  12.094  0.3937  0.1039 -0.1190
 3711TIP3    H132548   1.846   5.070  12.141  1.1271 -2.7027 -2.2831
 3711TIP3    H232549   1.856   5.206  12.076 -1.0169 -0.1951  2.1260
 3712TIP3   OH232550   3.162   3.104   5.363  0.2814  0.1412 -0.1870
 3712TIP3    H132551   3.202   3.142   5.442  0.3394  0.4193 -0.3463
 3712TIP3    H232552   3.209   3.022   5.350 -0.7666 -0.6570  0.9305
 3713TIP3   OH232553   1.076   5.684  15.931 -0.0037  0.4072  0.6400
 3713TIP3    H132554   1.090   5.623  15.859 -0.1027  0.0563  0.9151
 3713TIP3    H232555   0.982   5.699  15.932 -0.2528 -0.9854  1.8060
 3714TIP3   OH232556   6.188   5.118   1.273  0.1394 -0.2541  0.1996
 3714TIP3    H132557   6.233   5.193   1.313  0.6228 -0.3833 -0.0989
 3714TIP3    H232558   6.166   5.147   1.185 -0.2238 -0.2499  0.2886
 3715TIP3   OH232559   5.904   4.177  11.151 -0.7007 -0.7163 -0.1852
 3715TIP3    H132560   5.957   4.106  11.187  2.5102  1.8818  0.6849
 3715TIP3    H232561   5.918   4.170  11.056  3.8464  1.4382  0.0497
 3716TIP3   OH232562   0.361   3.361  15.918 -0.1686 -0.1052 -0.4669
 3716TIP3    H132563   0.415   3.402  15.986 -1.2521  0.6457 -0.0221
 3716TIP3    H232564   0.423   3.334  15.851  0.6317  2.5854 -0.9439
 3717TIP3   OH232565   5.935   2.454   5.080  0.1089  0.1007  0.8228
 3717TIP3    H132566   5.856   2.402   5.092 -0.8387  1.4462  0.6187
 3717TIP3    H232567   5.985   2.406   5.013 -1.0865 -0.1635  0.0800
 3718TIP3   OH232568   3.775   1.990  12.802  0.3425 -0.3029 -0.6677
 3718TIP3    H132569   3.858   2.033  12.782 -0.3315  0.5770 -1.6982
 3718TIP3    H232570   3.766   1.923  12.734  0.9087 -1.4415  0.3401
 3719TIP3   OH232571   2.787   6.427   5.031 -0.5393 -0.8139  0.7504
 3719TIP3    H132572   2.839   6.479   5.093  0.1712 -1.3199  0.5896
 3719TIP3    H232573   2.832   6.342   5.027 -1.2970 -1.2124  0.4949
 3720TIP3   OH232574   1.705   4.643   0.091  0.5220 -0.1732 -0.1105
 3720TIP3    H132575   1.769   4.653   0.020  1.5420 -0.3794  0.7468
 3720TIP3    H232576   1.632   4.699   0.065  0.6343 -0.6446 -1.5674
 3721TIP3   OH232577   1.317   3.225  11.411 -1.0668 -0.1043  0.0650
 3721TIP3    H132578   1.349   3.315  11.414  2.8406 -1.1214 -2.6765
 3721TIP3    H232579   1.248   3.226  11.345 -0.4220  0.8216 -0.6308
 3722TIP3   OH232580   1.468   2.141  11.008 -0.0024  0.0558  0.2564
 3722TIP3    H132581   1.546   2.089  10.991 -0.9108 -0.5539 -2.4760
 3722TIP3    H232582   1.420   2.092  11.074  2.0492  0.6804  2.3554
 3723TIP3   OH232583   6.322   4.130  13.690 -0.0575  0.3052 -0.8567
 3723TIP3    H132584   6.232   4.129  13.660  0.2782  2.0780 -2.1192
 3723TIP3    H232585   6.333   4.215  13.733  1.2914  0.6474 -1.7853
 3724TIP3   OH232586   4.708   6.021   4.286  0.2393 -0.3888 -0.3038
 3724TIP3    H132587   4.615   6.031   4.263  0.8574  1.3377 -2.3380
 3724TIP3    H232588   4.721   5.927   4.293 -1.8335 -0.6656  0.9336
 3725TIP3   OH232589   1.474   0.236  15.551 -0.4904 -0.0152 -0.6003
 3725TIP3    H132590   1.469   0.141  15.541  0.8096 -0.0550 -1.1432
 3725TIP3    H232591   1.385   0.267  15.538 -1.0485 -1.2051  0.1687
 3726TIP3   OH232592   1.114   5.442   1.961 -0.2739  0.0142 -0.1735
 3726TIP3    H132593   1.161   5.524   1.946  1.9353 -1.3452 -1.1454
 3726TIP3    H232594   1.046   5.441   1.894 -0.3595  1.0649 -0.1242
 3727TIP3   OH232595   1.051   2.622  14.070 -0.4877 -0.1958 -0.6147
 3727TIP3    H132596   1.046   2.527  14.065 -0.4193 -0.1912 -0.7577
 3727TIP3    H232597   1.129   2.646  14.020 -0.0930 -0.1155  0.0323
 3728TIP3   OH232598   0.517   6.398  14.182 -0.0624 -0.4410 -0.2534
 3728TIP3    H132599   0.501   6.367  14.093  1.5544 -1.9600 -0.0774
 3728TIP3    H232600   0.572   6.476  14.171 -2.2476  1.1302 -0.6273
 3729TIP3   OH232601   1.212   0.669   1.241  0.2451  0.0499 -0.5922
 3729TIP3    H132602   1.183   0.578   1.251  0.3571  0.1364  0.6971
 3729TIP3    H232603   1.144   0.721   1.283  0.6558  0.4885 -0.4618
 3730TIP3   OH232604   5.168   2.301  11.405 -0.1092  0.1264  0.0763
 3730TIP3    H132605   5.214   2.229  11.361 -2.4655 -0.8905 -0.8959
 3730TIP3    H232606   5.156   2.271  11.495 -1.4799 -0.9569 -0.4376
 3731TIP3   OH232607   2.892   6.539  12.795  0.0674 -0.0847  0.3737
 3731TIP3    H132608   2.917   6.452  12.764  0.6838 -0.1358  0.9753
 3731TIP3    H232609   2.972   6.590  12.791 -1.0094  1.6555 -3.6555
 3732TIP3   OH232610   5.694   5.505  15.322 -0.0806  0.0688 -0.0904
 3732TIP3    H132611   5.659   5.517  15.234 -1.2360  0.2150  0.3794
 3732TIP3    H232612   5.781   5.546  15.319 -1.2796  2.8052 -0.3529
 3733TIP3   OH232613   0.550   4.082  13.398 -0.0969  0.0298  0.9649
 3733TIP3    H132614   0.566   4.176  13.397  1.4147 -0.2009  1.0231
 3733TIP3    H232615   0.545   4.058  13.305 -1.7505  0.3260  0.9393
 3734TIP3   OH232616   1.094   6.756   2.752 -0.1091 -0.2165  0.1466
 3734TIP3    H132617   1.048   6.839   2.761  0.1106 -0.0100 -0.5759
 3734TIP3    H232618   1.177   6.770   2.797 -1.3234 -1.1145  2.9205
 3735TIP3   OH232619   2.057   2.719  12.893 -0.4163 -0.0225  0.3572
 3735TIP3    H132620   2.084   2.789  12.954 -1.1679  0.3625  0.2571
 3735TIP3    H232621   2.050   2.641  12.948  0.2182  0.0175  0.5089
 3736TIP3   OH232622   3.651   4.994   2.154 -0.2482 -0.6955  0.3563
 3736TIP3    H132623   3.586   5.009   2.223 -1.5296  0.1032 -0.9631
 3736TIP3    H232624   3.696   5.078   2.146 -0.9616 -0.3887 -0.6025
 3737TIP3   OH232625   3.523   3.809   3.902 -0.2459 -0.6855 -0.1153
 3737TIP3    H132626   3.543   3.850   3.986 -0.7515 -2.5609  0.9709
 3737TIP3    H232627   3.578   3.856   3.839  0.1343  0.7686  1.2440
 3738TIP3   OH232628   3.744   5.379  12.566 -0.2597 -0.3077 -0.1497
 3738TIP3    H132629   3.806   5.359  12.636 -0.1769  0.6571  0.0657
 3738TIP3    H232630   3.661   5.393  12.611 -0.6173 -1.4205 -0.4223
 3739TIP3   OH232631   0.463   0.002  12.709  0.1024  0.0621  0.9002
 3739TIP3    H132632   0.448   0.088  12.669  0.3742  0.2079  1.1047
 3739TIP3    H232633   0.487  -0.055  12.636 -1.1642 -0.1119  0.5983
 3740TIP3   OH232634   5.432   0.359   1.338 -0.4204  0.2051  0.4956
 3740TIP3    H132635   5.393   0.372   1.251  0.2007  0.9249  0.3154
 3740TIP3    H232636   5.440   0.264   1.347 -0.0707  0.1400 -0.4262
 3741TIP3   OH232637   6.536   3.687  12.244 -0.0590 -0.3293  0.2168
 3741TIP3    H132638   6.619   3.644  12.262 -0.7296 -1.2402  1.3062
 3741TIP3    H232639   6.560   3.770  12.204  1.4208 -0.0426  1.5952
 3742TIP3   OH232640   2.496   2.510  14.055  0.2904  0.1292  0.0406
 3742TIP3    H132641   2.513   2.523  13.962  0.7353 -2.0392 -0.2367
 3742TIP3    H232642   2.582   2.492  14.093  0.0593  0.5900  0.8004
 3743TIP3   OH232643   0.257   0.669  15.810  0.2075  0.6371  0.1361
 3743TIP3    H132644   0.175   0.700  15.849  0.5383  0.5375  0.9375
 3743TIP3    H232645   0.258   0.575  15.828 -1.5894 -0.2870 -3.7376
 3744TIP3   OH232646   3.551   5.223  16.824 -0.6917  0.1463  0.2300
 3744TIP3    H132647   3.582   5.138  16.795  0.2804 -0.2316  2.1783
 3744TIP3    H232648   3.517   5.265  16.745  0.8148 -1.1691 -1.1984
 3745TIP3   OH232649   6.585   4.183   2.665  0.2016 -0.5133 -0.3364
 3745TIP3    H132650   6.490   4.173   2.680  0.0256  0.2689 -0.8840
 3745TIP3    H232651   6.592   4.260   2.609  1.0851 -1.3047 -1.3361
 3746TIP3   OH232652   3.341   2.133  15.178  0.1397  0.2700  0.2996
 3746TIP3    H132653   3.320   2.142  15.085 -1.3007  0.6204  0.6346
 3746TIP3    H232654   3.259   2.155  15.223  0.6307 -0.5344  1.6319
 3747TIP3   OH232655   2.070   2.214   4.934  0.4255  0.4546  0.2652
 3747TIP3    H132656   2.090   2.125   4.961 -2.5939 -0.1091  1.0217
 3747TIP3    H232657   2.031   2.205   4.847 -2.5344  0.5926  1.4758
 3748TIP3   OH232658   6.423   2.680   5.201 -0.0020 -0.4494  0.3316
 3748TIP3    H132659   6.409   2.742   5.273  1.8034 -0.0244  0.3615
 3748TIP3    H232660   6.516   2.660   5.205 -0.1165 -1.3858 -1.1383
 3749TIP3   OH232661   3.044   4.786  15.635  0.4217  0.4060  0.3966
 3749TIP3    H132662   2.961   4.825  15.663  0.7918  0.6952  1.1201
 3749TIP3    H232663   3.098   4.788  15.714  1.4727  1.1813 -0.3216
 3750TIP3   OH232664   5.199   2.151  14.317 -0.0561 -0.2780 -0.5430
 3750TIP3    H132665   5.109   2.132  14.290 -0.3481 -0.9061  0.8124
 3750TIP3    H232666   5.227   2.073  14.363 -0.1648  1.2684  2.4030
 3751TIP3   OH232667   5.009   5.923  14.503  0.4550  0.2085  0.0925
 3751TIP3    H132668   5.092   5.874  14.506  0.4160  0.0460 -1.1323
 3751TIP3    H232669   4.969   5.905  14.588  0.0776 -2.5782 -0.5550
 3752TIP3   OH232670   5.322   2.537  12.597 -0.3297 -0.2780  0.1926
 3752TIP3    H132671   5.245   2.491  12.565  0.3477 -0.1308 -1.7529
 3752TIP3    H232672   5.300   2.630  12.586 -0.2898 -0.2036  0.7035
 3753TIP3   OH232673   1.453   6.511   2.197 -0.4621  0.3862 -0.1988
 3753TIP3    H132674   1.473   6.518   2.103  0.0580  0.7090 -0.0664
 3753TIP3    H232675   1.457   6.601   2.229  1.2760  0.0878  0.5124
 3754TIP3   OH232676   2.145   5.619   0.999 -0.4294  0.0042 -0.0717
 3754TIP3    H132677   2.097   5.550   1.047  0.0543 -0.2282  0.0842
 3754TIP3    H232678   2.095   5.630   0.918 -2.0300  1.3395  1.0312
 3755TIP3   OH232679   2.748   5.024   4.326  0.5132 -0.4348  0.3956
 3755TIP3    H132680   2.749   4.960   4.255  0.0681  0.1309 -0.1316
 3755TIP3    H232681   2.755   5.108   4.282 -0.0407 -0.0612  1.0084
 3756TIP3   OH232682   3.310   5.015   2.030 -0.2730 -0.1663  0.5553
 3756TIP3    H132683   3.226   4.976   2.005  1.4488 -3.0196 -1.4669
 3756TIP3    H232684   3.325   4.983   2.119 -0.0592 -2.2271 -0.1544
 3757TIP3   OH232685   3.861   2.812   0.339  0.0739 -0.1337  0.1355
 3757TIP3    H132686   3.766   2.804   0.333  0.0339 -0.1445  0.7101
 3757TIP3    H232687   3.891   2.818   0.248 -0.5079  0.2741 -0.0334
 3758TIP3   OH232688   0.945   6.280   3.981  0.0862  1.0092  0.2047
 3758TIP3    H132689   0.911   6.235   3.903  2.2907  0.8689 -0.7523
 3758TIP3    H232690   1.018   6.225   4.009  0.0423  1.6915  1.6993
 3759TIP3   OH232691   6.675   6.439   2.776 -0.3050  0.1020 -0.1192
 3759TIP3    H132692   6.744   6.375   2.790 -1.0559 -0.3604  1.8221
 3759TIP3    H232693   6.612   6.396   2.718  0.5696  0.1934 -1.1612
 3760TIP3   OH232694   6.404   5.869  15.795 -0.0519  0.4107 -0.5259
 3760TIP3    H132695   6.355   5.848  15.875  0.4405 -1.3771 -0.6646
 3760TIP3    H232696   6.495   5.874  15.824  0.0951  0.0628 -0.9330
 3761TIP3   OH232697   6.454   6.230  11.760  0.1431 -0.1742 -0.0571
 3761TIP3    H132698   6.549   6.216  11.760  0.0245 -1.0711 -0.8471
 3761TIP3    H232699   6.434   6.262  11.672 -0.3476 -0.5021 -0.0729
 3762TIP3   OH232700   4.885   4.946  12.030 -0.2966 -0.0965 -0.0030
 3762TIP3    H132701   4.893   5.041  12.034  0.4189 -0.1851  1.8466
 3762TIP3    H232702   4.919   4.922  11.944 -0.9226  1.3287 -0.6871
 3763TIP3   OH232703   0.425   0.262   3.281  0.4722 -0.0243  0.3244
 3763TIP3    H132704   0.481   0.311   3.221  1.5654 -2.1931 -0.5315
 3763TIP3    H232705   0.363   0.217   3.224 -2.3284  2.3473  1.2514
 3764TIP3   OH232706   2.096   5.766  15.076  0.2889 -0.0631  0.6484
 3764TIP3    H132707   2.128   5.690  15.126 -0.8421 -0.8760  0.1784
 3764TIP3    H232708   2.002   5.752  15.069  0.2756  0.5963 -0.8029
 3765TIP3   OH232709   2.980   3.614  12.573 -0.0827  0.0299 -0.3848
 3765TIP3    H132710   2.952   3.579  12.488  1.6641 -0.2279 -0.9012
 3765TIP3    H232711   2.910   3.589  12.633 -1.4622  0.3811 -1.7619
 3766TIP3   OH232712   2.117   2.193  16.331  0.1416 -0.0943  0.0730
 3766TIP3    H132713   2.082   2.209  16.243  0.4503 -0.4490 -0.1192
 3766TIP3    H232714   2.094   2.271  16.381 -0.1502  0.0539 -0.2903
 3767TIP3   OH232715   0.923   4.674  12.752 -0.2817 -0.2951  0.7081
 3767TIP3    H132716   0.852   4.625  12.710 -0.5749  0.7711 -0.0721
 3767TIP3    H232717   0.880   4.747  12.796  0.4761  2.0017 -2.0821
 3768TIP3   OH232718   5.884   0.396  11.974 -0.0742  0.1186  0.3721
 3768TIP3    H132719   5.931   0.451  11.911 -0.6869  1.4102  0.9910
 3768TIP3    H232720   5.919   0.423  12.060 -0.7844 -0.0512  0.7213
 3769TIP3   OH232721   6.730   0.074  11.761  0.2023  0.0787  0.1719
 3769TIP3    H132722   6.826   0.067  11.769  0.1172  0.6738  2.5467
 3769TIP3    H232723   6.702  -0.013  11.733  1.3739 -0.4195  0.4785
 3770TIP3   OH232724   1.406   6.619   2.636 -0.5182  0.0405  0.5101
 3770TIP3    H132725   1.339   6.580   2.692  2.0087 -1.2400  2.8951
 3770TIP3    H232726   1.442   6.545   2.587 -1.0092  0.7560 -0.9641
 3771TIP3   OH232727   0.766   3.557  16.237 -0.2161 -0.2869 -0.3061
 3771TIP3    H132728   0.788   3.547  16.330 -0.3343  3.5434  0.2860
 3771TIP3    H232729   0.842   3.522  16.191  0.8888 -0.1566  1.3190
 3772TIP3   OH232730   6.544   0.551  11.364  0.0512  0.0023  0.1657
 3772TIP3    H132731   6.515   0.460  11.373  0.9684 -0.1771  1.8225
 3772TIP3    H232732   6.519   0.592  11.447 -0.5895  1.3532 -0.6641
 3773TIP3   OH232733   3.549   0.836  16.970 -0.2076  0.0670  0.2666
 3773TIP3    H132734   3.634   0.871  16.997  1.3417 -1.9576 -1.6026
 3773TIP3    H232735   3.531   0.766  17.033  0.4475 -0.6790 -0.3432
 3774TIP3   OH232736   5.521   1.444   1.271  0.3462 -0.5158 -0.1686
 3774TIP3    H132737   5.603   1.448   1.320  0.3014  0.7162 -0.1710
 3774TIP3    H232738   5.455   1.423   1.338 -0.0142  2.9652  0.7836
 3775TIP3   OH232739   0.579   6.062   1.787 -0.5005  0.7129  0.0520
 3775TIP3    H132740   0.581   6.148   1.746 -2.5298  0.4838 -0.6708
 3775TIP3    H232741   0.503   6.066   1.847 -2.0555 -1.2058 -1.6302
 3776TIP3   OH232742   0.457   3.799   3.522  0.3533 -0.5309 -0.1757
 3776TIP3    H132743   0.525   3.767   3.581 -1.4445 -2.1598  1.1007
 3776TIP3    H232744   0.412   3.868   3.571 -0.3902 -1.0643 -0.0948
 3777TIP3   OH232745   6.178   6.624  11.659  0.2817 -0.4237 -0.3277
 3777TIP3    H132746   6.089   6.589  11.655  0.5802 -1.2587  0.0613
 3777TIP3    H232747   6.168   6.712  11.694 -0.3673 -0.5978 -0.0607
 3778TIP3   OH232748   4.216   4.135   4.985 -0.4438  0.7981  0.0192
 3778TIP3    H132749   4.288   4.153   4.925  0.7265 -0.7248  0.8843
 3778TIP3    H232750   4.222   4.205   5.051  3.8262 -1.9920  3.1754
 3779TIP3   OH232751   5.431   4.155  12.810  0.0150  0.3184  0.2745
 3779TIP3    H132752   5.516   4.187  12.782 -0.5101  2.6523  1.0939
 3779TIP3    H232753   5.449   4.097  12.884  0.8730  1.5137  1.0310
 3780TIP3   OH232754   1.135   0.158  12.715  0.5194 -0.2853 -0.0650
 3780TIP3    H132755   1.190   0.160  12.793  1.2283 -0.0942 -0.5655
 3780TIP3    H232756   1.109   0.250  12.702  0.2244 -0.3490  0.0687
 3781TIP3   OH232757   3.218   1.804   2.096 -0.2802  0.6764  0.3264
 3781TIP3    H132758   3.304   1.763   2.107  0.2784  2.1604  2.0279
 3781TIP3    H232759   3.156   1.736   2.119  0.4746 -0.1881 -0.1369
 3782TIP3   OH232760   4.425   4.249   1.199 -0.4638  0.5412  0.0602
 3782TIP3    H132761   4.511   4.277   1.166 -0.7788  0.6676 -0.6672
 3782TIP3    H232762   4.364   4.277   1.131 -0.7919 -2.1014 -0.8202
 3783TIP3   OH232763   4.953   3.746   3.543  0.6608 -0.7127 -0.1768
 3783TIP3    H132764   4.969   3.757   3.450  1.0205 -3.0013 -0.4432
 3783TIP3    H232765   5.037   3.716   3.579  0.7444  0.8500  1.0519
 3784TIP3   OH232766   5.897   3.588  12.536 -0.1680 -0.5539  0.4160
 3784TIP3    H132767   5.833   3.582  12.465  2.2126 -0.9569 -1.8566
 3784TIP3    H232768   5.878   3.672  12.578 -1.0168  0.2335 -1.4006
 3785TIP3   OH232769   2.440   5.781  12.527  0.2864 -0.4950 -0.1327
 3785TIP3    H132770   2.377   5.728  12.576 -0.1087 -1.1692 -1.3408
 3785TIP3    H232771   2.411   5.776  12.436  1.1840  0.4789 -0.4961
 3786TIP3   OH232772   0.371   5.649   2.861 -0.6007 -0.1364 -0.0638
 3786TIP3    H132773   0.317   5.679   2.935 -0.7442  1.0295 -0.6261
 3786TIP3    H232774   0.424   5.725   2.838  0.2681 -0.8444 -0.4321
 3787TIP3   OH232775   6.414   1.340  11.663 -0.1184  0.1206  0.1499
 3787TIP3    H132776   6.444   1.394  11.590 -0.3670  0.3729  0.2323
 3787TIP3    H232777   6.330   1.304  11.634 -0.7952  1.1439  0.7359
 3788TIP3   OH232778   3.361   1.130   0.544 -0.1586  0.4220  0.0981
 3788TIP3    H132779   3.325   1.149   0.457  0.9340  1.9869 -0.0476
 3788TIP3    H232780   3.353   1.212   0.592  2.8878  0.8016  0.1392
 3789TIP3   OH232781   6.501   3.858  14.849 -0.3009  0.3806 -0.5421
 3789TIP3    H132782   6.504   3.775  14.802 -0.2298  1.6000 -2.8477
 3789TIP3    H232783   6.409   3.884  14.848 -0.7155 -0.6515  2.1732
 3790TIP3   OH232784   5.410   0.654   2.243  0.1501  0.5594  0.2725
 3790TIP3    H132785   5.370   0.652   2.156 -0.4104 -0.1405  0.5320
 3790TIP3    H232786   5.338   0.631   2.303  0.9823 -0.9853  0.7300
 3791TIP3   OH232787   4.107   1.902   6.327  0.1828 -0.5311  0.2514
 3791TIP3    H132788   4.088   1.946   6.410 -2.8221 -0.9791 -0.0744
 3791TIP3    H232789   4.199   1.923   6.309 -0.1558  2.8796  1.7082
 3792TIP3   OH232790   0.759   0.539   4.795 -0.1141  0.8422 -0.0974
 3792TIP3    H132791   0.664   0.536   4.805  0.0948 -2.6092  2.5197
 3792TIP3    H232792   0.790   0.582   4.875  0.6152  1.4181 -0.6682
 3793TIP3   OH232793   0.128   5.080  16.292 -0.1145  0.0699  0.0187
 3793TIP3    H132794   0.150   5.014  16.227  0.5966 -1.5083  1.7426
 3793TIP3    H232795   0.203   5.079  16.353 -0.1936  2.3087  0.2492
 3794TIP3   OH232796   2.065   0.959  11.922  0.1507  0.1575  0.6658
 3794TIP3    H132797   2.154   0.925  11.914  0.2491  0.7509 -1.2999
 3794TIP3    H232798   2.077   1.052  11.941  0.0663  0.8003 -2.0328
 3795TIP3   OH232799   0.838   2.008  15.357 -0.1690 -0.0578 -0.2263
 3795TIP3    H132800   0.841   1.995  15.452 -3.2342 -0.5119 -0.0955
 3795TIP3    H232801   0.766   1.953  15.327  0.1641  0.7169 -2.7390
 3796TIP3   OH232802   0.248   1.081  11.574  0.4317  0.0790  0.5378
 3796TIP3    H132803   0.160   1.096  11.608 -0.6924  2.5970 -2.8593
 3796TIP3    H232804   0.297   1.158  11.601  0.6187  0.2227 -0.1869
 3797TIP3   OH232805   5.956   5.501   4.654 -0.7460 -0.2892 -0.3340
 3797TIP3    H132806   6.042   5.461   4.664 -0.8074 -0.6222 -1.0898
 3797TIP3    H232807   5.904   5.464   4.725 -0.1455  0.2729  0.4155
 3798TIP3   OH232808   4.308   5.602   1.594 -0.2046 -0.1032  0.0159
 3798TIP3    H132809   4.242   5.538   1.620  2.4933 -2.8367  0.7686
 3798TIP3    H232810   4.325   5.653   1.674 -0.7226 -0.0038  0.0678
 3799TIP3   OH232811   1.377   6.310  13.324  0.1717 -0.1059 -0.1970
 3799TIP3    H132812   1.363   6.311  13.230  0.5358 -0.2787 -0.2545
 3799TIP3    H232813   1.289   6.314  13.362 -0.0644 -1.4324 -0.5472
 3800TIP3   OH232814   6.515   5.094  15.791 -0.5726  0.1439 -0.6175
 3800TIP3    H132815   6.461   5.162  15.831  1.1412  1.8456 -1.0721
 3800TIP3    H232816   6.462   5.060  15.719 -1.0895  1.6886 -0.9894
 3801TIP3   OH232817   5.094   6.346  17.243  0.2333 -0.0245 -0.0833
 3801TIP3    H132818   5.109   6.433  17.281 -2.9757  0.3872  0.5010
 3801TIP3    H232819   5.085   6.288  17.320  1.0078 -0.6314 -0.4379
 3802TIP3   OH232820   3.436   2.835  14.795 -0.0039 -0.1074 -0.2013
 3802TIP3    H132821   3.462   2.876  14.877 -1.1565  0.5968 -0.1680
 3802TIP3    H232822   3.518   2.801  14.759  0.3609 -1.6025  1.8435
 3803TIP3   OH232823   3.758   0.652   3.626  0.0190 -0.8745  0.5176
 3803TIP3    H132824   3.755   0.748   3.631  1.5338 -0.6408 -1.6190
 3803TIP3    H232825   3.814   0.627   3.700 -0.2256 -0.1092  0.9819
 3804TIP3   OH232826   6.184   3.131  13.417 -0.5145  0.1223  0.6477
 3804TIP3    H132827   6.271   3.097  13.434  0.0418  0.6915 -0.8774
 3804TIP3    H232828   6.136   3.058  13.378 -0.1176  0.3341 -0.2582
 3805TIP3   OH232829   1.395   3.628   3.568  0.0946  0.2988 -0.2913
 3805TIP3    H132830   1.386   3.533   3.564  0.7173  0.2480 -0.6235
 3805TIP3    H232831   1.485   3.645   3.539 -0.0624  1.0005 -0.3924
 3806TIP3   OH232832   2.634   2.050   4.486  0.8576  0.3364  0.0418
 3806TIP3    H132833   2.724   2.030   4.513  0.1784 -1.0311  1.4759
 3806TIP3    H232834   2.580   2.024   4.561 -0.9072 -0.8047 -1.5110
 3807TIP3   OH232835   0.723   1.562   1.857  0.3934  0.3137 -0.0052
 3807TIP3    H132836   0.715   1.580   1.763  0.2185 -2.3246 -0.5609
 3807TIP3    H232837   0.642   1.517   1.880  1.4839 -1.3310  0.8014
 3808TIP3   OH232838   5.486   6.022  15.810 -1.1328  0.4118  0.2446
 3808TIP3    H132839   5.411   6.020  15.870 -3.1967 -1.0185 -2.1520
 3808TIP3    H232840   5.452   6.065  15.731  0.8860  0.5651 -0.5992
 3809TIP3   OH232841   0.200   6.188  16.074 -0.3436 -0.4060  0.1509
 3809TIP3    H132842   0.210   6.093  16.062 -3.6027 -1.0399  1.2744
 3809TIP3    H232843   0.113   6.207  16.040 -0.6335  1.7916  1.8561
 3810TIP3   OH232844   3.762   3.046   0.505  0.2355  0.3580 -0.0949
 3810TIP3    H132845   3.706   2.970   0.521 -1.2843  1.4464 -0.1276
 3810TIP3    H232846   3.744   3.071   0.414 -0.1592  1.4674  0.2756
 3811TIP3   OH232847   6.244   5.336   1.867  0.5572  0.2934 -0.6448
 3811TIP3    H132848   6.167   5.291   1.901 -0.0424 -0.2177 -2.5601
 3811TIP3    H232849   6.210   5.418   1.831  0.8508 -0.0080 -1.6502
 3812TIP3   OH232850   4.646   1.003   4.993 -0.2123  0.7717  0.1979
 3812TIP3    H132851   4.657   1.087   4.949 -0.3866  1.0662  0.7074
 3812TIP3    H232852   4.563   1.011   5.040 -2.1866 -0.9729 -2.6195
 3813TIP3   OH232853   0.936   3.095   5.228 -0.0936  0.2615 -0.5322
 3813TIP3    H132854   0.973   3.053   5.150 -0.6956  3.0041 -2.4308
 3813TIP3    H232855   0.871   3.033   5.260 -0.3900 -0.6210 -2.6827
 3814TIP3   OH232856   6.189   4.411  14.475 -0.2487 -0.0568  0.6453
 3814TIP3    H132857   6.282   4.390  14.471  0.2594  2.0989 -1.1703
 3814TIP3    H232858   6.187   4.506  14.488 -2.2067 -0.1468  1.2378
 3815TIP3   OH232859   5.369   0.095  15.415  0.6054  0.1200 -0.3150
 3815TIP3    H132860   5.380   0.108  15.321 -0.4270 -1.3228 -0.6645
 3815TIP3    H232861   5.455   0.067  15.446  0.8059  0.0297 -0.9383
 3816TIP3   OH232862   3.800   0.150   6.159  0.7398 -0.0149 -0.0071
 3816TIP3    H132863   3.877   0.140   6.215  0.0727  2.4247  1.4863
 3816TIP3    H232864   3.743   0.078   6.185  1.4317 -0.3123  0.7459
 3817TIP3   OH232865   4.240   2.854  13.495  0.6853  0.4559  0.4476
 3817TIP3    H132866   4.231   2.759  13.505  1.8105  0.4645  1.9023
 3817TIP3    H232867   4.300   2.880  13.565  1.3574  2.0850 -0.6708
 3818TIP3   OH232868   4.915   1.400   6.552 -0.4586 -0.6370 -0.1176
 3818TIP3    H132869   4.862   1.478   6.536  0.1424 -0.2751 -0.3602
 3818TIP3    H232870   5.000   1.419   6.513  0.3978 -0.5517  1.6899
 3819TIP3   OH232871   6.357   1.012   1.277 -0.0532 -0.7053 -0.9965
 3819TIP3    H132872   6.436   1.034   1.326  0.4359  1.6793 -2.6909
 3819TIP3    H232873   6.317   1.096   1.256 -3.9579 -1.8284  1.0347
 3820TIP3   OH232874   1.752   0.791   6.589 -0.1734 -0.3133  0.4571
 3820TIP3    H132875   1.714   0.877   6.604  1.4043  0.7210 -1.1556
 3820TIP3    H232876   1.679   0.739   6.554 -0.9153  0.6407  0.5440
 3821TIP3   OH232877   0.673   0.158  16.359 -0.0143 -0.4186 -0.0554
 3821TIP3    H132878   0.675   0.072  16.317  1.1914  0.1321 -1.1828
 3821TIP3    H232879   0.765   0.181  16.371 -0.2829  1.1310 -0.6937
 3822TIP3   OH232880   1.589   3.909  13.539 -0.7015 -0.3804  0.3670
 3822TIP3    H132881   1.546   3.850  13.602 -0.9676  1.2129  1.7552
 3822TIP3    H232882   1.615   3.985  13.591  1.2300 -0.0095 -1.0179
 3823TIP3   OH232883   1.443   6.689   1.561  0.4891  0.3161 -0.1247
 3823TIP3    H132884   1.484   6.631   1.497 -1.5239 -1.2494 -0.0905
 3823TIP3    H232885   1.469   6.777   1.534  0.9983 -0.3915 -2.1271
 3824TIP3   OH232886   5.690   2.397   3.373 -0.0119  0.6749 -0.3893
 3824TIP3    H132887   5.607   2.374   3.415  0.1421  1.0299  0.1179
 3824TIP3    H232888   5.725   2.468   3.427  2.3132 -1.7325  1.4940
 3825TIP3   OH232889   2.889   0.798  14.409 -0.7395  0.1633  0.0401
 3825TIP3    H132890   2.875   0.752  14.326 -1.8045 -0.3764  0.4890
 3825TIP3    H232891   2.833   0.876  14.403 -1.4692 -0.3008  0.5514
 3826TIP3   OH232892   5.310   2.469  13.748 -0.2446 -0.4750 -0.4044
 3826TIP3    H132893   5.287   2.557  13.777  1.3770 -0.4165  0.8851
 3826TIP3    H232894   5.235   2.440  13.696 -2.1980  0.4586  1.7301
 3827TIP3   OH232895   0.518   3.028   0.508  0.3274 -0.6119 -0.4443
 3827TIP3    H132896   0.608   3.060   0.518 -0.1266  0.0593  2.4176
 3827TIP3    H232897   0.526   2.933   0.512  0.8797 -0.5398  0.8612
 3828TIP3   OH232898   5.435   0.514   6.051  0.4262  0.6533 -0.0739
 3828TIP3    H132899   5.436   0.534   6.145  1.5892 -0.2738  0.1436
 3828TIP3    H232900   5.526   0.491   6.031 -0.1440 -0.9354 -1.0258
 3829TIP3   OH232901   3.185   5.937   3.200 -0.4929 -0.2445  0.3987
 3829TIP3    H132902   3.229   5.944   3.115 -1.2900 -2.4406 -0.2636
 3829TIP3    H232903   3.247   5.974   3.262  0.4722  0.6232 -1.0313
 3830TIP3   OH232904   5.506   5.426  17.175 -0.0899 -0.7198 -0.1120
 3830TIP3    H132905   5.490   5.459  17.086  1.6115  3.3315  0.8819
 3830TIP3    H232906   5.593   5.386  17.170 -0.6712 -2.0077 -0.5308
 3831TIP3   OH232907   2.289   0.365   1.263  0.1303 -0.0723  0.0395
 3831TIP3    H132908   2.318   0.311   1.337  0.6905  1.1822  0.7630
 3831TIP3    H232909   2.360   0.358   1.199  0.1525 -0.2715  0.0846
 3832TIP3   OH232910   6.484   2.378   0.407 -0.2421 -0.1877 -0.6155
 3832TIP3    H132911   6.484   2.283   0.394  1.1533 -0.9451  3.3753
 3832TIP3    H232912   6.442   2.391   0.492  1.1903  2.5692 -0.2092
 3833TIP3   OH232913   1.682   4.528  14.487 -0.3762 -0.0488  0.7102
 3833TIP3    H132914   1.734   4.573  14.554  0.0311  0.6826 -0.0788
 3833TIP3    H232915   1.594   4.565  14.496 -0.5145 -0.5127  1.3409
 3834TIP3   OH232916   3.902   1.962  14.865 -0.5916  0.2761 -0.3561
 3834TIP3    H132917   3.858   1.952  14.950 -1.7950  1.0730 -0.8549
 3834TIP3    H232918   3.897   2.055  14.846  1.1011  0.3488 -0.5813
 3835TIP3   OH232919   4.618   0.136   4.742 -0.3878  0.5844  0.3547
 3835TIP3    H132920   4.574   0.199   4.799 -1.0954 -1.1023  1.7731
 3835TIP3    H232921   4.694   0.184   4.708 -0.8782  2.1830  1.3654
 3836TIP3   OH232922   3.510   2.669   6.358 -0.1019 -0.0270 -0.1505
 3836TIP3    H132923   3.546   2.739   6.305 -1.4675  0.6915 -0.1637
 3836TIP3    H232924   3.586   2.630   6.402  0.6883  1.3559 -0.2541
 3837TIP3   OH232925   0.693   1.866   4.224 -0.6673 -0.6444  0.1304
 3837TIP3    H132926   0.624   1.867   4.157  0.6228 -0.9010 -1.2733
 3837TIP3    H232927   0.715   1.958   4.237 -0.7925 -0.5999  0.0248
 3838TIP3   OH232928   4.166   3.001   1.634 -0.0173 -0.2241  0.4742
 3838TIP3    H132929   4.199   2.977   1.547  0.3218  0.9948  0.2487
 3838TIP3    H232930   4.072   2.984   1.629 -0.3492  1.6918 -0.8270
 3839TIP3   OH232931   5.084   5.313   1.818  0.2087 -0.1159 -0.1419
 3839TIP3    H132932   5.140   5.364   1.759  2.2361 -1.3988  0.5674
 3839TIP3    H232933   5.144   5.279   1.885 -1.4777 -1.3951  0.7997
 3840TIP3   OH232934   2.607   3.359  15.001 -0.2746  0.1818 -0.2168
 3840TIP3    H132935   2.648   3.416  15.067  0.1333 -0.6894  0.2953
 3840TIP3    H232936   2.596   3.415  14.925 -0.5147  1.1480  0.5029
 3841TIP3   OH232937   1.338   2.293   4.990 -0.0203 -0.1276  0.1918
 3841TIP3    H132938   1.295   2.370   5.026 -0.8423 -1.2431  1.7394
 3841TIP3    H232939   1.424   2.292   5.033 -0.4934 -0.7277  1.1683
 3842TIP3   OH232940   2.693   2.197   0.550  0.0941 -0.5071 -0.5658
 3842TIP3    H132941   2.731   2.285   0.547 -1.6916  0.3535  0.2298
 3842TIP3    H232942   2.606   2.210   0.588 -0.3257 -2.5965 -0.6861
 3843TIP3   OH232943   6.678   2.193   3.596 -0.2462 -0.1585  0.1417
 3843TIP3    H132944   6.585   2.171   3.593 -0.0654 -1.0025  0.3659
 3843TIP3    H232945   6.722   2.108   3.607  0.6075  0.1311 -0.8990
 3844TIP3   OH232946   1.620   6.271   6.327 -0.0191 -0.3394  0.3641
 3844TIP3    H132947   1.694   6.281   6.386  0.3818 -0.2371 -0.1424
 3844TIP3    H232948   1.552   6.328   6.362  0.4528  0.2430  0.3490
 3845TIP3   OH232949   3.127   0.184  16.172 -0.2979 -0.0796 -0.0603
 3845TIP3    H132950   3.113   0.118  16.104  1.2878  0.7287 -1.2483
 3845TIP3    H232951   3.211   0.224  16.149 -0.3420  1.0957  1.6722
 3846TIP3   OH232952   1.201   4.395   3.124  0.1608 -0.5246 -0.5579
 3846TIP3    H132953   1.262   4.444   3.069 -0.1322  0.0775 -0.3500
 3846TIP3    H232954   1.254   4.322   3.158  0.9285  0.2816  0.0430
 3847TIP3   OH232955   5.065   3.433   5.647  0.0443 -0.0822 -0.3823
 3847TIP3    H132956   5.140   3.434   5.706 -1.5035 -0.0060  1.7229
 3847TIP3    H232957   5.046   3.340   5.634 -0.3575 -0.1027  0.2968
 3848TIP3   OH232958   2.356   0.635   1.094  0.2853  0.2363 -0.1911
 3848TIP3    H132959   2.328   0.717   1.133  0.5902  1.4095 -2.3130
 3848TIP3    H232960   2.296   0.570   1.130 -0.6412  1.5450  0.7121
 3849TIP3   OH232961   0.881   3.283  15.776 -0.4263 -0.5867  0.2980
 3849TIP3    H132962   0.965   3.260  15.815  1.5520  1.0755 -2.6435
 3849TIP3    H232963   0.891   3.262  15.683 -4.1848 -2.5693  0.1401
 3850TIP3   OH232964   0.475   6.441   0.432  0.1895  0.1584  0.2396
 3850TIP3    H132965   0.442   6.504   0.496 -0.7510  0.3070 -0.3741
 3850TIP3    H232966   0.543   6.489   0.383  1.1189 -0.0475  1.2922
 3851TIP3   OH232967   5.793   2.875   3.969 -0.1445  0.3089 -0.5104
 3851TIP3    H132968   5.800   2.796   4.023  0.7531  0.2033 -0.7600
 3851TIP3    H232969   5.798   2.843   3.879  1.8994  0.7564 -0.6063
 3852TIP3   OH232970   5.137   5.778  14.838  0.1731  0.2770  0.0261
 3852TIP3    H132971   5.047   5.793  14.807  0.5106 -1.3842 -1.9610
 3852TIP3    H232972   5.137   5.687  14.867  1.1643  0.3255  0.1820
 3853TIP3   OH232973   4.312   5.617   4.594 -0.2122 -0.2669 -0.0914
 3853TIP3    H132974   4.228   5.601   4.552 -0.0409 -1.3498 -0.0588
 3853TIP3    H232975   4.329   5.538   4.644  0.5025  0.2247  0.4630
 3854TIP3   OH232976   3.582   5.981  13.487 -0.2541  0.2203  0.2263
 3854TIP3    H132977   3.552   5.928  13.413 -0.6160 -0.3279  0.7480
 3854TIP3    H232978   3.614   6.062  13.448  0.8411 -0.6037 -0.6540
 3855TIP3   OH232979   2.929   0.165  11.716  0.8916  0.6034 -0.1350
 3855TIP3    H132980   2.892   0.251  11.739  1.8828  0.9545  0.1825
 3855TIP3    H232981   3.017   0.166  11.753  1.0743 -0.3855 -0.5187
 3856TIP3   OH232982   2.956   2.141   2.145 -0.0185  0.0158 -0.2602
 3856TIP3    H132983   2.922   2.230   2.142 -0.6787 -0.2535 -2.3263
 3856TIP3    H232984   2.884   2.089   2.183 -0.2652  0.1066 -0.6035
 3857TIP3   OH232985   6.373   5.194  17.069 -0.1373  0.2588 -0.0509
 3857TIP3    H132986   6.305   5.129  17.053 -1.2405  1.2687  0.4051
 3857TIP3    H232987   6.450   5.159  17.024 -0.2060 -2.1459  1.4985
 3858TIP3   OH232988   6.306   5.767   3.505  0.2128  0.1627  0.0852
 3858TIP3    H132989   6.233   5.721   3.548  0.4829 -0.4986 -0.1391
 3858TIP3    H232990   6.384   5.717   3.531  0.3204 -0.6370 -1.6496
 3859TIP3   OH232991   3.811   6.298   0.720 -0.1111  0.1775 -0.2682
 3859TIP3    H132992   3.890   6.309   0.667  0.7369 -0.8688  0.6878
 3859TIP3    H232993   3.752   6.246   0.666  0.0546  0.5734 -0.8265
 3860TIP3   OH232994   6.394   4.738  15.414 -0.1578  1.1787  0.0816
 3860TIP3    H132995   6.351   4.797  15.476 -1.3264 -0.7751  1.2520
 3860TIP3    H232996   6.358   4.763  15.328 -2.3153  0.8017  0.8098
 3861TIP3   OH232997   2.633   4.212  15.349 -0.2632 -0.3080 -0.6440
 3861TIP3    H132998   2.625   4.200  15.254  0.5244 -0.7813 -0.6616
 3861TIP3    H232999   2.721   4.179  15.370 -0.6100 -0.6499  0.3213
 3862TIP3   OH233000   5.347   4.956  17.189 -0.0989  0.1178 -0.2310
 3862TIP3    H133001   5.388   5.024  17.242  0.1430 -1.6476  1.9825
 3862TIP3    H233002   5.266   4.934  17.235 -0.9696 -0.0451 -1.7591
 3863TIP3   OH233003   5.675   2.549   1.964 -0.3505 -0.1844 -0.2469
 3863TIP3    H133004   5.643   2.461   1.986 -1.2336 -0.0705 -0.9899
 3863TIP3    H233005   5.738   2.570   2.033 -0.9016 -0.9778  0.5182
 3864TIP3   OH233006   0.075   2.743  13.247 -0.8128 -0.3647  0.1169
 3864TIP3    H133007   0.074   2.761  13.341  0.7333 -3.1209  0.7701
 3864TIP3    H233008   0.166   2.760  13.221 -1.2734  0.5577 -0.9555
 3865TIP3   OH233009   2.914   4.564  14.482 -0.1983  0.1209  0.2096
 3865TIP3    H133010   2.856   4.567  14.406  0.2079 -0.3926 -0.1223
 3865TIP3    H233011   2.973   4.638  14.471 -0.4250  0.3076  0.2548
 3866TIP3   OH233012   6.179   3.314   6.294 -0.0964  0.1758  0.4920
 3866TIP3    H133013   6.095   3.292   6.335 -0.5173 -1.8637 -1.3214
 3866TIP3    H233014   6.245   3.273   6.350 -0.5539 -1.1388  0.0860
 3867TIP3   OH233015   3.615   0.417   1.507  0.1308 -0.3879 -0.5968
 3867TIP3    H133016   3.526   0.399   1.539  0.3767 -1.8859 -0.6564
 3867TIP3    H233017   3.642   0.334   1.466  1.6448 -0.0322 -0.3652
 3868TIP3   OH233018   0.974   5.158   4.836 -0.0857  0.0240  0.2073
 3868TIP3    H133019   0.969   5.070   4.799  2.5311 -0.3215  0.4863
 3868TIP3    H233020   0.977   5.216   4.760 -2.5236  0.0103  0.0191
 3869TIP3   OH233021   6.765   2.797   1.585 -0.6701  0.0229  0.3372
 3869TIP3    H133022   6.756   2.800   1.490  0.8932  1.3238  0.1929
 3869TIP3    H233023   6.812   2.716   1.603 -2.1188 -0.8930  0.1449
 3870TIP3   OH233024   1.315   3.410   0.762 -0.4596 -0.4993  0.4771
 3870TIP3    H133025   1.404   3.447   0.758 -0.1215 -0.8682  2.9494
 3870TIP3    H233026   1.321   3.327   0.715  0.4689 -0.4448  0.4844
 3871TIP3   OH233027   6.084   1.907   2.828 -0.0935  0.0926  0.7135
 3871TIP3    H133028   6.157   1.855   2.863 -0.3869 -0.7357  0.1291
 3871TIP3    H233029   6.044   1.850   2.762 -0.0423  1.3095 -0.3945
 3872TIP3   OH233030   3.257   4.326  14.794 -0.6825  0.5795 -0.3260
 3872TIP3    H133031   3.302   4.408  14.773  1.0819 -0.7812 -2.2339
 3872TIP3    H233032   3.259   4.321  14.889  2.6797  0.9750 -0.2576
 3873TIP3   OH233033   2.009   0.507  13.987  0.3702 -0.9205  0.4583
 3873TIP3    H133034   2.090   0.529  13.942  0.2923 -1.2036  0.1802
 3873TIP3    H233035   2.036   0.486  14.076  0.6786 -1.6069  0.2115
 3874TIP3   OH233036   3.712   4.898  16.883  0.0376  0.5429  0.0305
 3874TIP3    H133037   3.635   4.874  16.934 -0.4866  0.6899 -0.6697
 3874TIP3    H233038   3.764   4.818  16.879  0.2296  0.6059  1.0269
 3875TIP3   OH233039   4.165   2.770   2.153 -0.2086  0.1230 -0.3216
 3875TIP3    H133040   4.137   2.855   2.190  0.0951  1.2859 -2.5893
 3875TIP3    H233041   4.260   2.778   2.145 -0.1460 -0.5765 -0.2673
 3876TIP3   OH233042   4.890   3.097   3.758  0.1066  0.4151  0.0294
 3876TIP3    H133043   4.846   3.134   3.835  0.5608  0.2191  0.3848
 3876TIP3    H233044   4.880   3.002   3.768 -0.1214  0.4000 -0.3258
 3877TIP3   OH233045   6.654   1.222   1.796  0.9644  0.4075 -0.0979
 3877TIP3    H133046   6.589   1.156   1.768 -0.7530  1.0455  2.0850
 3877TIP3    H233047   6.737   1.176   1.793 -0.1604 -1.9333  1.2879
 3878TIP3   OH233048   3.652   4.647   0.588  0.1170 -0.3198 -0.3858
 3878TIP3    H133049   3.630   4.567   0.541 -0.3132 -0.0539 -0.6433
 3878TIP3    H233050   3.603   4.641   0.670 -1.6811  0.6703 -1.3187
 3879TIP3   OH233051   5.646   6.592   5.227  0.0392 -0.2281  0.1630
 3879TIP3    H133052   5.721   6.595   5.167 -0.3471  0.8426 -0.2802
 3879TIP3    H233053   5.572   6.566   5.172 -0.0359 -0.7039  0.4829
 3880TIP3   OH233054   4.358   5.355   4.736 -0.8579 -0.6814 -0.2854
 3880TIP3    H133055   4.287   5.339   4.799  0.3202  0.0352  1.3058
 3880TIP3    H233056   4.434   5.310   4.773 -0.1431 -0.3083 -1.2553
 3881TIP3   OH233057   3.518   5.318  16.369 -0.2834  0.7293 -0.3036
 3881TIP3    H133058   3.520   5.244  16.431  0.9562  1.3724  0.4648
 3881TIP3    H233059   3.519   5.277  16.283  0.7500 -0.1803  0.1104
 3882TIP3   OH233060   3.997   4.253  17.086 -0.2032 -0.3220  0.0837
 3882TIP3    H133061   4.011   4.346  17.101 -0.0764 -0.0852 -1.3663
 3882TIP3    H233062   3.999   4.214  17.173  1.9987  0.7182  0.5688
 3883TIP3   OH233063   4.439   4.676   1.352 -0.3184 -0.1275 -0.2136
 3883TIP3    H133064   4.459   4.615   1.422 -2.3933 -0.6133  0.0306
 3883TIP3    H233065   4.523   4.697   1.312  0.6427 -1.5731  0.9904
 3884TIP3   OH233066   2.639   5.275  14.535 -0.5480 -0.2886 -0.3542
 3884TIP3    H133067   2.580   5.247  14.465 -0.0289 -0.6895 -0.6410
 3884TIP3    H233068   2.667   5.194  14.577  1.3931 -0.3018 -1.5379
 3885TIP3   OH233069   3.109   0.531  17.027  0.6175  0.1818  0.0385
 3885TIP3    H133070   3.038   0.586  16.993  0.8219  0.1622 -0.4303
 3885TIP3    H233071   3.188   0.567  16.989  0.8160 -0.0716  0.2056
 3886TIP3   OH233072   3.972   6.544  16.656 -0.7341  0.1865 -0.0551
 3886TIP3    H133073   3.925   6.592  16.724 -1.8008 -1.0359  0.1015
 3886TIP3    H233074   3.910   6.478  16.625  0.3554 -0.4727 -0.9228
 3887TIP3   OH233075   1.882   4.289  13.927 -0.4539 -0.2848 -0.0958
 3887TIP3    H133076   1.929   4.372  13.923 -2.7946  1.2241  1.2453
 3887TIP3    H233077   1.809   4.300  13.865 -0.1563 -1.8489 -0.7898
 3888TIP3   OH233078   2.121   2.830  14.696 -0.0942 -0.0272  0.6199
 3888TIP3    H133079   2.202   2.798  14.655  0.1175  1.1925  0.0271
 3888TIP3    H233080   2.097   2.907  14.644 -0.8721  0.4473  1.6477
 3889TIP3   OH233081   5.251   6.125   5.983 -0.5697 -0.1137 -0.5811
 3889TIP3    H133082   5.167   6.108   5.942  0.2191 -2.7019 -1.3326
 3889TIP3    H233083   5.253   6.067   6.059  0.3026  0.3038 -0.2737
 3890TIP3   OH233084   4.506   0.188   0.510  0.1142 -0.4735 -0.4593
 3890TIP3    H133085   4.561   0.121   0.469 -1.7163 -1.8957 -0.7876
 3890TIP3    H233086   4.422   0.180   0.464 -0.5738  1.1243  0.4511
 3891TIP3   OH233087   0.662   4.514   5.312  0.0713 -0.0669 -0.2307
 3891TIP3    H133088   0.588   4.547   5.261  0.2092 -0.3584 -0.6240
 3891TIP3    H233089   0.703   4.449   5.255  1.6748  1.3046 -0.7380
 3892TIP3   OH233090   1.855   2.064  11.596 -0.5288  0.6214  0.1470
 3892TIP3    H133091   1.779   2.086  11.542 -0.4873  0.2326 -0.0760
 3892TIP3    H233092   1.894   1.988  11.553  0.2684  1.1062 -0.0114
 3893TIP3   OH233093   0.727   4.074   1.535  0.3485  0.1944 -0.2232
 3893TIP3    H133094   0.653   4.113   1.488 -0.8802 -2.3847 -0.6510
 3893TIP3    H233095   0.707   4.090   1.627  0.9881  2.2908 -0.3931
 3894TIP3   OH233096   1.591   4.855  12.415 -0.2348 -0.4425  0.1018
 3894TIP3    H133097   1.637   4.935  12.391 -2.2257  1.0785  1.0945
 3894TIP3    H233098   1.583   4.806  12.333  2.2307 -0.3572 -0.2663
 3895TIP3   OH233099   2.057   5.242  13.003 -0.2629 -0.1064  0.2589
 3895TIP3    H133100   2.052   5.152  13.035 -1.9521  1.0346  3.5684
 3895TIP3    H233101   1.979   5.253  12.949 -0.2907 -0.4709  0.2229
 3896TIP3   OH233102   4.362   6.141  11.947  0.1977 -0.2303 -0.4003
 3896TIP3    H133103   4.317   6.074  11.999  2.5454 -1.1486  0.5974
 3896TIP3    H233104   4.315   6.222  11.966 -0.9802 -1.1095  0.6079
 3897TIP3   OH233105   5.356   5.366   5.643  0.2848  0.9265  0.1370
 3897TIP3    H133106   5.298   5.417   5.586 -1.0483 -1.5385 -0.8304
 3897TIP3    H233107   5.428   5.339   5.586  0.9311  1.5611  0.6246
 3898TIP3   OH233108   0.674   4.078   1.797  0.1674  0.4706  0.0188
 3898TIP3    H133109   0.634   4.165   1.791  0.6676  0.7605  0.7336
 3898TIP3    H233110   0.613   4.027   1.850 -0.0141  0.4404 -0.2119
 3899TIP3   OH233111   4.333   1.089   0.340  0.0477 -0.6247 -0.0040
 3899TIP3    H133112   4.423   1.113   0.316 -0.2533  0.4696 -0.0757
 3899TIP3    H233113   4.333   1.093   0.436 -0.4159  1.3246 -0.0484
 3900TIP3   OH233114   1.238   1.356  11.010  0.1046 -0.5428  0.0665
 3900TIP3    H133115   1.259   1.413  10.936  0.1034 -1.3079 -0.5297
 3900TIP3    H233116   1.206   1.276  10.970 -1.1982 -0.4754  0.9169
 3901TIP3   OH233117   2.399   3.712  12.051 -0.4860 -0.1219 -0.4268
 3901TIP3    H133118   2.491   3.698  12.075  0.1443 -0.0163 -2.6136
 3901TIP3    H233119   2.350   3.692  12.132  1.4155 -0.4596  0.6999
 3902TIP3   OH233120   5.207   1.016   4.194  0.5516  0.2703  0.1432
 3902TIP3    H133121   5.200   0.934   4.146 -0.9700  0.7177 -0.4765
 3902TIP3    H233122   5.275   1.000   4.260  0.1113 -1.5513  0.2044
 3903TIP3   OH233123   5.609   5.368   2.309  0.0144  0.4444  0.4942
 3903TIP3    H133124   5.516   5.383   2.325 -0.5380 -1.2146 -0.8715
 3903TIP3    H233125   5.616   5.362   2.214  1.2548 -0.9808  0.6443
 3904TIP3   OH233126   2.116   2.107   6.261  0.2243  0.0029  0.3664
 3904TIP3    H133127   2.188   2.064   6.214  1.6504  0.4562  2.0584
 3904TIP3    H233128   2.072   2.036   6.308 -0.0687 -0.1841 -0.1786
 3905TIP3   OH233129   5.221   2.063   4.402  0.9050  0.2065  0.0535
 3905TIP3    H133130   5.266   2.139   4.365  1.9591  0.2328  1.3268
 3905TIP3    H233131   5.149   2.099   4.453  0.6443  0.2669 -0.3493
 3906TIP3   OH233132   4.357   0.193  11.697  0.1756  0.1782  0.2844
 3906TIP3    H133133   4.369   0.154  11.610  0.0812  0.3472  0.1944
 3906TIP3    H233134   4.440   0.180  11.741  0.8048  1.6151 -0.4298
 3907TIP3   OH233135   1.893   3.961  11.872  0.1865  0.0602 -0.3368
 3907TIP3    H133136   1.986   3.969  11.852 -0.1637 -0.1842 -2.2804
 3907TIP3    H233137   1.890   3.913  11.955  1.8063  2.2810  1.1311
 3908TIP3   OH233138   5.000   0.965  12.276  0.2277 -0.2960  0.4666
 3908TIP3    H133139   5.063   1.016  12.225  0.2731 -0.3507  0.4679
 3908TIP3    H233140   5.037   0.962  12.364 -0.5883  1.0839  0.8811
 3909TIP3   OH233141   1.477   2.961  12.092 -0.3072 -0.1081 -0.7019
 3909TIP3    H133142   1.489   2.897  12.022 -0.8159  0.0411 -0.9238
 3909TIP3    H233143   1.422   2.916  12.156  0.0769 -0.2094 -0.4390
 3910TIP3   OH233144   6.318   6.038   3.543 -0.0354  0.1659 -0.1072
 3910TIP3    H133145   6.229   6.070   3.532  0.2936  0.4498 -2.3141
 3910TIP3    H233146   6.311   5.943   3.533 -0.3831 -0.1047  2.1457
 3911TIP3   OH233147   0.067   2.697   6.603  0.2925 -0.2002 -0.1340
 3911TIP3    H133148   0.060   2.607   6.573 -0.8207 -0.0819 -0.2452
 3911TIP3    H233149   0.155   2.725   6.575  0.3632 -1.0090 -0.7310
 3912TIP3   OH233150   4.341   3.431   2.205 -0.0464  0.0318  0.0984
 3912TIP3    H133151   4.301   3.408   2.121 -0.2902  1.0610 -0.0771
 3912TIP3    H233152   4.377   3.519   2.191  0.4368 -0.0344  0.8891
 3913TIP3   OH233153   4.045   1.700   5.014  0.0613  0.1799 -0.1262
 3913TIP3    H133154   4.015   1.727   5.101  1.1646 -1.5321  0.8634
 3913TIP3    H233155   4.010   1.612   5.003  0.1800  0.2686 -1.3126
 3914TIP3   OH233156   6.242   5.921  14.171  0.5684  0.5505 -0.6635
 3914TIP3    H133157   6.294   5.961  14.101 -0.6534  0.8898 -1.4079
 3914TIP3    H233158   6.287   5.838  14.190  1.3743  0.8384 -1.2810
 3915TIP3   OH233159   6.020   1.012  15.544 -0.1643 -0.0110  0.0968
 3915TIP3    H133160   6.012   1.046  15.455  0.5600 -0.1308 -0.0200
 3915TIP3    H233161   6.047   1.088  15.596  1.2078 -0.3105 -0.1206
 3916TIP3   OH233162   2.498   2.504  11.600  0.1720 -0.4055 -0.0116
 3916TIP3    H133163   2.530   2.438  11.538 -1.4001 -0.5868 -0.6714
 3916TIP3    H233164   2.491   2.584  11.547  3.7646  0.9136  1.1562
 3917TIP3   OH233165   3.223   2.188   3.946  0.1936  0.3487  0.0720
 3917TIP3    H133166   3.220   2.093   3.936  1.4175  0.3942 -0.8935
 3917TIP3    H233167   3.186   2.204   4.034 -1.3791 -0.8706 -0.3145
 3918TIP3   OH233168   0.515   2.109  15.311  0.5406  0.1896  0.0019
 3918TIP3    H133169   0.443   2.163  15.346 -0.4167  0.2084 -1.8612
 3918TIP3    H233170   0.474   2.025  15.290  1.1084  0.1102 -0.8309
 3919TIP3   OH233171   4.261   3.841   2.156  0.1627  0.0064  0.8891
 3919TIP3    H133172   4.234   3.840   2.064 -0.0567  0.4249  0.9481
 3919TIP3    H233173   4.332   3.777   2.160  0.7906  0.6427  0.2386
 3920TIP3   OH233174   3.956   3.472   1.439  0.4555  0.6378 -0.9154
 3920TIP3    H133175   3.998   3.386   1.437  0.1005  0.4631 -0.8777
 3920TIP3    H233176   4.023   3.532   1.406  1.1618  0.5455  0.2587
 3921TIP3   OH233177   1.413   1.027  13.271  0.0940 -0.3838  0.1621
 3921TIP3    H133178   1.441   0.958  13.211  1.6473 -0.0562  0.4575
 3921TIP3    H233179   1.334   0.993  13.313  0.0625 -1.3966 -0.6866
 3922TIP3   OH233180   4.036   3.138   0.176 -0.0375 -0.0959 -0.0459
 3922TIP3    H133181   4.060   3.115   0.086  0.6977  0.2148  0.0658
 3922TIP3    H233182   3.947   3.173   0.169 -0.8905 -2.1658 -0.3458
 3923TIP3   OH233183   0.241   4.040  14.441  0.3155  0.7505 -0.0014
 3923TIP3    H133184   0.166   4.023  14.384 -0.0415 -0.3962  0.7683
 3923TIP3    H233185   0.304   3.972  14.417  0.4848  0.7632  0.4059
 3924TIP3   OH233186   6.547   3.152   2.531  0.1698  0.3810 -0.2962
 3924TIP3    H133187   6.604   3.077   2.543  1.0426  0.6832 -2.1292
 3924TIP3    H233188   6.607   3.226   2.519 -0.6382  1.0199 -0.5036
 3925TIP3   OH233189   2.541   5.530  13.714 -0.0549 -1.0179  0.8852
 3925TIP3    H133190   2.451   5.497  13.704 -0.2374 -0.8611  1.8421
 3925TIP3    H233191   2.568   5.552  13.626 -0.5846 -2.0307  0.4430
 3926TIP3   OH233192   1.572   4.163  15.309 -0.0896  0.2843 -0.1105
 3926TIP3    H133193   1.515   4.196  15.239 -0.3018  1.3471  0.5553
 3926TIP3    H233194   1.636   4.232  15.323 -1.0453  0.8279  1.8799
 3927TIP3   OH233195   6.432   5.522  12.294  0.2987 -0.3182  0.5653
 3927TIP3    H133196   6.453   5.453  12.231 -0.3273  0.5869 -0.6678
 3927TIP3    H233197   6.507   5.581  12.291  0.2176 -0.2129  0.5988
 3928TIP3   OH233198   3.148   0.023   2.135 -0.0749 -0.1120 -0.4827
 3928TIP3    H133199   3.171  -0.067   2.157  2.4980  0.8989  1.4416
 3928TIP3    H233200   3.223   0.056   2.087 -0.6856  1.1992 -0.5776
 3929TIP3   OH233201   2.919   1.353  16.861  0.0910 -0.1594  0.6872
 3929TIP3    H133202   2.950   1.270  16.826  1.3465  0.3647  0.4770
 3929TIP3    H233203   2.915   1.340  16.955  1.7625 -0.0304  0.8070
 3930TIP3   OH233204   0.875   0.380  16.735 -0.3672  0.2270 -0.8656
 3930TIP3    H133205   0.957   0.377  16.785  1.2052  2.3042 -3.0586
 3930TIP3    H233206   0.820   0.443  16.782  0.6321  1.2866 -1.0679
 3931TIP3   OH233207   0.746   0.458  13.103 -0.9019 -0.2499  0.2990
 3931TIP3    H133208   0.798   0.505  13.168  1.6692 -1.5710 -0.6484
 3931TIP3    H233209   0.737   0.370  13.139 -5.3273  0.5975  1.8726
 3932TIP3   OH233210   3.892   4.602   0.320 -0.4868 -0.0925 -0.1588
 3932TIP3    H133211   3.926   4.539   0.384 -0.1111 -2.1910 -2.3029
 3932TIP3    H233212   3.934   4.685   0.345  1.2973 -1.2732  1.0618
 3933TIP3   OH233213   3.387   2.470   4.866  0.3096 -0.2887  0.2259
 3933TIP3    H133214   3.390   2.433   4.777  2.3651 -2.7152  1.1773
 3933TIP3    H233215   3.306   2.436   4.903  1.2863 -2.5686  0.4669
 3934TIP3   OH233216   3.612   0.921   0.340  0.5440 -0.3277 -0.2951
 3934TIP3    H133217   3.519   0.933   0.361  0.6993  0.3765  0.0117
 3934TIP3    H233218   3.643   0.857   0.404  0.2974 -0.4872 -0.3326
 3935TIP3   OH233219   2.392   5.599   1.681 -0.2105 -0.2238  0.6153
 3935TIP3    H133220   2.442   5.680   1.697  0.5339 -0.6829  0.6906
 3935TIP3    H233221   2.452   5.529   1.708  0.4481 -0.9961 -2.4371
 3936TIP3   OH233222   5.598   2.676   4.791 -0.0444  0.7099 -0.3240
 3936TIP3    H133223   5.680   2.637   4.820 -0.9191 -0.5952  0.5110
 3936TIP3    H233224   5.620   2.720   4.709  1.8647  1.9773  0.7934
 3937TIP3   OH233225   4.376   5.270   3.628  0.2655  0.8457  0.3507
 3937TIP3    H133226   4.308   5.241   3.688 -0.0341  0.3687 -0.2108
 3937TIP3    H233227   4.336   5.342   3.579 -0.8836 -1.1801 -1.9338
 3938TIP3   OH233228   3.019   0.663  12.036 -0.0994  0.4824 -0.3322
 3938TIP3    H133229   3.005   0.741  11.981  0.6503  2.0062  1.5246
 3938TIP3    H233230   2.972   0.682  12.117  1.2673 -0.3378  0.6993
 3939TIP3   OH233231   4.748   6.068   3.972  0.5027  0.2550 -0.0590
 3939TIP3    H133232   4.836   6.093   3.999 -0.2081  1.3430  1.4348
 3939TIP3    H233233   4.711   6.022   4.048 -0.3474  0.1629 -0.5101
 3940TIP3   OH233234   2.060   0.167   1.611  0.0208  0.4348 -0.1706
 3940TIP3    H133235   2.127   0.131   1.669 -0.3813 -0.0017  0.0352
 3940TIP3    H233236   1.982   0.175   1.667 -0.7022 -1.0450 -0.8965
 3941TIP3   OH233237   2.140   2.418   3.872  0.2877  0.2164  0.4282
 3941TIP3    H133238   2.062   2.429   3.925  0.5301  1.0526  0.6292
 3941TIP3    H233239   2.159   2.506   3.838 -0.0369 -0.3576 -1.3024
 3942TIP3   OH233240   0.818   1.929  16.003 -0.3542 -0.7306  0.1579
 3942TIP3    H133241   0.810   1.999  15.938  0.3155 -2.5972 -2.0516
 3942TIP3    H233242   0.758   1.861  15.972  0.9225 -2.1898  0.7750
 3943TIP3   OH233243   0.998   2.943   1.595 -0.9698 -0.3992  0.1764
 3943TIP3    H133244   1.001   2.856   1.634 -2.0246 -0.0484  1.0723
 3943TIP3    H233245   0.915   2.946   1.548 -0.7267 -0.0339 -0.2397
 3944TIP3   OH233246   0.143   5.939  11.372  0.0213 -0.5007  0.3122
 3944TIP3    H133247   0.068   5.897  11.330  0.2513 -2.0791  1.3983
 3944TIP3    H233248   0.220   5.900  11.331  0.2870  0.6729 -0.3713
 3945TIP3   OH233249   5.488   5.077  13.478 -0.2249  0.0208 -0.1866
 3945TIP3    H133250   5.563   5.131  13.451 -0.2795  0.5073  0.6200
 3945TIP3    H233251   5.527   5.002  13.522 -0.2289  1.3067  2.1390
 3946TIP3   OH233252   4.400   1.003  16.864  0.0522 -0.2786  0.3039
 3946TIP3    H133253   4.474   1.021  16.923  0.0060 -0.2261  0.3444
 3946TIP3    H233254   4.381   0.910  16.878  0.8173 -0.5708 -0.5136
 3947TIP3   OH233255   2.737   2.062   3.513  0.1526 -0.2923 -0.1921
 3947TIP3    H133256   2.762   2.056   3.605 -0.7391 -0.6457  0.0422
 3947TIP3    H233257   2.775   1.985   3.472  1.8538  0.6461 -0.4618
 3948TIP3   OH233258   0.894   5.650   0.276 -0.7143 -0.4268 -0.0342
 3948TIP3    H133259   0.802   5.673   0.289 -0.2347  0.9383  1.3915
 3948TIP3    H233260   0.924   5.709   0.207 -0.6092  0.0698  0.4246
 3949TIP3   OH233261   4.994   0.729  15.325 -0.3645 -0.2009  0.0836
 3949TIP3    H133262   5.055   0.661  15.355 -0.4427  0.4034  1.6824
 3949TIP3    H233263   4.910   0.684  15.319 -0.0167 -0.7566 -1.0311
 3950TIP3   OH233264   6.629   1.223  13.078  0.0256  0.3072  0.2299
 3950TIP3    H133265   6.585   1.229  12.994 -0.1388 -0.9904  0.1948
 3950TIP3    H233266   6.670   1.136  13.077  0.4644  0.4858  1.2720
 3951TIP3   OH233267   4.721   4.961   1.279  1.1285 -0.1506  0.7337
 3951TIP3    H133268   4.790   4.956   1.344  0.0355 -1.2993  1.8748
 3951TIP3    H233269   4.662   5.029   1.312  1.0273 -0.1099  0.4721
 3952TIP3   OH233270   2.047   5.459  12.384  0.3993  0.1820  0.0816
 3952TIP3    H133271   2.123   5.403  12.367  0.7665  0.8013 -0.3618
 3952TIP3    H233272   2.048   5.522  12.313 -0.5933  0.1408  0.0195
 3953TIP3   OH233273   0.654   5.418  12.900 -0.2963 -0.1132 -0.1864
 3953TIP3    H133274   0.618   5.505  12.914  1.0953  0.3723  0.6099
 3953TIP3    H233275   0.643   5.403  12.806 -1.4342  0.4941 -0.1704
 3954TIP3   OH233276   2.850   2.792   1.475  0.0426  0.5202 -0.1403
 3954TIP3    H133277   2.768   2.833   1.503 -0.2611  0.3621 -0.7576
 3954TIP3    H233278   2.868   2.726   1.541 -0.9268 -0.1919 -0.5614
 3955TIP3   OH233279   1.435   5.026  15.679  0.1535 -0.2125 -0.0148
 3955TIP3    H133280   1.429   4.936  15.647 -2.7939  0.2996 -1.2373
 3955TIP3    H233281   1.473   5.018  15.766 -1.0297 -2.7737  0.3528
 3956TIP3   OH233282   3.661   0.400  15.217  0.2053  0.1518  0.3392
 3956TIP3    H133283   3.662   0.329  15.282  0.8402 -1.0116 -0.8791
 3956TIP3    H233284   3.744   0.389  15.170 -0.1981  1.0429 -0.5930
 3957TIP3   OH233285   3.566   2.840  12.387  0.2593 -0.6663 -0.3971
 3957TIP3    H133286   3.551   2.914  12.447 -0.2598 -0.5464 -0.6690
 3957TIP3    H233287   3.598   2.770  12.444  0.2309 -0.4019 -0.0485
 3958TIP3   OH233288   0.514   1.471   2.414  0.2419 -0.1601 -0.2167
 3958TIP3    H133289   0.506   1.485   2.319  0.2284 -0.2232 -0.2252
 3958TIP3    H233290   0.561   1.548   2.446  0.1849 -0.1051 -0.2651
 3959TIP3   OH233291   3.354   4.950   4.435 -0.2185  0.6420 -0.0856
 3959TIP3    H133292   3.331   4.965   4.526 -1.1559 -1.2475  0.0201
 3959TIP3    H233293   3.277   4.908   4.396 -0.2973  2.4328 -2.0744
 3960TIP3   OH233294   4.926   3.363   6.561  0.0843 -0.3791 -0.1182
 3960TIP3    H133295   4.897   3.303   6.630  0.8189  1.4401  1.8607
 3960TIP3    H233296   5.020   3.344   6.551  1.4483  2.9969  3.5548
 3961TIP3   OH233297   4.627   0.287   4.454  0.7512 -0.3929 -0.5034
 3961TIP3    H133298   4.564   0.236   4.403 -2.0776  3.8188 -1.7645
 3961TIP3    H233299   4.702   0.299   4.395  0.5161 -1.1998 -0.9806
 3962TIP3   OH233300   5.780   0.985   4.079 -0.7770  0.1669 -0.5624
 3962TIP3    H133301   5.780   0.924   4.153  3.3580  0.5244 -0.0113
 3962TIP3    H233302   5.773   0.930   4.002 -1.9637 -0.5097  0.0071
 3963TIP3   OH233303   1.184   1.808  12.667  0.3713  0.2405  0.0684
 3963TIP3    H133304   1.198   1.772  12.755 -2.2686 -2.7496 -0.5351
 3963TIP3    H233305   1.122   1.879  12.680 -1.5871 -1.4702  0.5435
 3964TIP3   OH233306   0.565   1.967   2.411  0.5188 -0.0316 -0.3292
 3964TIP3    H133307   0.647   1.988   2.367  0.5528 -0.4699 -0.4813
 3964TIP3    H233308   0.497   2.004   2.356  0.4936 -1.5129 -1.3504
 3965TIP3   OH233309   5.802   1.402   2.131 -0.3503  0.1353 -0.6752
 3965TIP3    H133310   5.793   1.496   2.145  1.3039  0.4324 -1.3637
 3965TIP3    H233311   5.766   1.362   2.211 -0.9289  1.3417 -0.3108
 3966TIP3   OH233312   0.461   5.247  11.783 -0.1543  0.1550 -0.4852
 3966TIP3    H133313   0.397   5.227  11.851 -0.4236  2.0777 -0.1199
 3966TIP3    H233314   0.516   5.169  11.778 -0.1374 -0.0491  1.9094
 3967TIP3   OH233315   2.765   4.438  11.790  0.3996 -0.2029 -0.5005
 3967TIP3    H133316   2.801   4.358  11.829  2.0328  0.8593  0.2684
 3967TIP3    H233317   2.836   4.472  11.735  0.9834  2.3636  1.6374
 3968TIP3   OH233318   1.237   1.101   1.313  0.5308  0.2643 -0.6197
 3968TIP3    H133319   1.161   1.151   1.284 -0.0968 -0.9026 -1.0371
 3968TIP3    H233320   1.264   1.051   1.237  0.1844 -1.2157  0.2043
 3969TIP3   OH233321   5.910   6.242   2.287  0.4706 -0.3228 -0.1230
 3969TIP3    H133322   5.879   6.231   2.197  1.1582  2.0048 -0.6948
 3969TIP3    H233323   5.936   6.333   2.293  1.9814 -0.8145  1.9779
 3970TIP3   OH233324   6.536   6.559  12.180  0.2364 -0.0144  0.3346
 3970TIP3    H133325   6.613   6.503  12.182  0.9800  0.9847  0.5678
 3970TIP3    H233326   6.569   6.643  12.145 -0.9035  0.1837 -0.3165
 3971TIP3   OH233327   3.108   1.013  14.545 -0.4765  0.1453  0.7034
 3971TIP3    H133328   3.121   1.107  14.531 -2.1623  0.4443  0.8185
 3971TIP3    H233329   3.020   0.996  14.510 -0.1350 -1.4324  0.5355
 3972TIP3   OH233330   3.487   4.384   2.426 -0.1998  0.1403  0.0617
 3972TIP3    H133331   3.496   4.450   2.495 -1.8691  1.6289 -1.0376
 3972TIP3    H233332   3.393   4.363   2.425 -0.4995  1.1643 -2.5456
 3973TIP3   OH233333   6.411   0.764  16.107  0.1117 -0.5701  0.1757
 3973TIP3    H133334   6.352   0.765  16.183  1.0264 -2.3635  0.9880
 3973TIP3    H233335   6.498   0.749  16.145  0.6410 -1.1369 -1.1949
 3974TIP3   OH233336   5.229   1.267   5.205  0.3160  0.2462 -0.2956
 3974TIP3    H133337   5.240   1.352   5.247 -0.8013  0.4102 -0.3068
 3974TIP3    H233338   5.304   1.259   5.146  1.5545  0.2960  1.2160
 3975TIP3   OH233339   6.739   5.971   5.933  0.1300 -0.0599 -0.0507
 3975TIP3    H133340   6.812   5.981   5.993 -0.8195 -0.6410  1.2514
 3975TIP3    H233341   6.733   5.877   5.918 -0.1739  0.0076 -0.3709
 3976TIP3   OH233342   3.615   3.297  12.631  0.0232  0.0894  0.0981
 3976TIP3    H133343   3.524   3.316  12.653 -0.0629  0.6271 -0.6625
 3976TIP3    H233344   3.625   3.331  12.542  0.3356 -1.9736 -0.7289
 3977TIP3   OH233345   5.426   5.765   0.342  0.3172 -0.2678 -0.0923
 3977TIP3    H133346   5.376   5.828   0.394 -1.2084 -1.6829  0.1912
 3977TIP3    H233347   5.361   5.705   0.306  1.2263  0.7278 -3.9037
 3978TIP3   OH233348   4.316   6.479   3.846 -0.2039 -0.6107 -0.2956
 3978TIP3    H133349   4.346   6.544   3.783 -0.4206  0.5256  0.7322
 3978TIP3    H233350   4.281   6.408   3.793  0.4609 -0.0976 -1.4531
 3979TIP3   OH233351   6.017   0.218   4.489 -0.0612 -0.0413  0.3397
 3979TIP3    H133352   5.970   0.276   4.430  0.8600 -0.2600 -0.6393
 3979TIP3    H233353   5.967   0.221   4.571 -0.2733  1.7749  0.1790
 3980TIP3   OH233354   3.159   2.135   6.008  0.2031  0.2888  0.0577
 3980TIP3    H133355   3.235   2.179   5.968 -1.5769  0.2518 -3.8211
 3980TIP3    H233356   3.182   2.042   6.005 -0.0748  0.2352 -1.5557
 3981TIP3   OH233357   1.441   1.336   2.390  0.2728 -0.3231 -0.2092
 3981TIP3    H133358   1.455   1.241   2.390 -0.8890 -0.5506  1.7091
 3981TIP3    H233359   1.352   1.346   2.423 -0.0046  1.4292 -1.3700
 3982TIP3   OH233360   5.066   0.755  15.069 -0.1697 -0.3410  0.6928
 3982TIP3    H133361   5.136   0.819  15.066  0.6232 -1.2109 -0.6984
 3982TIP3    H233362   5.036   0.755  15.160  1.1462  0.5617  1.1429
 3983TIP3   OH233363   3.204   1.193  17.079  0.2728  0.1709 -0.5757
 3983TIP3    H133364   3.235   1.136  17.149 -1.4675 -0.2164 -0.0952
 3983TIP3    H233365   3.119   1.225  17.109  0.0391  0.9543 -1.9851
 3984TIP3   OH233366   4.929   0.256  13.993 -0.1970 -0.6303  0.6930
 3984TIP3    H133367   4.887   0.284  14.074 -0.8209 -1.4314  0.6512
 3984TIP3    H233368   4.987   0.184  14.019 -1.0340 -1.4577  0.3104
 3985TIP3   OH233369   0.352   1.672  12.549 -0.0700 -0.5710  0.1500
 3985TIP3    H133370   0.400   1.746  12.587  0.7921 -0.8591 -0.3544
 3985TIP3    H233371   0.374   1.598  12.605  1.6525 -1.1166 -1.1843
 3986TIP3   OH233372   4.852   2.765   1.725 -0.1770  0.4992 -0.2309
 3986TIP3    H133373   4.850   2.734   1.635 -0.6667  0.3276 -0.1609
 3986TIP3    H233374   4.882   2.856   1.719  2.2683 -0.2195 -0.3637
 3987TIP3   OH233375   2.430   5.197   6.270 -0.5562 -0.5449  0.6052
 3987TIP3    H133376   2.464   5.145   6.343  2.5022  1.0037  0.4394
 3987TIP3    H233377   2.454   5.147   6.192  3.3634  1.2805  0.3775
 3988TIP3   OH233378   3.159   2.283  11.477 -0.3990 -0.1905  0.8193
 3988TIP3    H133379   3.169   2.232  11.557  0.8453 -0.9787  0.1882
 3988TIP3    H233380   3.247   2.316  11.458 -1.2355  2.7128  1.5048
 3989TIP3   OH233381   6.132   2.532   2.105  1.2926 -0.0998 -0.2490
 3989TIP3    H133382   6.142   2.486   2.022  0.8022 -1.1254  0.2307
 3989TIP3    H233383   6.201   2.599   2.104  2.8386 -1.6019 -0.5003
 3990TIP3   OH233384   4.370   4.452  16.330  0.2224 -0.6217  0.4845
 3990TIP3    H133385   4.437   4.385  16.315 -0.1851 -0.8638 -0.3165
 3990TIP3    H233386   4.336   4.472  16.243 -0.6696 -0.4259  0.8663
 3991TIP3   OH233387   0.101   1.193  10.621  0.0645  0.1566  0.0940
 3991TIP3    H133388   0.145   1.121  10.575  1.1461  1.3388 -0.7860
 3991TIP3    H233389   0.165   1.223  10.685 -0.0029  0.9553 -0.2006
 3992TIP3   OH233390   2.409   5.446   5.357  0.7520  0.0585 -0.1610
 3992TIP3    H133391   2.463   5.449   5.436 -0.9499 -2.5100  1.2677
 3992TIP3    H233392   2.361   5.529   5.357  2.3133  1.0095  0.2678
 3993TIP3   OH233393   2.751   5.338   5.566 -0.5876 -0.4488  0.1068
 3993TIP3    H133394   2.845   5.348   5.581 -0.7646 -0.6645  1.4810
 3993TIP3    H233395   2.718   5.428   5.562 -0.4233 -0.3808  0.2885
 3994TIP3   OH233396   4.358   1.911   5.382 -0.3495  0.4580  0.0339
 3994TIP3    H133397   4.424   1.969   5.343 -0.2921  0.0984 -0.4020
 3994TIP3    H233398   4.318   1.866   5.308 -0.5374  0.0913  0.3572
 3995TIP3   OH233399   3.709   3.518  12.805  0.0328  0.1749  0.7308
 3995TIP3    H133400   3.722   3.499  12.898  0.2897  1.4435  0.9650
 3995TIP3    H233401   3.615   3.506  12.791 -0.2644  1.4176  1.5112
 3996TIP3   OH233402   6.189   4.667  14.578 -0.0672 -0.2096  0.6259
 3996TIP3    H133403   6.127   4.734  14.607  0.5743  0.9974 -0.6051
 3996TIP3    H233404   6.239   4.645  14.656  0.5523  1.7312  0.8354
 3997TIP3   OH233405   5.306   4.434  15.774 -0.0898  0.5468 -0.0800
 3997TIP3    H133406   5.297   4.447  15.680 -2.5882 -0.6619 -0.0942
 3997TIP3    H233407   5.293   4.340  15.787 -3.2318  1.0609  1.6563
 3998TIP3   OH233408   4.639   1.533   5.478  0.5744 -0.7246  0.0834
 3998TIP3    H133409   4.646   1.498   5.389  1.4971  3.4080 -1.7407
 3998TIP3    H233410   4.553   1.576   5.481  1.3051  0.8092  0.4051
 3999TIP3   OH233411   0.774   5.319  14.508  0.8022 -0.5230 -0.4560
 3999TIP3    H133412   0.729   5.400  14.485  2.3916  0.5058 -0.1527
 3999TIP3    H233413   0.782   5.271  14.425  1.0585  0.2947 -0.9188
 4000TIP3   OH233414   5.097   2.639  15.087 -0.3225  0.3096 -0.1225
 4000TIP3    H133415   5.097   2.726  15.126  1.0004 -0.3444  1.4826
 4000TIP3    H233416   5.047   2.585  15.149 -0.0131 -0.3254 -0.4132
 4001TIP3   OH233417   0.953   1.642  16.123 -0.0768 -0.0547  0.3972
 4001TIP3    H133418   0.962   1.713  16.059  1.1448  1.0900  1.7582
 4001TIP3    H233419   0.995   1.567  16.082  0.2905  0.5371 -0.3336
 4002TIP3   OH233420   5.808   0.873  11.529  0.0717  0.1379  0.3255
 4002TIP3    H133421   5.881   0.811  11.523 -0.7405 -0.9232  1.1124
 4002TIP3    H233422   5.778   0.867  11.620 -0.6883  0.9205  0.1428
 4003TIP3   OH233423   6.391   2.350  11.774 -0.4051 -0.0659 -0.2374
 4003TIP3    H133424   6.337   2.278  11.808  0.5902 -1.1264 -0.8546
 4003TIP3    H233425   6.443   2.379  11.849 -1.7817  0.9890  0.3765
 4004TIP3   OH233426   1.680   3.400  16.510  0.0420  0.6505 -0.2248
 4004TIP3    H133427   1.601   3.345  16.514 -1.0134  1.9697 -1.8215
 4004TIP3    H233428   1.720   3.391  16.597 -1.5572 -0.4898  0.4380
 4005TIP3   OH233429   3.358   0.105   1.521  0.2928  0.0440  0.5207
 4005TIP3    H133430   3.338   0.025   1.473 -1.6368  0.1966  1.0035
 4005TIP3    H233431   3.427   0.147   1.469 -1.0402 -0.2640 -1.5989
 4006TIP3   OH233432   5.998   3.824   3.232  0.8523  0.2885 -0.1666
 4006TIP3    H133433   6.050   3.743   3.234  0.4655  0.0440  0.4011
 4006TIP3    H233434   6.033   3.874   3.159  0.3740 -0.8850 -1.2332
 4007TIP3   OH233435   0.868   6.774  14.671  0.0089  0.3307 -0.1968
 4007TIP3    H133436   0.833   6.791  14.759 -0.2230 -0.5984 -0.1048
 4007TIP3    H233437   0.951   6.728  14.687  0.1525  0.4945 -0.4600
 4008TIP3   OH233438   3.577   5.459  11.761 -0.5082  0.0283 -0.1821
 4008TIP3    H133439   3.649   5.522  11.769  0.4419 -1.1412  0.8817
 4008TIP3    H233440   3.549   5.465  11.670  0.9331  0.5256 -0.6048
 4009TIP3   OH233441   1.350   3.181   5.595 -0.1319 -0.5566  0.3520
 4009TIP3    H133442   1.288   3.253   5.604 -0.0704 -0.4246 -0.2679
 4009TIP3    H233443   1.308   3.120   5.534  0.6244 -0.1587 -0.5812
 4010TIP3   OH233444   6.143   3.888  14.244  0.2314  0.1898 -0.3759
 4010TIP3    H133445   6.234   3.885  14.215 -0.1454  1.6808 -1.9511
 4010TIP3    H233446   6.145   3.932  14.329  1.0015 -0.1194 -0.2333
 4011TIP3   OH233447   1.501   1.862  10.832 -0.2667  0.0655  0.1772
 4011TIP3    H133448   1.545   1.792  10.783 -0.5878 -0.3823  0.5222
 4011TIP3    H233449   1.572   1.912  10.871 -0.0365 -0.1676  0.0618
 4012TIP3   OH233450   6.015   0.852  15.114 -0.1529 -0.1613  0.1530
 4012TIP3    H133451   6.023   0.914  15.041 -0.2025  1.1794  1.2551
 4012TIP3    H233452   5.945   0.888  15.168 -0.2998 -1.2895  0.7392
 4013TIP3   OH233453   1.757   1.462   2.101 -0.0012  0.6084  0.7875
 4013TIP3    H133454   1.767   1.451   2.196  0.0166  1.4515  0.8900
 4013TIP3    H233455   1.666   1.488   2.089 -0.0597  0.2975  0.5522
 4014TIP3   OH233456   1.910   5.005  14.963 -0.0040  0.3540  0.3678
 4014TIP3    H133457   1.891   4.922  15.005  1.6060 -0.1969  0.0609
 4014TIP3    H233458   2.000   4.996  14.930  0.6366  2.5855  1.3071
 4015TIP3   OH233459   3.524   5.758   4.824  0.3746 -0.1756 -0.0978
 4015TIP3    H133460   3.484   5.794   4.744  0.6288  1.6037  0.5171
 4015TIP3    H233461   3.481   5.674   4.836 -0.5839  0.0810 -1.4229
 4016TIP3   OH233462   5.304   1.186  12.341 -0.0464 -0.5056 -0.5511
 4016TIP3    H133463   5.308   1.100  12.385  1.6673  0.4955  1.4626
 4016TIP3    H233464   5.362   1.176  12.265 -0.6478 -1.3996 -0.9115
 4017TIP3   OH233465   1.464   3.035  15.811  0.1989 -0.3994 -0.1340
 4017TIP3    H133466   1.383   3.002  15.773 -0.3743 -0.0866  0.7761
 4017TIP3    H233467   1.478   2.981  15.889  0.9600 -0.5657 -0.3773
 4018TIP3   OH233468   0.205   5.643  12.222 -0.1889 -0.8610  0.1909
 4018TIP3    H133469   0.185   5.671  12.311 -1.0962 -0.7899 -0.0263
 4018TIP3    H233470   0.226   5.550  12.230 -1.0799 -1.0516  0.3688
 4019TIP3   OH233471   1.892   5.712  16.829  0.9130  0.2393  0.1210
 4019TIP3    H133472   1.803   5.694  16.800  1.7092 -2.1866 -1.0677
 4019TIP3    H233473   1.882   5.742  16.919 -1.0714 -0.2817  0.1201
 4020TIP3   OH233474   5.970   5.311  16.336  0.4706  0.5016 -0.6739
 4020TIP3    H133475   6.051   5.352  16.305  0.2770  2.1710  0.8636
 4020TIP3    H233476   5.993   5.274  16.421 -0.4327  1.2541 -0.0835
 4021TIP3   OH233477   4.300   4.034  13.992  0.3299 -0.7607 -0.2633
 4021TIP3    H133478   4.291   4.073  13.905 -0.6995  0.0727  0.1941
 4021TIP3    H233479   4.210   4.016  14.020  0.7049 -1.9853  0.2147
 4022TIP3   OH233480   2.240   2.889  12.475 -0.9654  0.4458  0.1081
 4022TIP3    H133481   2.144   2.884  12.478 -0.8826 -2.6396  1.8923
 4022TIP3    H233482   2.268   2.844  12.555  2.0077 -2.3944 -2.3044
 4023TIP3   OH233483   3.034   3.423  15.689  0.3729  0.0609  0.4143
 4023TIP3    H133484   2.986   3.449  15.768 -0.2527  0.4396 -0.0849
 4023TIP3    H233485   3.066   3.335  15.709  0.7321  0.3810  1.3194
 4024TIP3   OH233486   4.913   4.212   0.943  0.5567  0.0088  0.3853
 4024TIP3    H133487   4.835   4.224   0.998  1.0862 -0.5073  1.2792
 4024TIP3    H233488   4.906   4.122   0.912  0.7245  0.0089  0.3479
 4025TIP3   OH233489   5.618   1.842  11.786 -0.2109 -0.1112 -0.3519
 4025TIP3    H133490   5.698   1.877  11.747 -0.6731 -1.2987 -2.5537
 4025TIP3    H233491   5.603   1.896  11.864  2.4415  0.4355 -0.1366
 4026TIP3   OH233492   5.884   3.924  14.734 -1.1484 -0.6103 -0.1411
 4026TIP3    H133493   5.795   3.951  14.756 -0.1696  1.7925  1.2507
 4026TIP3    H233494   5.923   4.000  14.691  0.4799 -1.2833  0.0492
 4027TIP3   OH233495   3.339   5.106   1.121 -0.2150  0.0048  0.0641
 4027TIP3    H133496   3.265   5.051   1.097 -0.6889  0.6637 -0.0258
 4027TIP3    H233497   3.309   5.154   1.198 -0.0511  0.5942 -0.2306
 4028TIP3   OH233498   3.116   5.431   2.368 -0.3650 -0.1454  0.5697
 4028TIP3    H133499   3.167   5.358   2.404  0.9058  1.7633  2.9133
 4028TIP3    H233500   3.053   5.452   2.436 -2.3863 -0.5319 -1.0841
 4029TIP3   OH233501   0.805   0.011  10.862  0.1750 -0.4185 -0.0236
 4029TIP3    H133502   0.858   0.048  10.932 -0.0860  1.9686 -1.0099
 4029TIP3    H233503   0.858  -0.062  10.828  1.2199 -0.3037  1.2882
 4030TIP3   OH233504   0.150   6.369   1.679 -0.0257  0.0908 -0.1435
 4030TIP3    H133505   0.217   6.370   1.747 -0.1106  1.7035 -0.0404
 4030TIP3    H233506   0.083   6.430   1.711  0.4348  1.7444 -2.1357
 4031TIP3   OH233507   2.276   2.848   0.381  0.0689  0.0441 -0.6356
 4031TIP3    H133508   2.334   2.818   0.451  0.5991  0.9265 -0.6854
 4031TIP3    H233509   2.204   2.785   0.381  0.7166 -0.7093 -0.1651
 4032TIP3   OH233510   5.001   6.072   1.409 -0.5587  0.2200  0.2657
 4032TIP3    H133511   5.094   6.069   1.432 -0.4376  2.0922  0.1500
 4032TIP3    H233512   4.966   6.145   1.458 -2.3550 -1.3298  1.4269
 4033TIP3   OH233513   3.814   6.093  10.899 -0.3127  0.1801  0.0661
 4033TIP3    H133514   3.805   6.183  10.865  2.1452  0.8599  0.9907
 4033TIP3    H233515   3.727   6.071  10.932 -0.7107  2.7387  0.9606
 4034TIP3   OH233516   4.434   3.596  16.900  0.2290  0.4092 -0.2102
 4034TIP3    H133517   4.484   3.619  16.978  1.4596  1.1966 -1.2002
 4034TIP3    H233518   4.494   3.544  16.847 -1.4265 -2.4094  0.4732
 4035TIP3   OH233519   6.756   6.657  12.371 -0.1830 -0.0749  0.6579
 4035TIP3    H133520   6.781   6.693  12.286 -0.2795 -0.7044  0.3553
 4035TIP3    H233521   6.775   6.564  12.364 -0.4690 -0.1798  1.2231
 4036TIP3   OH233522   2.185   4.614  12.931  0.3380  0.0647 -0.2518
 4036TIP3    H133523   2.246   4.596  12.860  1.2272 -2.1733  0.9887
 4036TIP3    H233524   2.233   4.591  13.010 -1.6967 -0.5942  0.8531
 4037TIP3   OH233525   1.103   1.064   1.998  0.0547 -0.2027 -0.2720
 4037TIP3    H133526   1.051   1.143   2.013  1.1190  0.2157  1.5746
 4037TIP3    H233527   1.106   1.021   2.084  1.9241 -0.7124 -0.5462
 4038TIP3   OH233528   6.220   2.270   6.043  0.0843  0.0567 -0.2815
 4038TIP3    H133529   6.264   2.351   6.070 -1.2771  1.0208 -0.8875
 4038TIP3    H233530   6.196   2.228   6.125  0.7754  0.2695  0.0405
 4039TIP3   OH233531   1.428   4.310   4.413 -0.1205  0.0328  0.0196
 4039TIP3    H133532   1.356   4.250   4.390  1.2320 -2.0323  0.8711
 4039TIP3    H233533   1.453   4.349   4.329 -0.1609 -1.6543 -0.8293
 4040TIP3   OH233534   2.577   1.181   2.070  0.0600 -0.3755  0.5296
 4040TIP3    H133535   2.599   1.092   2.042  0.6313  0.0632 -0.4588
 4040TIP3    H233536   2.592   1.180   2.165  0.9036 -1.0918  0.4083
 4041TIP3   OH233537   2.184   5.258  11.039 -0.1660 -0.3889  0.2011
 4041TIP3    H133538   2.252   5.242  10.974  0.6595 -1.0532  1.1940
 4041TIP3    H233539   2.121   5.314  10.994 -0.6156 -2.3323 -1.7972
 4042TIP3   OH233540   4.416   6.557  10.431 -0.2100  0.3352 -0.2630
 4042TIP3    H133541   4.415   6.473  10.477  0.1303  0.5737  0.1833
 4042TIP3    H233542   4.504   6.564  10.394  0.0369  0.8770  0.4149
 4043TIP3   OH233543   6.110   5.825  16.741 -0.7033 -0.0210  0.0398
 4043TIP3    H133544   6.022   5.793  16.724 -0.4214 -0.7934 -0.0298
 4043TIP3    H233545   6.167   5.764  16.694 -0.1165  0.2675  0.3626
 4044TIP3   OH233546   2.103   5.756  11.256 -0.1765 -0.3819  0.4293
 4044TIP3    H133547   2.094   5.844  11.220  0.9699 -0.6657 -0.5987
 4044TIP3    H233548   2.115   5.699  11.180  1.8058 -1.0574  1.1868
 4045TIP3   OH233549   5.822   3.661  11.779  0.0193  0.0269 -0.2192
 4045TIP3    H133550   5.753   3.709  11.733 -0.8703 -0.1870  0.8346
 4045TIP3    H233551   5.858   3.601  11.714 -1.1043 -0.1659 -0.6906
 4046TIP3   OH233552   2.579   4.327   1.483 -0.6144 -0.0806 -0.1262
 4046TIP3    H133553   2.524   4.350   1.408  0.3430  0.6010 -0.6425
 4046TIP3    H233554   2.662   4.299   1.444 -0.3878 -0.5323  0.6531
 4047TIP3   OH233555   4.745   3.012   2.030  0.5778 -0.0971  0.3124
 4047TIP3    H133556   4.741   3.097   1.988 -0.0751  0.0684  0.6877
 4047TIP3    H233557   4.687   3.020   2.105  2.7934  0.0621  2.1030
 4048TIP3   OH233558   3.890   5.430   3.127  0.1304  0.1142  0.9902
 4048TIP3    H133559   3.844   5.358   3.084 -1.4443  1.4521  0.3417
 4048TIP3    H233560   3.978   5.429   3.089 -0.9569  0.7580 -1.7226
 4049TIP3   OH233561   4.777   3.457  12.329  0.4462 -0.0757  0.0575
 4049TIP3    H133562   4.763   3.527  12.266  1.6843  1.3268  1.2760
 4049TIP3    H233563   4.865   3.424  12.309  0.3513 -0.4776  0.2777
 4050TIP3   OH233564   1.052   0.729   1.495  0.9115  0.0958 -0.0116
 4050TIP3    H133565   1.107   0.653   1.511 -0.7524 -0.8893  1.4891
 4050TIP3    H233566   1.080   0.793   1.561  1.2979  0.2108 -0.2844
 4051TIP3   OH233567   1.342   6.488  10.472 -0.3149 -0.6852 -0.3116
 4051TIP3    H133568   1.280   6.526  10.534 -0.1302 -0.3498 -0.3262
 4051TIP3    H233569   1.339   6.394  10.489 -0.8296 -0.6710 -0.3183
 4052TIP3   OH233570   4.000   2.910   4.480  0.1092  0.2591 -0.6458
 4052TIP3    H133571   3.933   2.977   4.491 -2.1640 -1.7559 -1.3664
 4052TIP3    H233572   4.055   2.941   4.408 -0.6382  1.5173 -0.6890
 4053TIP3   OH233573   0.032   1.615  10.552  0.2766  0.5022 -0.1806
 4053TIP3    H133574   0.045   1.697  10.504  0.8437 -0.1510 -1.1807
 4053TIP3    H233575   0.102   1.558  10.521 -0.5228 -0.5962 -0.0153
 4054TIP3   OH233576   4.957   0.450   0.023 -0.2717 -0.0909  0.5086
 4054TIP3    H133577   4.943   0.529  -0.030 -1.3392 -0.0634  0.8090
 4054TIP3    H233578   4.964   0.379  -0.042 -0.2579  0.1205  0.2751
 4055TIP3   OH233579   3.699   6.575   4.785  0.7147  0.0052  0.0451
 4055TIP3    H133580   3.637   6.572   4.712  1.4578  0.2473 -0.6058
 4055TIP3    H233581   3.774   6.524   4.755  1.1561  0.3679  0.5105
 4056TIP3   OH233582   1.113   3.520  13.588  0.1739 -0.3868  0.5582
 4056TIP3    H133583   1.041   3.551  13.643  0.9551  1.7883  0.4402
 4056TIP3    H233584   1.174   3.480  13.650  0.3202  0.6263  1.0918
 4057TIP3   OH233585   3.196   6.446   1.553  0.4135  0.1889 -0.2863
 4057TIP3    H133586   3.247   6.369   1.576  0.1428  0.0169 -0.2480
 4057TIP3    H233587   3.209   6.506   1.626 -0.2111 -0.2398  0.1932
 4058TIP3   OH233588   4.365   4.757  12.501 -0.0261 -0.1054  0.1357
 4058TIP3    H133589   4.373   4.794  12.589 -1.9556  0.7170  0.0090
 4058TIP3    H233590   4.436   4.798  12.451 -0.6471  1.6057  0.6081
 4059TIP3   OH233591   4.401   2.006   3.418  0.4347  0.5602  0.9605
 4059TIP3    H133592   4.344   2.083   3.420 -0.5505 -0.0401 -1.1224
 4059TIP3    H233593   4.484   2.037   3.384 -0.2452  0.5909 -0.7534
 4060TIP3   OH233594   1.358   6.086   6.153  0.5176 -0.1727  0.2476
 4060TIP3    H133595   1.366   5.994   6.130  0.0652 -0.1782  0.0948
 4060TIP3    H233596   1.439   6.107   6.200  1.2239 -0.3086 -0.8630
 4061TIP3   OH233597   6.618   3.376   0.856  0.8307 -0.8660 -0.2570
 4061TIP3    H133598   6.565   3.367   0.776  2.0036  2.7384 -1.6263
 4061TIP3    H233599   6.587   3.306   0.913 -4.2524 -0.0822 -1.5827
 4062TIP3   OH233600   6.139   1.186   4.793  1.0546 -0.2818 -0.0775
 4062TIP3    H133601   6.114   1.260   4.737 -1.0914 -3.6053 -4.1499
 4062TIP3    H233602   6.057   1.157   4.833  1.7296 -0.8207  0.9612
 4063TIP3   OH233603   3.829   5.635  13.811 -0.9174  0.3905 -0.2662
 4063TIP3    H133604   3.822   5.547  13.776 -1.9609  0.2377  0.2845
 4063TIP3    H233605   3.857   5.622  13.902 -0.1033  0.6794 -0.4714
 4064TIP3   OH233606   3.438   0.390  13.048  0.5050  0.7091 -0.1833
 4064TIP3    H133607   3.376   0.338  12.996  1.2096 -1.5167  1.0834
 4064TIP3    H233608   3.522   0.347  13.035  0.9806  1.0615  1.5461
 4065TIP3   OH233609   4.946   5.584  12.222 -0.5995 -0.4318 -0.6111
 4065TIP3    H133610   4.956   5.490  12.203  1.9030 -0.4757  0.4784
 4065TIP3    H233611   4.975   5.627  12.141 -1.8117 -0.5675 -1.1360
 4066TIP3   OH233612   3.860   4.853   2.880 -0.0194 -0.7894 -0.1403
 4066TIP3    H133613   3.861   4.758   2.889  1.8879 -0.8617 -0.6888
 4066TIP3    H233614   3.879   4.886   2.968 -1.6341 -0.8561  0.2598
 4067TIP3   OH233615   4.020   0.596   4.361 -0.0834  0.5570 -0.0666
 4067TIP3    H133616   3.951   0.627   4.303  0.6406  0.4418 -1.0334
 4067TIP3    H233617   4.047   0.673   4.410  0.0326  0.9202 -0.6854
 4068TIP3   OH233618   2.554   4.396   1.963  0.4283  0.0457 -0.6698
 4068TIP3    H133619   2.587   4.398   1.873  1.7098 -0.8634 -0.2431
 4068TIP3    H233620   2.570   4.306   1.992  1.6438  0.7778  1.0425
 4069TIP3   OH233621   4.089   0.726  14.521  0.0172  0.0021  0.2520
 4069TIP3    H133622   4.114   0.637  14.499 -2.2355 -0.6092 -0.1428
 4069TIP3    H233623   4.020   0.716  14.587 -1.2613  1.3389 -0.7949
 4070TIP3   OH233624   2.092   5.550  17.188 -0.5159 -0.3474 -0.1265
 4070TIP3    H133625   2.056   5.497  17.259  0.7885 -1.4828 -0.2846
 4070TIP3    H233626   2.147   5.615  17.232 -0.8531 -0.1225 -0.0300
 4071TIP3   OH233627   1.939   4.782  11.379 -0.2814 -0.4159 -0.1292
 4071TIP3    H133628   1.870   4.722  11.351 -0.0083 -0.0867 -1.5808
 4071TIP3    H233629   2.002   4.782  11.307  1.0776 -0.4444  1.0069
 4072TIP3   OH233630   3.608   6.479  13.578  0.3776  0.3275  0.1247
 4072TIP3    H133631   3.679   6.542  13.589 -0.4358  1.1862  0.6591
 4072TIP3    H233632   3.546   6.522  13.519  0.5796 -0.6645 -0.8329
 4073TIP3   OH233633   4.950   0.997   1.211 -0.0561 -0.3447 -0.9421
 4073TIP3    H133634   4.856   1.001   1.198 -0.3199 -1.7407  0.2482
 4073TIP3    H233635   4.967   0.906   1.238  1.6841 -0.2560 -1.5795
 4074TIP3   OH233636   5.440   4.426  14.208  0.4941  0.0138 -0.0336
 4074TIP3    H133637   5.378   4.357  14.184  0.3088  0.5284 -1.0862
 4074TIP3    H233638   5.496   4.436  14.131  2.0301 -0.5603  0.9442
 4075TIP3   OH233639   0.512   2.616  13.577  0.4724  0.3389  0.0451
 4075TIP3    H133640   0.537   2.566  13.655  1.0411  0.8569  0.2029
 4075TIP3    H233641   0.434   2.664  13.603 -1.1816 -1.8039 -0.6534
 4076TIP3   OH233642   1.909   1.271  11.727 -0.2273 -0.0732  0.0941
 4076TIP3    H133643   1.878   1.181  11.714  0.7011 -0.4090  0.1844
 4076TIP3    H233644   1.857   1.303  11.801 -2.1631  0.2449 -1.3043
 4077TIP3   OH233645   5.131   5.407  13.662 -0.0790  0.4900 -0.0378
 4077TIP3    H133646   5.125   5.336  13.725  0.1156  0.2699 -0.2647
 4077TIP3    H233647   5.149   5.485  13.714 -2.0238  0.7042  0.4137
 4078TIP3   OH233648   5.360   6.326   5.854 -0.4380 -0.6145 -0.3330
 4078TIP3    H133649   5.447   6.295   5.830 -0.2770  0.0564 -0.6313
 4078TIP3    H233650   5.329   6.263   5.919  0.5502 -0.4813  0.2958
 4079TIP3   OH233651   2.307   1.321  16.974 -0.5051 -0.1384  0.0074
 4079TIP3    H133652   2.285   1.354  16.887  1.9700  0.3807 -0.5033
 4079TIP3    H233653   2.278   1.390  17.034 -1.4719 -0.1263 -0.4549
 4080TIP3   OH233654   1.933   5.566   5.083 -0.4042  0.0689 -0.6079
 4080TIP3    H133655   1.840   5.585   5.077 -0.2996  2.8364  3.1798
 4080TIP3    H233656   1.976   5.651   5.082  1.9127 -1.0039 -0.2297
 4081TIP3   OH233657   4.014   3.839   3.090 -0.3180 -0.0961  0.0515
 4081TIP3    H133658   4.088   3.889   3.055 -0.1094 -1.0774 -0.9716
 4081TIP3    H233659   4.041   3.816   3.179  0.4352 -0.0714 -0.1601
 4082TIP3   OH233660   6.227   3.947  11.480  0.6703  0.0951 -0.3574
 4082TIP3    H133661   6.222   3.975  11.571 -0.8373 -0.0675 -0.3587
 4082TIP3    H233662   6.305   3.990  11.445 -0.1190  2.2276  0.3370
 4083TIP3   OH233663   1.583   3.200  14.006  0.1263  0.7628 -0.0868
 4083TIP3    H133664   1.586   3.221  14.099 -1.6962  1.2299 -0.1099
 4083TIP3    H233665   1.667   3.158  13.989  0.2589  0.1140  1.9003
 4084TIP3   OH233666   4.997   6.243   3.744  0.5609 -0.0679 -0.0406
 4084TIP3    H133667   4.954   6.238   3.830  1.7670 -0.1949  0.5827
 4084TIP3    H233668   4.926   6.260   3.683 -0.2845  0.4118  1.0307
 4085TIP3   OH233669   3.031   6.137   1.681 -0.0268 -0.3101  0.7119
 4085TIP3    H133670   2.985   6.219   1.699 -0.3068 -0.5836  1.2750
 4085TIP3    H233671   3.110   6.142   1.735 -0.1386 -0.4946  0.8918
 4086TIP3   OH233672   0.960   1.187  16.559 -0.1624  0.1389 -0.2925
 4086TIP3    H133673   0.898   1.257  16.578 -1.4390 -0.9285 -0.3877
 4086TIP3    H233674   1.045   1.222  16.586 -0.7255  1.7921 -0.5589
 4087TIP3   OH233675   5.033   6.020   4.026  0.4157  0.0676  0.1885
 4087TIP3    H133676   5.077   6.103   4.044  2.4310 -0.9032 -0.0302
 4087TIP3    H233677   5.101   5.954   4.034 -1.4166 -1.7916  1.9018
 4088TIP3   OH233678   1.988   4.571  15.261  0.0666 -0.3873 -0.3314
 4088TIP3    H133679   2.015   4.606  15.346  0.8393 -1.9989  0.1155
 4088TIP3    H233680   2.053   4.505  15.240 -0.3993 -0.3655 -1.9565
 4089TIP3   OH233681   2.698   4.233  16.334  0.6066  0.1337  0.1364
 4089TIP3    H133682   2.710   4.303  16.398 -2.0880  2.2733 -1.4632
 4089TIP3    H233683   2.750   4.262  16.258 -0.0013  0.0963 -0.2984
 4090TIP3   OH233684   6.550   1.058   4.534  0.0926 -0.1460  0.4463
 4090TIP3    H133685   6.563   1.080   4.626 -0.8631 -0.6591  0.7092
 4090TIP3    H233686   6.520   0.967   4.534 -0.8569  0.1458 -0.3024
 4091TIP3   OH233687   0.998   3.219  12.264 -0.0285 -0.3819 -0.8025
 4091TIP3    H133688   1.031   3.260  12.344 -1.9816 -1.9921  0.9732
 4091TIP3    H233689   1.072   3.168  12.231  1.1492  1.1880 -0.7125
 4092TIP3   OH233690   1.509   3.189  14.599  0.1404 -0.1157 -0.2562
 4092TIP3    H133691   1.528   3.281  14.619  0.5872  0.1059 -1.6029
 4092TIP3    H233692   1.414   3.185  14.591  0.1521  0.3548 -0.7007
 4093TIP3   OH233693   4.724   2.394  13.265  0.3492  0.2601  0.4334
 4093TIP3    H133694   4.754   2.470  13.215 -0.1657  0.1330 -0.0797
 4093TIP3    H233695   4.799   2.368  13.317  0.8929  0.4042 -0.2690
 4094TIP3   OH233696   3.726   1.647  13.959 -0.2371  0.6835 -0.9778
 4094TIP3    H133697   3.794   1.640  13.892  0.3198  1.6965 -0.5542
 4094TIP3    H233698   3.772   1.678  14.037 -1.0770  0.7568 -0.4940
 4095TIP3   OH233699   5.157   5.869  11.697 -0.5683  0.2801 -0.4447
 4095TIP3    H133700   5.142   5.882  11.604 -0.6050  2.3048 -0.2131
 4095TIP3    H233701   5.137   5.954  11.736  1.2424  0.0400  1.1799
 4096TIP3   OH233702   5.085   2.847   4.513  0.6283 -0.4316 -0.2116
 4096TIP3    H133703   5.099   2.771   4.569  3.3182  0.6267  0.7184
 4096TIP3    H233704   4.991   2.847   4.495  0.0662 -2.2539  2.2165
 4097TIP3   OH233705   5.258   0.271   6.161 -0.0973 -0.4191  0.4585
 4097TIP3    H133706   5.284   0.289   6.252  0.2304  0.3686  0.2193
 4097TIP3    H233707   5.317   0.326   6.109 -0.7135 -0.3752 -0.2005
 4098TIP3   OH233708   3.114   2.664  15.459 -0.0384 -0.3262 -0.0835
 4098TIP3    H133709   3.130   2.610  15.536  2.7009 -2.6115 -2.0528
 4098TIP3    H233710   3.023   2.646  15.436 -0.1723 -1.5009  1.2308
 4099TIP3   OH233711   4.726   5.733   4.332 -0.8213  0.2401 -0.4182
 4099TIP3    H133712   4.808   5.694   4.364 -2.0605 -1.0751  1.3544
 4099TIP3    H233713   4.733   5.728   4.237  1.0068 -0.1703 -0.3085
 4100TIP3   OH233714   1.482   4.995  14.095 -0.0391 -0.0864 -0.2092
 4100TIP3    H133715   1.450   4.970  14.008  0.6156  2.8629 -1.4263
 4100TIP3    H233716   1.410   4.971  14.154 -0.7213 -1.6867 -1.5968
 4101TIP3   OH233717   1.227   2.521   0.399 -0.2019 -0.1956  0.9451
 4101TIP3    H133718   1.219   2.616   0.393 -1.7047 -0.3524 -0.1606
 4101TIP3    H233719   1.296   2.498   0.336 -0.7120  0.0666  0.2849
 4102TIP3   OH233720   1.692   5.960  13.780 -0.4587  0.2609  0.1060
 4102TIP3    H133721   1.638   6.010  13.841  2.1624  1.0846  1.9548
 4102TIP3    H233722   1.697   6.016  13.702  0.5494  1.9201  1.2761
 4103TIP3   OH233723   4.977   2.871  17.123  0.3486 -0.2048  0.7384
 4103TIP3    H133724   4.993   2.961  17.097  2.0244 -0.3517  1.1599
 4103TIP3    H233725   4.894   2.848  17.080  0.3956  1.2008 -0.1636
 4104TIP3   OH233726   2.778   4.251   0.603 -0.1805  0.5536 -0.8493
 4104TIP3    H133727   2.819   4.181   0.551 -2.1484 -1.6677  0.4170
 4104TIP3    H233728   2.757   4.210   0.686 -1.0605  2.8200  0.1143
 4105TIP3   OH233729   4.914   4.699   5.377 -0.0772 -0.5592  0.0190
 4105TIP3    H133730   5.009   4.686   5.378 -0.2236 -1.8096 -0.8484
 4105TIP3    H233731   4.903   4.789   5.345  0.8197 -0.1486  0.8110
 4106TIP3   OH233732   5.918   5.502  17.260 -0.2620 -0.0404 -0.4728
 4106TIP3    H133733   6.000   5.488  17.307 -1.3802 -1.1552  1.2950
 4106TIP3    H233734   5.917   5.434  17.193 -0.2539 -0.8109  0.2875
 4107TIP3   OH233735   2.009   4.433  14.577 -0.7117  0.0618 -0.0388
 4107TIP3    H133736   1.931   4.382  14.597 -0.5287 -0.1390  0.1578
 4107TIP3    H233737   2.082   4.377  14.600 -0.4957  1.0686  1.9008
 4108TIP3   OH233738   0.678   0.528   3.531 -0.1481  0.1344 -0.2058
 4108TIP3    H133739   0.677   0.450   3.587  0.9998 -0.2782 -0.7468
 4108TIP3    H233740   0.617   0.508   3.461 -0.4250  0.0347  0.0590
 4109TIP3   OH233741   3.419   1.738   4.134 -0.1926  0.1291 -0.0944
 4109TIP3    H133742   3.367   1.760   4.212  0.7926  2.5779 -0.0436
 4109TIP3    H233743   3.502   1.783   4.147  0.8592 -1.2995 -1.5364
 4110TIP3   OH233744   5.664   3.155   5.731  0.2114 -1.0999  0.2489
 4110TIP3    H133745   5.708   3.082   5.687  1.2313 -0.3539  0.0046
 4110TIP3    H233746   5.735   3.214   5.757 -0.4456 -1.0500  2.0642
 4111TIP3   OH233747   2.570   6.600  15.083  0.3946  0.0265 -0.4775
 4111TIP3    H133748   2.643   6.566  15.031  0.3972 -0.7687  0.0324
 4111TIP3    H233749   2.492   6.577  15.032  0.3916 -0.8405 -0.1065
 4112TIP3   OH233750   1.387   3.843   5.723  0.4900  0.5957 -0.1007
 4112TIP3    H133751   1.377   3.770   5.662 -0.1884  0.3593  0.2796
 4112TIP3    H233752   1.438   3.807   5.795  0.0560  0.4499  0.1421
 4113TIP3   OH233753   1.699   4.753   4.711  0.5011  0.3150 -0.1520
 4113TIP3    H133754   1.686   4.798   4.628  1.3081  0.4599 -0.2041
 4113TIP3    H233755   1.613   4.719   4.733  0.0568  1.1497 -0.5410
 4114TIP3   OH233756   1.463   3.397   4.584  0.7670  0.1864 -0.1333
 4114TIP3    H133757   1.495   3.450   4.657  1.7170 -1.0385  0.3980
 4114TIP3    H233758   1.377   3.366   4.613  0.8395  0.2684  0.1789
 4115TIP3   OH233759   4.843   2.636   4.180 -0.5049  0.1117  0.2550
 4115TIP3    H133760   4.804   2.595   4.103 -1.7368  0.5015  0.6430
 4115TIP3    H233761   4.915   2.688   4.145 -1.2163  0.5013 -0.6829
 4116TIP3   OH233762   4.219   2.191   0.549 -0.8108 -0.0451 -0.1996
 4116TIP3    H133763   4.127   2.165   0.559 -0.5704 -2.1089 -2.2005
 4116TIP3    H233764   4.268   2.118   0.586 -0.0309 -0.2978 -1.6624
 4117TIP3   OH233765   2.094   6.404  12.861  0.0476  0.4414 -0.1175
 4117TIP3    H133766   2.101   6.352  12.780  0.3557 -0.7490  0.6510
 4117TIP3    H233767   2.001   6.403  12.882 -0.0584  0.9026 -0.5410
 4118TIP3   OH233768   0.513   1.361   4.918  0.6583  0.6075 -0.3250
 4118TIP3    H133769   0.457   1.341   4.993  1.2052 -0.6914 -0.2239
 4118TIP3    H233770   0.479   1.443   4.883 -1.4328 -0.2535 -0.4035
 4119TIP3   OH233771   5.113   4.988  11.605 -0.0153 -0.3901  0.1606
 4119TIP3    H133772   5.079   4.947  11.685 -0.2192 -0.0370  0.2603
 4119TIP3    H233773   5.196   4.944  11.588 -0.7255 -1.6040 -0.3432
 4120TIP3   OH233774   0.450   2.161  12.779 -0.1470 -0.2976 -0.6211
 4120TIP3    H133775   0.398   2.151  12.859 -1.4078  1.4167 -1.1650
 4120TIP3    H233776   0.426   2.087  12.724 -1.0078 -0.2505 -0.3115
 4121TIP3   OH233777   0.454   3.650  10.549  0.0882 -0.0943 -0.1644
 4121TIP3    H133778   0.508   3.572  10.564 -0.9057 -1.1560 -1.8132
 4121TIP3    H233779   0.454   3.662  10.454 -2.6322 -0.2400 -0.2781
 4122TIP3   OH233780   1.362   0.634   1.836  0.0170 -0.4771  0.2976
 4122TIP3    H133781   1.279   0.674   1.811  0.4753  0.2857 -0.0086
 4122TIP3    H233782   1.337   0.546   1.866 -1.0022  0.0422  1.0427
 4123TIP3   OH233783   2.580   6.382   6.859 -0.3508 -0.1947 -0.6022
 4123TIP3    H133784   2.671   6.357   6.875  0.0092  2.0612  1.4541
 4123TIP3    H233785   2.528   6.307   6.888  0.7776 -0.2081  1.5671
 4124TIP3   OH233786   1.894   4.581   0.852 -0.3359  0.4508  0.4794
 4124TIP3    H133787   1.978   4.624   0.836  1.3052 -2.4097  0.6527
 4124TIP3    H233788   1.863   4.556   0.765 -1.2265  1.7702  0.3883
 4125TIP3   OH233789   3.218   3.772  16.336 -0.0904 -0.3976  0.1187
 4125TIP3    H133790   3.259   3.778  16.250 -1.0351  0.0948 -0.3101
 4125TIP3    H233791   3.134   3.817  16.326 -0.4030 -0.7145  1.1807
 4126TIP3   OH233792   2.948   1.868  13.537 -0.3092 -0.2775  0.0346
 4126TIP3    H133793   2.886   1.941  13.533 -0.8356 -0.6962  0.4117
 4126TIP3    H233794   2.938   1.822  13.453  1.1913  0.9956 -0.9066
 4127TIP3   OH233795   1.870   0.665   6.031 -0.0127 -1.1208 -0.6435
 4127TIP3    H133796   1.814   0.723   6.081  0.0143 -0.5947 -1.2164
 4127TIP3    H233797   1.850   0.577   6.064  2.4043 -0.6127  2.7531
 4128TIP3   OH233798   2.062   2.684   2.795  0.3941 -0.1464  0.0773
 4128TIP3    H133799   1.993   2.748   2.778  1.0141  0.4571 -0.2310
 4128TIP3    H233800   2.119   2.689   2.718  0.0464 -1.6182 -0.2921
 4129TIP3   OH233801   2.192   2.552   4.165  0.1401 -0.0744  0.6942
 4129TIP3    H133802   2.100   2.576   4.170 -0.2418 -1.0645 -0.8789
 4129TIP3    H233803   2.191   2.457   4.153  1.1245  0.2672 -3.6255
 4130TIP3   OH233804   3.219   3.589  13.984  0.4370 -0.2577 -0.2624
 4130TIP3    H133805   3.166   3.651  13.934  1.0339  0.2542 -0.2649
 4130TIP3    H233806   3.218   3.622  14.073  0.1948 -0.6259 -0.1252
 4131TIP3   OH233807   4.083   0.968  11.396 -0.3425 -0.2835  0.2865
 4131TIP3    H133808   4.112   1.031  11.330 -0.3018 -2.5465 -2.0110
 4131TIP3    H233809   3.987   0.966  11.387 -0.3937 -0.0837  0.7918
 4132TIP3   OH233810   0.058   5.001  11.843  0.1100  0.1459 -0.0499
 4132TIP3    H133811   0.021   5.078  11.799 -2.5854 -0.8499  0.3328
 4132TIP3    H233812   0.074   4.938  11.772 -0.8476 -0.1393 -0.0274
 4133TIP3   OH233813   5.614   1.144  13.090 -0.0048 -0.0402  0.4623
 4133TIP3    H133814   5.556   1.143  13.014  0.9489  1.3094 -0.3228
 4133TIP3    H233815   5.573   1.083  13.152 -1.0545 -0.8189 -0.9318
 4134TIP3   OH233816   5.630   5.792   4.672 -0.0061  0.0305  0.0796
 4134TIP3    H133817   5.651   5.798   4.579  1.7414 -0.1407  0.4188
 4134TIP3    H233818   5.654   5.878   4.707 -0.7585  0.1319  0.3640
 4135TIP3   OH233819   3.027   0.815   1.768 -0.1336 -0.0999 -0.1402
 4135TIP3    H133820   2.968   0.797   1.841  1.7855  2.7946  2.3523
 4135TIP3    H233821   2.968   0.841   1.696 -2.0149 -0.9770  1.0080
 4136TIP3   OH233822   3.383   1.325  14.426 -0.2017  0.3917 -0.7920
 4136TIP3    H133823   3.389   1.420  14.435 -1.9649  0.5667 -1.0319
 4136TIP3    H233824   3.314   1.300  14.488 -0.7724 -0.5238 -1.7635
 4137TIP3   OH233825   3.829   5.808  15.627 -0.2874  0.6496  0.7812
 4137TIP3    H133826   3.897   5.745  15.603  0.1528  1.1134  0.7916
 4137TIP3    H233827   3.857   5.890  15.586  1.5109  2.0076  4.3078
 4138TIP3   OH233828   5.235   5.769  16.710 -0.0454  0.4082 -0.1653
 4138TIP3    H133829   5.219   5.840  16.771  0.3101  0.2251  0.1498
 4138TIP3    H233830   5.161   5.771  16.650 -0.7582  0.1493  0.6899
 4139TIP3   OH233831   2.176   6.629   5.331 -0.5499  0.0513  0.2735
 4139TIP3    H133832   2.246   6.693   5.313 -0.0478 -0.6016 -0.1242
 4139TIP3    H233833   2.110   6.646   5.263 -0.0834 -0.3284 -0.2871
 4140TIP3   OH233834   4.106   1.010   5.110 -0.1740  0.5879 -0.0171
 4140TIP3    H133835   4.069   0.978   5.192  1.1993 -0.8961  0.0707
 4140TIP3    H233836   4.069   0.954   5.043  0.2358  0.4978 -0.1715
 4141TIP3   OH233837   1.569   3.823  10.300 -0.0267  0.0248 -0.4117
 4141TIP3    H133838   1.663   3.838  10.313  0.2213 -1.8829  0.3928
 4141TIP3    H233839   1.531   3.829  10.388 -0.2469 -1.4847 -0.3705
 4142TIP3   OH233840   1.691   2.485  11.483  0.6239  0.2642 -0.1838
 4142TIP3    H133841   1.717   2.454  11.570  0.9581  1.8676  0.3432
 4142TIP3    H233842   1.719   2.577  11.483 -1.8851  1.0851 -0.9527
 4143TIP3   OH233843   3.573   5.162  12.208 -0.6634  0.0507  0.0745
 4143TIP3    H133844   3.515   5.104  12.258 -1.1592  0.8200  0.4127
 4143TIP3    H233845   3.578   5.242  12.261 -0.4500  0.5317 -0.6575
 4144TIP3   OH233846   4.511   0.393   0.677 -0.0127  0.0631 -0.0118
 4144TIP3    H133847   4.605   0.382   0.659  0.2613  0.8579  0.8453
 4144TIP3    H233848   4.468   0.329   0.620  1.0854 -0.8171  0.1132
 4145TIP3   OH233849   1.642   3.957   5.239 -0.4529  0.0554 -0.3439
 4145TIP3    H133850   1.689   4.022   5.291 -3.6738  2.3381 -0.0312
 4145TIP3    H233851   1.584   4.008   5.183 -1.0676 -2.5206 -2.2480
 4146TIP3   OH233852   2.635   6.766   3.692 -0.1748 -0.2283 -0.2100
 4146TIP3    H133853   2.651   6.672   3.685 -0.5045 -0.1898 -1.6911
 4146TIP3    H233854   2.709   6.806   3.646 -0.3083  0.2198 -0.0325
 4147TIP3   OH233855   1.403   2.982   2.150  0.2361  0.2146 -0.5635
 4147TIP3    H133856   1.400   3.002   2.244 -1.7854  0.2235 -0.5761
 4147TIP3    H233857   1.496   2.973   2.130  0.7933  1.5775  1.1517
 4148TIP3   OH233858   1.740   1.041  12.638  0.0223  0.0671 -0.1283
 4148TIP3    H133859   1.704   1.100  12.704 -1.0572 -1.8819  1.1137
 4148TIP3    H233860   1.797   0.981  12.687  0.5337 -0.3924 -1.2393
 4149TIP3   OH233861   2.587   2.052  11.868 -0.9493 -0.3485 -0.1460
 4149TIP3    H133862   2.559   1.975  11.918  1.4403 -1.1884  0.0263
 4149TIP3    H233863   2.539   2.045  11.785 -1.9212 -1.1525  0.4574
 4150TIP3   OH233864   2.239   4.919  15.372 -0.2243 -0.0206  0.4653
 4150TIP3    H133865   2.297   4.976  15.323 -1.0205  0.7365  0.3798
 4150TIP3    H233866   2.294   4.845  15.399  1.1283  1.3568  1.5975
 4151TIP3   OH233867   4.024   3.181   3.676 -0.5823  0.1697 -0.2424
 4151TIP3    H133868   4.039   3.090   3.650  0.7628  0.0680  0.8022
 4151TIP3    H233869   4.093   3.230   3.632 -0.8125  0.5643 -0.1623
 4152TIP3   OH233870   1.242   2.297  15.918  0.0510 -0.1170  0.4335
 4152TIP3    H133871   1.154   2.264  15.903 -0.0923 -0.5770  2.1002
 4152TIP3    H233872   1.275   2.319  15.830 -2.1023  1.1179 -0.1371
 4153TIP3   OH233873   3.286   1.321   1.039 -0.5675 -1.0527  0.0630
 4153TIP3    H133874   3.276   1.294   1.130 -1.3687 -0.4702  0.1599
 4153TIP3    H233875   3.294   1.416   1.044  1.5346 -1.1724 -0.3181
 4154TIP3   OH233876   0.396   4.454   1.302  0.4958 -0.2372  0.5804
 4154TIP3    H133877   0.348   4.410   1.232  1.4207 -1.3515  0.6081
 4154TIP3    H233878   0.450   4.520   1.257  1.5011 -1.3210  0.1449
 4155TIP3   OH233879   1.458   5.131   5.048 -0.1963  0.4109  0.7141
 4155TIP3    H133880   1.528   5.146   5.112  0.2312  0.2566  0.2902
 4155TIP3    H233881   1.403   5.064   5.089  0.0570  0.3344  0.9381
 4156TIP3   OH233882   0.118   5.692   2.360 -0.3379  0.0770 -0.1450
 4156TIP3    H133883   0.168   5.724   2.285  0.7080 -1.6445 -0.2385
 4156TIP3    H233884   0.183   5.650   2.416 -1.5318 -1.4004  0.2007
 4157TIP3   OH233885   3.516   6.601   4.584 -0.0464  0.2641 -0.0099
 4157TIP3    H133886   3.460   6.653   4.641  0.6717  0.1719  0.7907
 4157TIP3    H233887   3.456   6.541   4.540 -1.1186  2.6425 -2.0321
 4158TIP3   OH233888   6.577   4.501   4.278 -0.2728  0.1629  0.3032
 4158TIP3    H133889   6.661   4.541   4.299 -0.3836 -1.0570  3.7341
 4158TIP3    H233890   6.599   4.413   4.246 -0.2185  0.9863 -2.1032
 4159TIP3   OH233891   2.621   2.103  17.010 -0.0065 -0.0693  0.3111
 4159TIP3    H133892   2.715   2.121  17.000 -0.0616  0.5460  0.7978
 4159TIP3    H233893   2.584   2.116  16.923  0.0423  1.7779  0.5272
 4160TIP3   OH233894   1.213   2.257   6.061  0.0157 -0.0585 -0.4089
 4160TIP3    H133895   1.284   2.203   6.026 -0.0564 -0.6070  0.2474
 4160TIP3    H233896   1.142   2.194   6.078  0.5130 -0.0740  1.9330
 4161TIP3   OH233897   4.984   0.115  15.195 -0.4265 -0.2890 -0.4466
 4161TIP3    H133898   5.004   0.190  15.252  0.6366 -0.5335 -0.4796
 4161TIP3    H233899   4.946   0.154  15.117 -1.4024  0.0945  0.1987
 4162TIP3   OH233900   2.992   2.668  13.981  0.6273  0.0977  0.3153
 4162TIP3    H133901   2.932   2.705  14.046  0.2536 -0.2517  0.1691
 4162TIP3    H233902   3.065   2.634  14.034  1.0892  1.2352  0.4352
 4163TIP3   OH233903   2.387   2.816  14.000  0.3872  0.1462  0.1127
 4163TIP3    H133904   2.413   2.878  13.931  0.2504 -0.1618 -0.2193
 4163TIP3    H233905   2.336   2.749  13.954 -0.4151  0.3788  0.6419
 4164TIP3   OH233906   3.344   4.058  16.199 -0.5052 -0.2143 -0.2247
 4164TIP3    H133907   3.419   4.071  16.257 -1.3667 -1.1538  1.1485
 4164TIP3    H233908   3.295   4.140  16.203 -0.4343 -0.1928  0.1984
 4165TIP3   OH233909   2.569   5.989  15.097 -0.4099  0.1154 -0.3050
 4165TIP3    H133910   2.486   5.943  15.085 -0.3726 -0.4778  1.5449
 4165TIP3    H233911   2.636   5.923  15.079 -0.3173  0.4476 -1.2462
 4166TIP3   OH233912   3.158   4.025  14.948  0.0082 -0.2184 -0.0800
 4166TIP3    H133913   3.206   3.949  14.981 -0.1237  0.1522  1.0113
 4166TIP3    H233914   3.145   4.081  15.025 -3.3118 -0.8977 -0.0163
 4167TIP3   OH233915   4.190   3.584  16.103 -0.2237  0.1344 -0.3677
 4167TIP3    H133916   4.171   3.581  16.197  0.4190 -0.6114 -0.2415
 4167TIP3    H233917   4.228   3.497  16.084  0.3695  0.5504 -1.1484
 4168TIP3   OH233918   5.315   0.212  13.757 -0.5058 -0.1959 -0.2809
 4168TIP3    H133919   5.291   0.210  13.850 -0.0306 -1.8329 -0.1669
 4168TIP3    H233920   5.366   0.293  13.747 -1.0910  0.3187  0.7292
 4169TIP3   OH233921   4.340   3.020   5.523  0.3163  0.5324  0.1322
 4169TIP3    H133922   4.414   3.054   5.574  2.7081 -1.3584 -1.8047
 4169TIP3    H233923   4.323   2.934   5.560 -0.9433  0.9196  0.5106
 4170TIP3   OH233924   4.852   4.343  16.401  0.5103 -0.4179 -0.2203
 4170TIP3    H133925   4.820   4.424  16.441 -0.4965 -0.7722 -0.2656
 4170TIP3    H233926   4.891   4.293  16.473  2.4863  0.7086 -0.4422
 4171TIP3   OH233927   4.209   5.943  12.509  0.0895  0.4028  0.0143
 4171TIP3    H133928   4.283   5.984  12.554  1.0260  0.5399 -1.5726
 4171TIP3    H233929   4.156   6.016  12.478  0.1906  0.3455 -0.2961
 4172TIP3   OH233930   3.239   1.002  11.355 -0.3571  0.7924  0.5249
 4172TIP3    H133931   3.291   0.956  11.421  0.4611  1.8074  0.6003
 4172TIP3    H233932   3.228   0.938  11.285 -1.5085 -0.4286  1.7336
 4173TIP3   OH233933   1.223   6.611  14.431  0.1269 -0.4548  0.1210
 4173TIP3    H133934   1.142   6.646  14.395  1.3840  3.1680  0.3856
 4173TIP3    H233935   1.292   6.663  14.390  2.1011 -1.2594  2.1988
 4174TIP3   OH233936   5.529   2.035   5.569 -0.2172 -0.8289 -0.1186
 4174TIP3    H133937   5.502   2.114   5.617 -2.4240 -1.2587 -0.5224
 4174TIP3    H233938   5.609   2.006   5.612 -1.5497 -0.6227  2.6727
 4175TIP3   OH233939   0.620   0.334   6.512 -0.2048  0.4497 -0.0021
 4175TIP3    H133940   0.626   0.422   6.475  0.2372  1.1785  1.6699
 4175TIP3    H233941   0.528   0.323   6.535 -0.4485  0.0584 -1.1053
 4176TIP3   OH233942   1.233   0.908   4.500 -0.1439  0.3966  0.4487
 4176TIP3    H133943   1.162   0.864   4.547  0.7039 -0.0508  1.3368
 4176TIP3    H233944   1.252   0.986   4.553  0.2936  0.3048  0.4283
 4177TIP3   OH233945   0.770   6.194   5.142  0.2902  0.0891 -0.2448
 4177TIP3    H133946   0.713   6.230   5.074 -0.1360 -0.8515 -0.4015
 4177TIP3    H233947   0.841   6.258   5.151 -0.5290  1.0315 -0.3951
 4178TIP3   OH233948   1.858   6.264   3.261  0.0246  0.3568  0.2259
 4178TIP3    H133949   1.855   6.188   3.319 -2.4746  1.1228  1.2438
 4178TIP3    H233950   1.766   6.286   3.245  0.6606  2.0942 -1.4897
 4179TIP3   OH233951   1.041   4.884   4.132 -0.0569  0.2758  0.3023
 4179TIP3    H133952   0.996   4.832   4.065  0.1659 -1.7353  1.5967
 4179TIP3    H233953   1.124   4.837   4.146 -0.3111  0.3168  2.2839
 4180TIP3   OH233954   4.689   2.631   3.269  0.4138 -0.2285 -0.5236
 4180TIP3    H133955   4.667   2.677   3.349  0.5879 -0.6219 -0.2466
 4180TIP3    H233956   4.612   2.578   3.249  0.9359 -1.3142  0.2383
 4181TIP3   OH233957   2.246   2.647  12.067  0.3142 -0.3318  0.1036
 4181TIP3    H133958   2.170   2.702  12.085 -0.5157 -1.7491  1.1482
 4181TIP3    H233959   2.265   2.662  11.974 -1.4813 -0.1982 -0.2773
 4182TIP3   OH233960   5.433   3.091   3.953  0.1424 -0.3141 -0.1318
 4182TIP3    H133961   5.505   3.037   3.985 -1.0975 -2.1712 -0.3044
 4182TIP3    H233962   5.413   3.055   3.867 -0.1853  0.9867 -0.6101
 4183TIP3   OH233963   2.856   1.664   4.082 -0.3105  0.0965 -0.9446
 4183TIP3    H133964   2.926   1.611   4.121 -0.7477 -1.6173 -2.3847
 4183TIP3    H233965   2.883   1.755   4.098  1.0359 -0.5198  0.5916
 4184TIP3   OH233966   6.093   3.429  11.367 -0.1019  0.1152  0.1603
 4184TIP3    H133967   6.103   3.490  11.294  0.3956 -0.3677 -0.1893
 4184TIP3    H233968   6.170   3.444  11.422 -0.9594  1.1625  1.1254
 4185TIP3   OH233969   2.995   5.328   1.266  0.2330 -0.2638 -0.1153
 4185TIP3    H133970   2.963   5.325   1.176  0.8448 -1.8899 -0.3073
 4185TIP3    H233971   2.959   5.410   1.302 -2.2518 -0.8950 -0.9965
 4186TIP3   OH233972   1.794   2.259   4.262 -0.5269  0.1713 -0.3499
 4186TIP3    H133973   1.707   2.287   4.234 -1.4875 -0.6186  1.6100
 4186TIP3    H233974   1.777   2.189   4.325  1.5511 -0.1851 -0.1110
 4187TIP3   OH233975   0.200   1.669   0.037  0.1844 -0.6058 -0.3141
 4187TIP3    H133976   0.146   1.698  -0.037 -0.5623 -1.7565 -0.2495
 4187TIP3    H233977   0.286   1.653  -0.001  0.5033  1.1443 -0.4416
 4188TIP3   OH233978   5.272   3.044  14.556  0.6774 -0.2925  0.3874
 4188TIP3    H133979   5.248   2.954  14.575  0.6378 -0.3504  0.0648
 4188TIP3    H233980   5.360   3.039  14.518  0.9203 -0.1425  0.9205
 4189TIP3   OH233981   5.532   3.165   3.653 -0.2578  0.4413 -0.2058
 4189TIP3    H133982   5.438   3.183   3.651 -0.4514 -0.3999  0.6489
 4189TIP3    H233983   5.551   3.129   3.566 -0.8447  0.0978 -0.1982
 4190TIP3   OH233984   6.367   1.600   0.305 -0.2565  0.1266  0.0421
 4190TIP3    H133985   6.403   1.567   0.223  2.5100  3.5466 -0.3248
 4190TIP3    H233986   6.406   1.545   0.373  1.3374  0.2748 -0.7132
 4191TIP3   OH233987   2.843   5.588  14.033  0.3975 -0.4201  0.0795
 4191TIP3    H133988   2.902   5.544  13.972  0.8616 -0.3683  0.4796
 4191TIP3    H233989   2.850   5.537  14.114 -0.5567 -0.7608 -0.0368
 4192TIP3   OH233990   4.380   2.624   5.816 -0.6575  0.3033  0.4682
 4192TIP3    H133991   4.465   2.634   5.774  0.6617 -2.0962  2.3194
 4192TIP3    H233992   4.392   2.657   5.905 -1.4329 -0.6496  0.9517
 4193TIP3   OH233993   3.548   0.821  15.001  0.2343  0.3100  0.1254
 4193TIP3    H133994   3.598   0.824  15.082  0.6790 -0.5667 -0.1031
 4193TIP3    H233995   3.551   0.729  14.974  0.4877  0.6547 -1.1123
 4194TIP3   OH233996   3.179   2.644   4.605  0.7887 -0.6342 -0.3606
 4194TIP3    H133997   3.184   2.720   4.548 -0.0190  0.2026  0.6238
 4194TIP3    H233998   3.180   2.681   4.694  2.6901 -1.9177  0.2136
 4195TIP3   OH233999   5.816   4.617  14.539 -0.1723  0.5318  0.1315
 4195TIP3    H134000   5.750   4.672  14.496 -0.2586  1.8482  1.7989
 4195TIP3    H234001   5.858   4.676  14.602 -0.4056 -1.3507  2.1921
 4196TIP3   OH234002   1.333   6.082   1.778 -0.7765 -0.4542  0.2377
 4196TIP3    H134003   1.338   6.160   1.723 -0.5025 -0.0079  0.8793
 4196TIP3    H234004   1.405   6.092   1.840  0.0166 -1.8071 -0.4215
 4197TIP3   OH234005   1.357   1.402   3.878 -0.1635  0.3548  0.1984
 4197TIP3    H134006   1.282   1.354   3.913  1.7118 -2.3283  0.7792
 4197TIP3    H234007   1.355   1.486   3.924 -2.9614  0.5444 -0.0777
 4198TIP3   OH234008   2.764   5.927   0.182  0.1810 -0.0531 -0.3581
 4198TIP3    H134009   2.742   5.837   0.157  0.2830 -0.0498 -0.4606
 4198TIP3    H234010   2.838   5.950   0.126  0.0809  0.1353 -0.4127
 4199TIP3   OH234011   0.759   1.466   0.029 -0.2326  0.4671 -0.6818
 4199TIP3    H134012   0.707   1.420   0.095  0.0441  0.3612 -0.5340
 4199TIP3    H234013   0.706   1.463  -0.051 -1.6660  2.6634  0.0947
 4200TIP3   OH234014   5.775   0.568  14.283 -0.3139 -0.2639  0.2014
 4200TIP3    H134015   5.837   0.556  14.355 -0.1949  0.1289  0.1715
 4200TIP3    H234016   5.693   0.592  14.326  0.1721  1.6648  0.1755
 4201TIP3   OH234017   4.776   3.246   1.869 -0.9029 -0.4342 -0.3429
 4201TIP3    H134018   4.865   3.221   1.842 -1.2412 -2.2154  0.0647
 4201TIP3    H234019   4.747   3.307   1.801  0.0177 -1.1360 -1.4033
 4202TIP3   OH234020   2.725   0.534   3.197  0.1993  0.4035 -0.1108
 4202TIP3    H134021   2.780   0.606   3.168  0.7346  1.1582  2.4496
 4202TIP3    H234022   2.648   0.576   3.234  0.7356 -0.2291  1.8707
 4203TIP3   OH234023   2.117   1.537  12.743  0.2449  0.2624  0.7278
 4203TIP3    H134024   2.127   1.442  12.747 -0.9775  0.1386  1.5508
 4203TIP3    H234025   2.178   1.565  12.676  1.3000 -1.0046  1.1227
 4204TIP3   OH234026   1.612   5.678  14.678 -0.2122  0.5215 -0.0027
 4204TIP3    H134027   1.543   5.708  14.618  0.5355  0.9017 -0.6988
 4204TIP3    H234028   1.637   5.757  14.726 -0.7652  0.2289  0.7704
 4205TIP3   OH234029   3.358   3.620  13.524  0.2150  0.6286 -0.0842
 4205TIP3    H134030   3.447   3.586  13.520  0.9136  2.4045 -1.2485
 4205TIP3    H234031   3.315   3.583  13.447 -0.2164 -0.5457  0.6929
 4206TIP3   OH234032   2.899   2.911   5.219  0.8389  0.3679 -0.3989
 4206TIP3    H134033   2.973   2.850   5.214  1.0393  0.4766  0.8759
 4206TIP3    H234034   2.832   2.864   5.268  0.9332  1.0880  0.4490
 4207TIP3   OH234035   2.752   6.033  11.838  0.1586  0.7033  0.0029
 4207TIP3    H134036   2.807   6.003  11.765 -1.1073  0.1896 -0.7891
 4207TIP3    H234037   2.737   5.954  11.891 -0.9976  0.4761 -0.6163
 4208TIP3   OH234038   3.968   3.950  16.113  0.0849 -0.0384 -0.4162
 4208TIP3    H134039   3.892   4.006  16.098 -1.0851 -1.3076  0.5541
 4208TIP3    H234040   4.026   4.002  16.168  0.0230  1.0133 -1.3157
 4209TIP3   OH234041   0.414   4.537  10.853 -0.2583  0.3063  0.3837
 4209TIP3    H134042   0.451   4.563  10.938 -0.9244 -0.5787  0.9531
 4209TIP3    H234043   0.464   4.589  10.789 -0.5258  1.8571  1.3767
 4210TIP3   OH234044   2.041   6.184  12.006 -0.2312  0.2403  0.1202
 4210TIP3    H134045   2.074   6.096  11.986 -0.0192 -0.3543  2.7139
 4210TIP3    H234046   1.947   6.171  12.018 -0.0194  0.0358  1.8298
 4211TIP3   OH234047   5.242   6.365   1.811  0.3091  0.2729  0.0876
 4211TIP3    H134048   5.184   6.401   1.877 -0.1359 -1.6103  0.7758
 4211TIP3    H234049   5.200   6.385   1.727 -0.8120 -0.2047  0.5325
 4212TIP3   OH234050   0.777   4.434   1.397 -0.0062  0.1836 -0.0605
 4212TIP3    H134051   0.746   4.484   1.473 -2.5359 -0.4375 -0.5872
 4212TIP3    H234052   0.861   4.474   1.375 -0.3770  2.0142  1.5403
 4213TIP3   OH234053   6.414   5.809   5.294 -0.1046 -0.3178 -0.7103
 4213TIP3    H134054   6.397   5.875   5.227  1.1202  0.7912  0.0181
 4213TIP3    H234055   6.333   5.803   5.343 -0.0518  1.1103 -0.4135
 4214TIP3   OH234056   4.980   0.284   4.488  0.2330 -0.5236  0.6737
 4214TIP3    H134057   4.924   0.293   4.410 -0.9277  0.1309  1.5559
 4214TIP3    H234058   4.967   0.194   4.517 -0.0963 -0.4779  0.6711
 4215TIP3   OH234059   6.078   3.457   2.919  0.4377 -0.3554 -0.4484
 4215TIP3    H134060   6.161   3.498   2.893  1.2945 -1.6323  0.1529
 4215TIP3    H234061   6.018   3.530   2.933  1.3887  0.5895 -1.1249
 4216TIP3   OH234062   3.028   5.546   4.891  0.0367 -0.1737  0.0615
 4216TIP3    H134063   3.093   5.552   4.960  0.6030 -1.5180 -0.3130
 4216TIP3    H234064   3.008   5.636   4.868  2.1229  0.2787 -0.1424
 4217TIP3   OH234065   1.750   1.986   6.695 -0.4261 -0.5937  0.1972
 4217TIP3    H134066   1.697   1.956   6.770  0.8361  0.6856  1.6728
 4217TIP3    H234067   1.827   1.929   6.697  0.5398  0.7012  1.1296
 4218TIP3   OH234068   4.904   3.172   2.530  0.0444 -0.5296 -0.0949
 4218TIP3    H134069   4.986   3.172   2.579 -2.1548 -0.3502  3.9900
 4218TIP3    H234070   4.863   3.088   2.551 -0.8792 -0.6526 -2.1160
 4219TIP3   OH234071   1.349   2.075   3.598  0.1769 -0.3204 -0.4053
 4219TIP3    H134072   1.323   2.099   3.509  0.0973 -1.4187 -0.6882
 4219TIP3    H234073   1.431   2.121   3.613  0.0306  0.1143 -0.9321
 4220TIP3   OH234074   6.220   3.234   2.082 -0.1094  0.6110 -0.5092
 4220TIP3    H134075   6.279   3.243   2.007  0.0979  1.9481 -0.2167
 4220TIP3    H234076   6.274   3.194   2.150 -0.6134 -1.6933 -1.3868
 4221TIP3   OH234077   5.207   5.062  12.482 -0.2155 -0.2036 -0.0984
 4221TIP3    H134078   5.271   5.065  12.553 -1.0844  0.0765  0.6982
 4221TIP3    H234079   5.189   5.155  12.463  1.5585 -0.2185 -2.1488
 4222TIP3   OH234080   4.204   4.128  14.887 -0.0948  0.4566 -0.4885
 4222TIP3    H134081   4.254   4.191  14.940  0.1190  0.0632 -0.2125
 4222TIP3    H234082   4.175   4.178  14.811  2.5166  0.1911 -1.7457
 4223TIP3   OH234083   4.566   1.577  11.497 -0.1838  0.2296  0.1126
 4223TIP3    H134084   4.636   1.542  11.553  0.0391 -0.5349 -0.6273
 4223TIP3    H234085   4.544   1.662  11.537  0.4017 -0.0111  0.9879
 4224TIP3   OH234086   1.208   1.159   3.638 -0.0149 -0.0447  0.2296
 4224TIP3    H134087   1.215   1.128   3.548 -2.6448 -1.1217  0.3134
 4224TIP3    H234088   1.156   1.093   3.682  2.7809 -0.5469  3.1265
 4225TIP3   OH234089   2.803   1.904  16.113  0.2716  0.4898 -0.1515
 4225TIP3    H134090   2.774   1.879  16.200 -0.7333  2.4454  0.1251
 4225TIP3    H234091   2.776   1.995  16.103  1.5798  0.7488 -1.9925
 4226TIP3   OH234092   0.265   1.506   2.541 -0.6896 -0.5859  0.0010
 4226TIP3    H134093   0.265   1.600   2.528 -2.5330 -0.4549  0.6861
 4226TIP3    H234094   0.335   1.474   2.484  2.7937  1.5102  2.6872
 4227TIP3   OH234095   5.955   2.015  15.126  0.0499 -0.3647 -0.2603
 4227TIP3    H134096   6.046   2.000  15.148 -0.1191  0.1361  0.8557
 4227TIP3    H234097   5.957   2.068  15.047  0.8683  3.0420  1.8353
 4228TIP3   OH234098   1.516   4.269   4.694 -0.4386 -0.3684  0.8223
 4228TIP3    H134099   1.470   4.352   4.698  1.2518  0.5854  1.6134
 4228TIP3    H234100   1.597   4.289   4.646 -0.7932 -1.9778 -0.5494
 4229TIP3   OH234101   5.487   2.888   1.312 -0.3283  0.3765 -0.3525
 4229TIP3    H134102   5.560   2.902   1.252  0.4240  0.2504  0.5030
 4229TIP3    H234103   5.484   2.793   1.324 -0.8750  0.3511 -0.6676
 4230TIP3   OH234104   1.097   3.539  15.043  0.2969 -0.7000 -0.6950
 4230TIP3    H134105   1.050   3.482  15.103  1.0583  0.6650  1.2868
 4230TIP3    H234106   1.171   3.487  15.012 -0.0878 -1.4015 -0.4621
 4231TIP3   OH234107   3.861   5.603   5.006 -0.4895 -0.3845 -0.1149
 4231TIP3    H134108   3.895   5.528   4.957  0.0266 -0.2776  0.0702
 4231TIP3    H234109   3.885   5.679   4.953 -0.2024 -0.2891  0.1486
 4232TIP3   OH234110   6.561   4.921   5.780  0.2871  0.0591  0.1284
 4232TIP3    H134111   6.536   4.925   5.872  1.4303  0.7575  0.4388
 4232TIP3    H234112   6.560   5.012   5.751 -0.2280 -0.1717 -0.6014
 4233TIP3   OH234113   3.300   4.120  12.588 -0.0637 -0.1626  0.3680
 4233TIP3    H134114   3.218   4.103  12.634 -0.4764 -0.0616 -0.3145
 4233TIP3    H234115   3.334   4.032  12.569  0.9073 -0.2191  2.2261
 4234TIP3   OH234116   4.854   2.382  16.379  0.3382  0.0468  0.5627
 4234TIP3    H134117   4.862   2.431  16.460 -1.2803  0.7744  0.3342
 4234TIP3    H234118   4.795   2.435  16.324 -1.1476 -1.9014  0.1426
 4235TIP3   OH234119   2.246   2.741   5.321 -0.0689 -0.2175 -0.0919
 4235TIP3    H134120   2.176   2.725   5.257  0.7763 -0.4015 -1.0009
 4235TIP3    H234121   2.311   2.673   5.303  0.6509  0.3541  0.2884
 4236TIP3   OH234122   0.134   1.703  13.956 -0.4016  0.2371 -0.5777
 4236TIP3    H134123   0.086   1.624  13.931  2.4222 -1.6079 -0.6412
 4236TIP3    H234124   0.145   1.751  13.873  0.1028 -0.6473 -1.0377
 4237TIP3   OH234125   2.639   5.040  16.309 -0.0407 -0.1970  0.3133
 4237TIP3    H134126   2.699   5.033  16.383 -2.3205 -3.4136  2.0949
 4237TIP3    H234127   2.667   4.972  16.248 -0.9088 -0.6808  0.4370
 4238TIP3   OH234128   4.094   1.193   1.545  0.0401  0.0667 -0.2846
 4238TIP3    H134129   4.003   1.205   1.574 -0.7858  1.0373 -2.9940
 4238TIP3    H234130   4.129   1.126   1.604 -2.2901 -0.0494  1.1008
 4239TIP3   OH234131   0.730   3.973  14.568  0.1605  0.0767 -0.6905
 4239TIP3    H134132   0.706   3.896  14.516  1.9805 -0.8622 -0.2003
 4239TIP3    H234133   0.763   3.937  14.650 -0.0429  1.4516  0.0130
 4240TIP3   OH234134   3.441   3.817   6.262 -0.1398 -0.0024  0.0957
 4240TIP3    H134135   3.459   3.875   6.337 -1.4979 -0.9259  1.1825
 4240TIP3    H234136   3.417   3.734   6.302  1.7593 -1.3710 -1.4242
 4241TIP3   OH234137   1.024   5.376   1.662 -0.7963  0.0199  1.0106
 4241TIP3    H134138   1.059   5.308   1.605 -0.6874  0.1395  0.9339
 4241TIP3    H234139   1.027   5.456   1.609  1.5197  0.6234  1.9254
 4242TIP3   OH234140   2.596   1.634  16.122  0.4918  0.0249  0.0273
 4242TIP3    H134141   2.502   1.633  16.138  0.4590  0.3757 -0.1353
 4242TIP3    H234142   2.612   1.716  16.076  1.0002  0.3664  0.7871
 4243TIP3   OH234143   1.624   0.485   0.665 -0.3303 -0.2614  0.2526
 4243TIP3    H134144   1.625   0.533   0.582  0.1813 -0.1923  0.2931
 4243TIP3    H234145   1.643   0.395   0.641 -1.9820 -0.5949  0.0981
 4244TIP3   OH234146   1.481   2.284  14.837  0.1626  0.1161  0.6521
 4244TIP3    H134147   1.445   2.240  14.760 -1.2154  1.9286  0.2183
 4244TIP3    H234148   1.466   2.222  14.908 -0.3244 -0.7721 -0.1876
 4245TIP3   OH234149   0.477   5.891  14.071  0.1467  0.4902  0.7532
 4245TIP3    H134150   0.481   5.808  14.119  0.3071  0.8260  1.3297
 4245TIP3    H234151   0.446   5.954  14.136 -1.1584  0.6549  0.0030
 4246TIP3   OH234152   2.030   3.191  12.751 -0.0207 -0.1815 -0.4327
 4246TIP3    H134153   2.121   3.170  12.732  0.5616 -0.4727  2.2605
 4246TIP3    H234154   1.999   3.118  12.805 -1.3351  0.6683  0.0040
 4247TIP3   OH234155   3.003   1.876   3.815 -0.4467  0.0689 -0.3144
 4247TIP3    H134156   3.014   1.908   3.904 -0.9354  0.4931 -0.3977
 4247TIP3    H234157   2.945   1.940   3.773  0.1232  0.1148 -1.0695
 4248TIP3   OH234158   4.386   0.090  11.422 -0.1986 -0.0755  0.3178
 4248TIP3    H134159   4.469   0.119  11.460 -1.3088  1.3088  1.8603
 4248TIP3    H234160   4.354   0.167  11.374 -1.8600  0.4241  2.0935
 4249TIP3   OH234161   5.131   3.494   4.056  0.2977  0.4852 -0.3197
 4249TIP3    H134162   5.037   3.498   4.074  0.5261 -1.1775  1.5709
 4249TIP3    H234163   5.149   3.401   4.044  1.7617  0.7464 -0.2760
 4250TIP3   OH234164   2.994   0.512   5.715  0.1976  0.4247  0.1581
 4250TIP3    H134165   2.963   0.461   5.790  1.0773 -0.5762 -0.1383
 4250TIP3    H234166   2.985   0.603   5.743  0.1806  0.0802  1.3471
 4251TIP3   OH234167   1.734   0.890  14.085 -0.1902 -0.2150 -0.6303
 4251TIP3    H134168   1.727   0.816  14.025  1.7651 -2.3252  1.5092
 4251TIP3    H234169   1.810   0.939  14.053 -0.6105  0.0588 -1.2260
 4252TIP3   OH234170   2.592   3.944  13.948 -0.2669 -0.1625 -0.0772
 4252TIP3    H134171   2.656   3.962  13.880  0.6382  2.0414  1.2600
 4252TIP3    H234172   2.609   3.853  13.974  1.3698 -0.0646 -0.7210
 4253TIP3   OH234173   3.451   1.279  12.418 -0.2958 -0.3746 -0.1618
 4253TIP3    H134174   3.432   1.371  12.438 -0.3384 -0.5035  0.4201
 4253TIP3    H234175   3.451   1.236  12.503 -0.8450 -1.0235 -0.4792
 4254TIP3   OH234176   0.904   5.219  11.644  0.2412  0.2266  0.0382
 4254TIP3    H134177   0.934   5.129  11.627  0.0507  0.3451 -0.9961
 4254TIP3    H234178   0.968   5.254  11.705 -0.6444 -1.1777  1.8693
 4255TIP3   OH234179   6.423   4.079  11.349  0.3555 -0.0315  0.0214
 4255TIP3    H134180   6.437   4.031  11.268  0.8669 -0.1123  0.1550
 4255TIP3    H234181   6.506   4.072  11.396  0.2622  0.5281  0.2793
 4256TIP3   OH234182   6.324   4.354   0.647 -0.2445 -0.6622  0.7213
 4256TIP3    H134183   6.386   4.389   0.583 -0.7874 -0.7100  0.1577
 4256TIP3    H234184   6.352   4.264   0.660 -0.1565 -0.6650  0.5181
 4257TIP3   OH234185   2.838   6.690   1.050 -0.2896  0.2667 -0.2407
 4257TIP3    H134186   2.864   6.705   1.141  1.0706 -2.4344 -0.0848
 4257TIP3    H234187   2.904   6.739   0.999  0.4848 -0.2560  0.2331
 4258TIP3   OH234188   2.707   5.640   0.142 -0.2277 -0.0844 -0.1277
 4258TIP3    H134189   2.741   5.566   0.092  2.2933  0.2286  1.0043
 4258TIP3    H234190   2.646   5.600   0.205  1.5510 -1.3324  0.8800
 4259TIP3   OH234191   2.485   1.869   2.381 -0.1052  1.1304 -0.2451
 4259TIP3    H134192   2.510   1.779   2.402 -2.6655 -0.2267 -2.4740
 4259TIP3    H234193   2.406   1.884   2.432  0.9713  2.6755  1.0842
 4260TIP3   OH234194   3.649   1.916   5.287  0.4390 -0.3540  0.3061
 4260TIP3    H134195   3.704   1.838   5.290  0.0244 -0.7003 -0.8034
 4260TIP3    H234196   3.593   1.908   5.365  0.1356 -1.3617 -0.0019
 4261TIP3   OH234197   4.719   5.503  16.218  0.3644 -0.3654  0.5658
 4261TIP3    H134198   4.730   5.579  16.275 -1.1472  1.3652 -1.2891
 4261TIP3    H234199   4.806   5.489  16.180  0.8217 -0.0457  1.4594
 4262TIP3   OH234200   5.999   2.959  12.901  0.6143  0.1160  0.1191
 4262TIP3    H134201   6.013   3.013  12.979  1.3226 -0.5516  0.4557
 4262TIP3    H234202   6.034   2.873  12.923 -0.5279 -0.5103 -0.4051
 4263TIP3   OH234203   0.644   6.485   0.159 -0.2193 -0.5681 -0.8988
 4263TIP3    H134204   0.732   6.502   0.125 -0.4896 -0.5416 -1.5901
 4263TIP3    H234205   0.611   6.571   0.183  0.3733 -0.6926  0.4554
 4264TIP3   OH234206   5.357   5.790   1.348 -0.2297 -0.1304 -0.1707
 4264TIP3    H134207   5.355   5.857   1.280  0.5883  1.4285  1.2739
 4264TIP3    H234208   5.267   5.758   1.354 -0.7575  1.2255 -0.5417
 4265TIP3   OH234209   2.203   1.507   1.646 -0.8031 -0.3072 -0.0712
 4265TIP3    H134210   2.278   1.448   1.653  0.1389  0.7787 -0.5289
 4265TIP3    H234211   2.179   1.504   1.553 -0.3020  0.5315 -0.2382
 4266TIP3   OH234212   3.484   1.114  11.242  0.2519  0.0655  0.0638
 4266TIP3    H134213   3.541   1.156  11.306 -0.5799  2.3545 -0.5720
 4266TIP3    H234214   3.419   1.067  11.294  1.3062 -0.5862  0.8191
 4267TIP3   OH234215   1.216   3.648  13.028  0.6303 -0.4157  0.0553
 4267TIP3    H134216   1.303   3.644  13.066  0.6700  0.4820  0.0935
 4267TIP3    H234217   1.220   3.721  12.966 -0.0348 -0.4799 -0.0766
 4268TIP3   OH234218   3.147   3.019  13.096  0.5346  0.1931  0.0886
 4268TIP3    H134219   3.066   3.060  13.127  0.8798 -0.5176  2.1007
 4268TIP3    H234220   3.118   2.954  13.032 -0.5041 -0.0368  0.7630
 4269TIP3   OH234221   5.319   0.158  14.597 -0.3669 -0.2284 -0.2953
 4269TIP3    H134222   5.332   0.094  14.667 -0.0308  0.0247 -0.1259
 4269TIP3    H234223   5.408   0.181  14.569 -0.4650  0.7039  0.1350
 4270TIP3   OH234224   0.004   4.847  15.157  0.4667  0.2530 -0.7714
 4270TIP3    H134225   0.022   4.903  15.232 -3.4338  0.1014  0.4804
 4270TIP3    H234226   0.026   4.759  15.187  0.8800  0.4137 -0.5930
 4271TIP3   OH234227   5.775   0.025  15.100  0.1367 -0.0165  0.6117
 4271TIP3    H134228   5.755  -0.018  15.183 -0.0774 -1.9135 -0.3755
 4271TIP3    H234229   5.767   0.119  15.119 -0.7270 -0.4328  2.5111
 4272TIP3   OH234230   3.839   6.573   0.818 -0.0371 -0.6442  0.4072
 4272TIP3    H134231   3.770   6.620   0.771  0.3863 -0.0192  0.3995
 4272TIP3    H234232   3.821   6.481   0.801  0.2352 -0.4237 -1.1793
 4273TIP3   OH234233   5.891   0.671  16.295 -0.1283 -0.3094 -0.6750
 4273TIP3    H134234   5.888   0.582  16.259 -0.4963 -0.9534  0.8555
 4273TIP3    H234235   5.806   0.708  16.274 -0.1222 -0.4595 -0.9747
 4274TIP3   OH234236   5.888   5.054  16.729 -0.1375  0.1416  0.1881
 4274TIP3    H134237   5.970   5.103  16.727 -0.8938  1.4298  0.2583
 4274TIP3    H234238   5.823   5.116  16.762 -1.2346 -0.7284 -0.2790
 4275TIP3   OH234239   6.219   0.086   4.287 -0.4119 -0.4012  0.0878
 4275TIP3    H134240   6.314   0.073   4.291  0.0479  1.3621 -2.6098
 4275TIP3    H234241   6.194   0.104   4.377  1.9807  0.0375  0.7464
 4276TIP3   OH234242   4.563   6.630  13.410 -0.1635  0.8187 -0.1892
 4276TIP3    H134243   4.504   6.556  13.396  1.7285 -0.6838 -0.5914
 4276TIP3    H234244   4.570   6.637  13.505  0.7003 -0.4353 -0.1383
 4277TIP3   OH234245   4.271   0.202  12.216  0.2678 -0.6171  0.0293
 4277TIP3    H134246   4.351   0.246  12.188 -0.3200  0.0816 -0.5876
 4277TIP3    H234247   4.294   0.159  12.298  0.3711  2.4508  1.7503
 4278TIP3   OH234248   0.061   2.084   1.876 -0.4271  0.2471 -0.5171
 4278TIP3    H134249   0.001   2.146   1.917  0.9409  0.6018  1.0871
 4278TIP3    H234250   0.146   2.127   1.878  0.5817 -1.6262  0.6703
 4279TIP3   OH234251   3.658   0.746   2.726  0.5231 -0.1693 -0.4675
 4279TIP3    H134252   3.702   0.813   2.673  2.2570 -0.8935 -0.0131
 4279TIP3    H234253   3.667   0.777   2.816 -1.5914  0.5864 -0.4572
 4280TIP3   OH234254   4.113   1.137  12.711  0.3328 -0.4244 -0.2429
 4280TIP3    H134255   4.106   1.169  12.801  2.1151  0.6347 -0.4363
 4280TIP3    H234256   4.168   1.059  12.717 -2.7713 -2.8243  0.0206
 4281TIP3   OH234257   3.780   6.681  14.554 -0.2764 -0.4372 -0.6037
 4281TIP3    H134258   3.842   6.610  14.571 -0.1154  0.0657  1.0978
 4281TIP3    H234259   3.752   6.709  14.641 -1.4277  0.6334 -1.2954
 4282TIP3   OH234260   5.102   3.246  10.719  0.0263 -1.1008 -0.0847
 4282TIP3    H134261   5.134   3.243  10.809 -1.2248 -2.3423  0.3507
 4282TIP3    H234262   5.045   3.169  10.711 -1.0544 -0.2116 -1.4808
 4283TIP3   OH234263   1.359   0.230   3.006 -0.2920 -0.2127 -0.3868
 4283TIP3    H134264   1.343   0.251   2.914  1.5024  0.2332 -0.6330
 4283TIP3    H234265   1.413   0.303   3.038  0.5414 -1.2132  0.5426
 4284TIP3   OH234266   4.777   4.804  13.216  0.3967  0.0948 -0.0703
 4284TIP3    H134267   4.835   4.739  13.176 -1.0858  0.2181 -2.6176
 4284TIP3    H234268   4.825   4.886  13.207  0.3907  0.0087 -1.0362
 4285TIP3   OH234269   3.602   6.158   0.605 -0.6815 -0.1171 -0.5372
 4285TIP3    H134270   3.522   6.187   0.650 -1.2056 -1.5386 -0.4759
 4285TIP3    H234271   3.570   6.103   0.533  0.2219 -1.8735  0.3350
 4286TIP3   OH234272   2.797   2.573   3.301  0.9267  0.1278  0.4173
 4286TIP3    H134273   2.814   2.626   3.223  0.9763 -0.3279  0.1085
 4286TIP3    H234274   2.876   2.519   3.310  0.9291  0.1951  0.7939
 4287TIP3   OH234275   2.693   0.813  16.188 -0.4181  0.0685 -0.1006
 4287TIP3    H134276   2.787   0.802  16.197 -0.5842 -0.1700  1.5310
 4287TIP3    H234277   2.681   0.906  16.170  0.2049 -0.1789 -2.1247
 4288TIP3   OH234278   4.990   3.871   3.298 -0.4833 -0.4514  0.2111
 4288TIP3    H134279   4.915   3.930   3.290 -0.1696 -0.1758 -0.7571
 4288TIP3    H234280   5.066   3.929   3.294 -0.2076 -0.7161  1.3267
 4289TIP3   OH234281   4.388   6.214  13.127  0.4756  0.0535  0.7916
 4289TIP3    H134282   4.409   6.298  13.088 -1.1700 -0.3683 -1.1224
 4289TIP3    H234283   4.339   6.235  13.207 -0.6480  0.9310 -0.1049
 4290TIP3   OH234284   2.163   1.857   0.174 -0.2201 -0.1359 -0.2627
 4290TIP3    H134285   2.232   1.896   0.227  2.3695 -2.8834 -1.3528
 4290TIP3    H234286   2.130   1.930   0.121  1.1706  1.4690  0.9870
 4291TIP3   OH234287   5.602   4.938  16.822 -0.8481 -0.0402  0.1593
 4291TIP3    H134288   5.608   4.951  16.727 -1.2035  0.0570  0.1482
 4291TIP3    H234289   5.692   4.929  16.851 -0.7720 -3.2256 -0.6470
 4292TIP3   OH234290   5.843   2.043   0.723 -0.2178 -0.1297  0.3564
 4292TIP3    H134291   5.937   2.035   0.740 -0.0139  0.9189 -0.1746
 4292TIP3    H234292   5.838   2.092   0.641 -1.2366  0.1734  0.5823
 4293TIP3   OH234293   1.316   5.493   5.897  0.3329  0.7359  0.0288
 4293TIP3    H134294   1.410   5.505   5.892  0.4044  1.6522  2.2667
 4293TIP3    H234295   1.286   5.558   5.960 -1.6486 -0.2240  0.1881
 4294TIP3   OH234296   0.117   3.992   1.368  0.1877 -0.4624  0.3814
 4294TIP3    H134297   0.033   4.039   1.362  0.3726 -0.0599  0.8790
 4294TIP3    H234298   0.092   3.900   1.365 -0.1025 -0.3773 -1.7076
 4295TIP3   OH234299   1.719   0.518  11.921  0.4823 -0.3086 -0.1671
 4295TIP3    H134300   1.749   0.437  11.964  0.3822  0.4560  1.4411
 4295TIP3    H234301   1.738   0.586  11.985 -1.1799  0.7007 -0.6998
 4296TIP3   OH234302   3.584   0.633   5.317 -0.2886  0.0668 -0.3531
 4296TIP3    H134303   3.547   0.575   5.384  0.7029 -1.3184 -0.9532
 4296TIP3    H234304   3.619   0.707   5.365  0.3781 -0.8885  0.6902
 4297TIP3   OH234305   0.412   5.007  11.519  0.5851  0.1640 -0.2249
 4297TIP3    H134306   0.486   5.044  11.567  1.1663  1.4072 -1.9879
 4297TIP3    H234307   0.335   5.052  11.556  0.7990 -0.2692  0.7901
 4298TIP3   OH234308   1.722   2.762  11.530 -0.1478  0.5347 -0.1478
 4298TIP3    H134309   1.698   2.855  11.533 -2.4498  0.0733 -1.7003
 4298TIP3    H234310   1.649   2.718  11.574 -0.3692 -0.6928 -1.6727
 4299TIP3   OH234311   5.687   3.744   1.617 -0.1415 -0.2531 -0.9622
 4299TIP3    H134312   5.782   3.753   1.627 -0.2206 -0.4800  0.0228
 4299TIP3    H234313   5.650   3.808   1.677 -0.6214 -0.9350 -0.5203
 4300TIP3   OH234314   1.147   4.222  11.848 -0.0291  0.3231  0.1840
 4300TIP3    H134315   1.077   4.277  11.812  0.9014  1.2822 -0.1897
 4300TIP3    H234316   1.202   4.282  11.898 -0.6502 -0.7730  2.3316
 4301TIP3   OH234317   1.638   4.705   1.004 -0.2868 -0.3304  0.5208
 4301TIP3    H134318   1.729   4.676   1.011 -0.7100 -2.0140 -0.2821
 4301TIP3    H234319   1.625   4.723   0.911 -0.4562  1.1449  0.8005
 4302TIP3   OH234320   2.790   2.488  11.437  0.2899 -0.7913  0.0829
 4302TIP3    H134321   2.701   2.454  11.427 -0.4525  0.4330  2.0618
 4302TIP3    H234322   2.818   2.508  11.348 -1.1308 -1.8395 -0.6445
 4303TIP3   OH234323   5.177   5.239   4.973 -0.0290  0.0605 -0.2295
 4303TIP3    H134324   5.221   5.197   5.048 -1.1309  0.7576  0.8462
 4303TIP3    H234325   5.092   5.196   4.968 -0.3965  0.7900 -0.3785
 4304TIP3   OH234326   1.378   2.259  15.610 -1.0110 -0.6474 -0.3362
 4304TIP3    H134327   1.429   2.241  15.689 -1.1852  0.0023 -0.0745
 4304TIP3    H234328   1.405   2.347  15.583 -0.6492 -1.0207 -1.2365
 4305TIP3   OH234329   4.544   1.060   4.407  0.1731  0.2590 -0.2198
 4305TIP3    H134330   4.509   0.972   4.422  2.9207 -0.7574  1.1682
 4305TIP3    H234331   4.469   1.118   4.413 -1.4069 -1.8012  1.3003
 4306TIP3   OH234332   2.561   1.670   1.929  0.0126  0.1966 -0.3556
 4306TIP3    H134333   2.526   1.656   1.841 -1.6590 -1.4343  0.4907
 4306TIP3    H234334   2.601   1.585   1.953  0.9198  0.7779  0.2772
 4307TIP3   OH234335   6.535   3.874  15.358 -0.4845 -0.0580  0.1186
 4307TIP3    H134336   6.593   3.801  15.336 -1.7363 -0.9669 -0.3103
 4307TIP3    H234337   6.515   3.914  15.273  0.8885  1.3635  0.4322
 4308TIP3   OH234338   3.907   3.054  15.865  0.0839 -0.4328 -0.3486
 4308TIP3    H134339   3.970   3.006  15.919  0.8741  1.1704  0.1990
 4308TIP3    H234340   3.960   3.109  15.809 -0.8199  1.0217  0.1748
 4309TIP3   OH234341   6.416   6.488   4.911 -0.2168  0.5465  0.4164
 4309TIP3    H134342   6.427   6.493   4.816 -0.7592 -0.4818  0.2808
 4309TIP3    H234343   6.340   6.431   4.923  0.6047 -0.3831  1.4838
 4310TIP3   OH234344   2.798   2.589  11.177 -0.7146 -0.1206 -0.2371
 4310TIP3    H134345   2.778   2.615  11.087 -1.2827  1.1639  0.2384
 4310TIP3    H234346   2.890   2.613  11.190 -0.6355 -0.2995 -0.4665
 4311TIP3   OH234347   4.238   3.386  13.934 -0.1122 -0.1233  0.1204
 4311TIP3    H134348   4.149   3.364  13.961 -0.5659  0.0978 -1.1309
 4311TIP3    H234349   4.277   3.302  13.910  0.4731 -0.3947  1.8780
 4312TIP3   OH234350   4.947   3.089  13.978 -0.4917 -0.0573  0.6686
 4312TIP3    H134351   4.897   3.144  14.037  0.3778  0.5674  0.8388
 4312TIP3    H234352   5.023   3.060  14.029  0.2374  0.4344 -0.1012
 4313TIP3   OH234353   5.148   1.783  13.612  0.2929  0.0094  0.4385
 4313TIP3    H134354   5.171   1.874  13.629  0.3239  0.2203 -0.6457
 4313TIP3    H234355   5.148   1.741  13.698 -0.0196  1.0962  0.9736
 4314TIP3   OH234356   2.195   4.781   4.302  0.2958 -0.2532  0.3553
 4314TIP3    H134357   2.275   4.829   4.284 -0.7766  2.9378  3.0311
 4314TIP3    H234358   2.223   4.707   4.356  1.5765  0.1419  0.2540
 4315TIP3   OH234359   5.661   2.404   5.736 -0.7569  0.2518  0.5546
 4315TIP3    H134360   5.659   2.499   5.745 -1.1880  0.0814  2.9215
 4315TIP3    H234361   5.704   2.373   5.816 -1.6834 -1.5896  0.3935
 4316TIP3   OH234362   6.120   5.429   6.370  0.0865 -0.3112  0.2275
 4316TIP3    H134363   6.148   5.464   6.454 -1.1175  0.5082  0.3052
 4316TIP3    H234364   6.070   5.500   6.329  2.1486  0.0115 -2.0076
 4317TIP3   OH234365   6.000   5.019   5.233 -0.0674  0.2757  0.5464
 4317TIP3    H134366   6.095   5.028   5.239 -0.1950  0.7704  3.6316
 4317TIP3    H234367   5.985   4.927   5.215  0.9597  0.3667 -0.9798
 4318TIP3   OH234368   1.366   2.045   5.916  0.0076 -0.3624 -0.3736
 4318TIP3    H134369   1.311   1.978   5.956 -0.4387 -0.0176 -0.3985
 4318TIP3    H234370   1.372   2.020   5.824  0.2523 -0.6354 -0.2857
 4319TIP3   OH234371   1.485   5.207  13.087 -0.0467  0.2851  0.6064
 4319TIP3    H134372   1.390   5.198  13.097 -0.1446  1.4789  0.9130
 4319TIP3    H234373   1.520   5.193  13.174 -0.2279  2.8107  1.1631
 4320TIP3   OH234374   4.235   4.638  14.279 -0.0373  0.3077 -0.5688
 4320TIP3    H134375   4.269   4.606  14.363  1.8465  1.0603 -0.9922
 4320TIP3    H234376   4.140   4.632  14.288  0.1519 -2.6474  0.3965
 4321TIP3   OH234377   2.996   4.226  15.998 -0.2007  0.2607  0.3475
 4321TIP3    H134378   2.955   4.161  15.942 -0.4253  1.0155 -0.3832
 4321TIP3    H234379   2.925   4.259  16.053 -0.7497  1.9296 -1.2628
 4322TIP3   OH234380   2.094   4.097   6.071 -0.0601 -0.4757 -0.2764
 4322TIP3    H134381   2.046   4.017   6.092 -0.9051  0.3172  0.8997
 4322TIP3    H234382   2.134   4.079   5.985 -0.8043 -1.8856 -0.3557
 4323TIP3   OH234383   2.852   4.387  13.701  0.3561  0.4244 -0.1208
 4323TIP3    H134384   2.896   4.340  13.772 -0.2262  3.1700  2.2398
 4323TIP3    H234385   2.924   4.416  13.644  0.9278 -0.9027 -0.1213
 4324TIP3   OH234386   5.351   3.569  13.808  0.3818  0.7965  0.2295
 4324TIP3    H134387   5.366   3.663  13.820 -0.1238  0.7560  1.3336
 4324TIP3    H234388   5.262   3.563  13.772  0.3581  0.7335  0.2984
 4325TIP3   OH234389   1.589   2.603  12.352  0.0719  0.2122 -0.6306
 4325TIP3    H134390   1.651   2.667  12.317 -0.6532  0.3536 -1.6859
 4325TIP3    H234391   1.644   2.528  12.378  0.7248  0.5033 -1.1513
 4326TIP3   OH234392   0.711   4.503  16.750  0.6278 -0.4541  0.1061
 4326TIP3    H134393   0.796   4.458  16.742  1.2818  0.8627 -0.6239
 4326TIP3    H234394   0.651   4.449  16.698  0.7316 -2.0179  1.5308
 4327TIP3   OH234395   2.840   0.365  12.715  0.2929 -0.1324 -0.1638
 4327TIP3    H134396   2.819   0.457  12.700 -0.7015 -0.5525 -1.5064
 4327TIP3    H234397   2.757   0.325  12.741  1.0708 -0.3357  2.2742
 4328TIP3   OH234398   3.019   0.438   0.014  0.2311  0.4389 -0.5154
 4328TIP3    H134399   2.927   0.463   0.005  0.4626  0.9851 -1.5412
 4328TIP3    H234400   3.058   0.458  -0.071  0.5423 -3.1756 -1.3836
 4329TIP3   OH234401   2.299   3.322   6.163 -0.5344  0.1959 -0.8283
 4329TIP3    H134402   2.235   3.337   6.094 -1.5855  0.9261  0.2674
 4329TIP3    H234403   2.294   3.401   6.217 -0.0107 -0.5258  0.3025
 4330TIP3   OH234404   1.819   5.231   1.812  0.1810  0.7299  0.2793
 4330TIP3    H134405   1.830   5.203   1.903  1.5661  0.8321  0.1631
 4330TIP3    H234406   1.724   5.229   1.798  0.0461 -1.1909  1.1244
 4331TIP3   OH234407   5.060   2.873   0.386  0.1652  0.0702 -0.1905
 4331TIP3    H134408   5.125   2.808   0.414  1.1007  0.9008 -0.3742
 4331TIP3    H234409   5.112   2.942   0.345 -0.8431  0.7989 -0.2635
 4332TIP3   OH234410   2.871   5.575   5.785  0.3117 -0.2462  0.6833
 4332TIP3    H134411   2.799   5.532   5.832  0.9968 -0.7046  1.3397
 4332TIP3    H234412   2.875   5.663   5.823 -0.2263 -0.0358  0.2759
 4333TIP3   OH234413   3.863   1.039  14.172 -0.2588  0.1587  0.2665
 4333TIP3    H134414   3.857   0.989  14.254 -1.3677  0.9139  0.6667
 4333TIP3    H234415   3.773   1.069  14.155  0.1656  0.9984 -0.6066
 4334TIP3   OH234416   5.176   1.829   3.019  0.1236 -0.7867  0.1731
 4334TIP3    H134417   5.216   1.914   3.035  1.8661 -1.7288  1.1066
 4334TIP3    H234418   5.232   1.788   2.953 -2.0508 -0.3591 -2.0741
 4335TIP3   OH234419   4.812   1.317   0.910  0.4724 -0.4655  0.1420
 4335TIP3    H134420   4.743   1.251   0.907 -0.2723  0.2257  1.1020
 4335TIP3    H234421   4.891   1.269   0.933  0.3251 -1.2757 -0.9948
 4336TIP3   OH234422   0.281   3.330  16.928  0.5386  0.0834 -0.3172
 4336TIP3    H134423   0.237   3.415  16.920  2.2501  0.9938 -0.6990
 4336TIP3    H234424   0.276   3.309  17.021  0.5450  0.8810 -0.1255
 4337TIP3   OH234425   0.214   3.117   4.439 -0.0549  0.0589 -0.5583
 4337TIP3    H134426   0.273   3.192   4.434 -0.0630  0.0726 -0.4399
 4337TIP3    H234427   0.255   3.057   4.500 -1.6557  1.4198  2.0452
 4338TIP3   OH234428   2.160   5.312  14.373  0.0999  0.6922 -0.3025
 4338TIP3    H134429   2.141   5.270  14.457 -1.1990  1.5463 -0.1438
 4338TIP3    H234430   2.124   5.400  14.381  0.2395  0.8949 -1.6417
 4339TIP3   OH234431   1.742   5.404   6.126 -0.1177 -0.5624 -0.3197
 4339TIP3    H134432   1.825   5.374   6.089  0.0623  0.6275 -0.9193
 4339TIP3    H234433   1.766   5.477   6.183 -0.8583  0.5942 -1.4570
 4340TIP3   OH234434   0.586   2.642  15.132 -0.0018 -0.6132 -0.4621
 4340TIP3    H134435   0.506   2.639  15.185  1.2232  1.4677  1.6952
 4340TIP3    H234436   0.645   2.578  15.173  0.1158 -0.7742 -0.8731
 4341TIP3   OH234437   1.819   2.459   5.374 -0.3110  0.3018 -0.0409
 4341TIP3    H134438   1.898   2.462   5.319 -0.8605  0.6581 -0.8270
 4341TIP3    H234439   1.851   2.476   5.463  0.3519  1.6736 -0.5143
 4342TIP3   OH234440   3.674   3.243  17.191  0.1228 -0.0894  0.3278
 4342TIP3    H134441   3.599   3.302  17.185  0.2394  0.0131 -0.1430
 4342TIP3    H234442   3.674   3.195  17.109  1.7387  1.3230 -0.5782
 4343TIP3   OH234443   5.688   5.596   1.780 -0.3868  0.0166  0.0603
 4343TIP3    H134444   5.714   5.510   1.746 -1.5531 -1.1611  1.9357
 4343TIP3    H234445   5.767   5.631   1.820  0.0084 -0.3483 -0.3856
 4344TIP3   OH234446   2.259   3.752   2.872 -0.0900  0.1687 -0.1693
 4344TIP3    H134447   2.347   3.791   2.872  0.5775 -1.2365  1.1611
 4344TIP3    H234448   2.202   3.822   2.906  0.6951  0.7583 -0.0391
 4345TIP3   OH234449   0.506   3.879   4.621  0.4920  0.0547  0.5284
 4345TIP3    H134450   0.480   3.951   4.563  0.2608  0.9422  1.7101
 4345TIP3    H234451   0.601   3.884   4.625  0.5047  0.0308  0.2955
 4346TIP3   OH234452   0.517   0.337  16.500 -0.7028 -0.3995 -0.4068
 4346TIP3    H134453   0.581   0.408  16.506 -0.9904 -0.0932 -0.8345
 4346TIP3    H234454   0.561   0.271  16.447 -0.2954 -0.7041  0.2970
 4347TIP3   OH234455   5.679   4.429   1.182 -0.0044  0.1683  0.0621
 4347TIP3    H134456   5.723   4.427   1.267 -0.6875  1.2612  0.4630
 4347TIP3    H234457   5.651   4.520   1.172 -1.6425 -0.3607 -0.4332
 4348TIP3   OH234458   1.566   1.534   5.665  0.1750  0.4520  0.1271
 4348TIP3    H134459   1.504   1.533   5.738 -1.1271  0.7012 -0.9471
 4348TIP3    H234460   1.616   1.453   5.675 -0.3065  0.2526  1.0190
 4349TIP3   OH234461   4.831   4.846  12.618 -0.4557 -0.3588  0.0370
 4349TIP3    H134462   4.860   4.790  12.546  1.5209  0.4090  0.1772
 4349TIP3    H234463   4.860   4.801  12.697  1.2399  0.8224  0.1488
 4350TIP3   OH234464   6.528   4.233  12.909  0.5984  0.5012 -0.0380
 4350TIP3    H134465   6.558   4.151  12.870  0.5735 -0.6512  2.1690
 4350TIP3    H234466   6.489   4.282  12.837  0.6645 -1.3975 -1.4298
 4351TIP3   OH234467   1.706   1.417  15.860  0.2875  0.0527  0.4961
 4351TIP3    H134468   1.634   1.371  15.903  1.0833 -1.0816  0.6638
 4351TIP3    H234469   1.745   1.470  15.929 -1.4051  2.0283  0.0195
 4352TIP3   OH234470   1.104   6.032   0.603 -0.8013  0.1158  0.0780
 4352TIP3    H134471   1.198   6.050   0.608 -0.6328 -0.4513 -0.9458
 4352TIP3    H234472   1.090   5.960   0.665 -0.8928  1.3723  1.5928
 4353TIP3   OH234473   4.554   2.314   1.636  0.1513  0.4000  0.2240
 4353TIP3    H134474   4.472   2.359   1.655 -0.6337 -0.6966 -0.4689
 4353TIP3    H234475   4.620   2.384   1.635 -0.9648  1.4769 -0.4140
 4354TIP3   OH234476   6.623   4.542  12.934  0.2810  0.0985  0.3849
 4354TIP3    H134477   6.570   4.524  12.857  1.2189 -0.0860 -0.2225
 4354TIP3    H234478   6.565   4.521  13.008 -1.4055  2.2874 -0.1690
 4355TIP3   OH234479   2.196   1.593   0.199  0.4292 -0.0891 -0.0606
 4355TIP3    H134480   2.260   1.572   0.268  1.2166 -0.3991 -0.8722
 4355TIP3    H234481   2.187   1.688   0.203 -0.7493 -0.2275  1.5251
 4356TIP3   OH234482   2.713   2.124   2.784 -0.1240  0.3314 -0.6103
 4356TIP3    H134483   2.809   2.132   2.790 -0.0629 -1.1824  1.7290
 4356TIP3    H234484   2.698   2.058   2.717  0.5268 -0.1930 -0.2476
 4357TIP3   OH234485   2.478   2.078  10.399 -0.2922  0.2528  0.5435
 4357TIP3    H134486   2.544   2.145  10.380  0.2942  0.1609  2.1167
 4357TIP3    H234487   2.526   2.010  10.446 -1.3632 -0.1260  1.1237
 4358TIP3   OH234488   2.425   2.137  15.281  0.1034 -0.1410  0.1107
 4358TIP3    H134489   2.454   2.218  15.323 -1.1285  0.7210 -0.6086
 4358TIP3    H234490   2.369   2.095  15.346 -1.2940  0.8771 -0.3879
 4359TIP3   OH234491   3.559   3.963   5.038 -0.5565  0.2238 -0.4330
 4359TIP3    H134492   3.652   3.941   5.035 -0.5269  0.4063 -1.1339
 4359TIP3    H234493   3.514   3.882   5.013 -0.4587  0.7970 -2.7313
 4360TIP3   OH234494   6.623   0.448   6.291  0.5490 -0.2328 -0.2210
 4360TIP3    H134495   6.705   0.472   6.249  0.4065  1.4635  0.3885
 4360TIP3    H234496   6.649   0.391   6.364  1.3698  1.3329  0.7762
 4361TIP3   OH234497   3.238   4.209   0.588  0.2129 -0.2019  0.3605
 4361TIP3    H134498   3.277   4.236   0.671 -1.1487  1.0710  0.6277
 4361TIP3    H234499   3.166   4.270   0.574 -0.7301 -1.5182 -0.8516
 4362TIP3   OH234500   1.825   2.823  15.956  0.2208 -0.4188  0.2479
 4362TIP3    H134501   1.730   2.835  15.950  0.2914 -0.1549 -0.5286
 4362TIP3    H234502   1.843   2.750  15.898  0.5918  0.1124 -0.3140
 4363TIP3   OH234503   3.657   0.922  14.779  0.3016 -0.7421  0.5052
 4363TIP3    H134504   3.601   0.893  14.851 -0.8928 -1.1836 -0.5791
 4363TIP3    H234505   3.724   0.854  14.772  2.0435  0.5723  2.8613
 4364TIP3   OH234506   6.459   3.989  15.121  0.4537  0.2261 -0.3463
 4364TIP3    H134507   6.504   3.962  15.041  0.7137 -0.2486 -0.0469
 4364TIP3    H234508   6.503   4.071  15.146  1.6529 -0.5948  0.3257
 4365TIP3   OH234509   3.019   2.165   1.059  0.4610  0.1420  0.5485
 4365TIP3    H134510   2.997   2.255   1.083  2.4869  0.7192  0.4699
 4365TIP3    H234511   3.105   2.172   1.018  0.7954 -1.8725  0.8143
 4366TIP3   OH234512   1.464   3.729   4.070  0.4975 -0.5743 -0.1433
 4366TIP3    H134513   1.536   3.757   4.014 -0.4197 -0.0283 -1.0766
 4366TIP3    H234514   1.389   3.782   4.042 -0.3628 -1.3866  0.5500
 4367TIP3   OH234515   4.378   0.596   3.019 -0.0943  0.2477 -0.9141
 4367TIP3    H134516   4.371   0.680   2.973  0.0843  0.3794 -0.7041
 4367TIP3    H234517   4.466   0.565   2.999 -0.0016  0.3236 -0.6356
 4368TIP3   OH234518   0.122   4.974   2.272 -0.5379 -0.1594 -0.3536
 4368TIP3    H134519   0.026   4.977   2.280 -0.5638 -2.4069  1.0599
 4368TIP3    H234520   0.153   4.992   2.361  0.2201 -1.7098 -0.2679
 4369TIP3   OH234521   0.230   3.369  16.313 -0.2957  0.2115  0.1780
 4369TIP3    H134522   0.255   3.460  16.334 -1.1383  0.7984 -1.2587
 4369TIP3    H234523   0.146   3.356  16.357 -0.3468  0.2530  0.0937
 4370TIP3   OH234524   2.055   6.110  16.498 -0.3730  1.0075 -0.1293
 4370TIP3    H134525   2.041   6.188  16.444 -2.2332  1.3810  0.8113
 4370TIP3    H234526   1.988   6.115  16.566  1.6479  0.3745  2.0406
 4371TIP3   OH234527   6.533   4.670   0.720 -0.4850  0.5210  0.1570
 4371TIP3    H134528   6.502   4.759   0.736 -0.4525  0.6364 -0.4118
 4371TIP3    H234529   6.463   4.630   0.669  0.7177  1.0961 -2.0377
 4372TIP3   OH234530   3.188   5.167   1.648  0.3086  0.1574 -0.2181
 4372TIP3    H134531   3.281   5.189   1.651  0.0392  1.4424 -0.6663
 4372TIP3    H234532   3.184   5.073   1.670  1.7359 -0.0146 -0.6378
 4373TIP3   OH234533   3.293   5.738  14.055  0.2318  0.3227 -0.4994
 4373TIP3    H134534   3.364   5.679  14.030  1.0329  1.5041 -1.0679
 4373TIP3    H234535   3.247   5.758  13.973  0.8559  1.6163 -0.5525
 4374TIP3   OH234536   4.629   2.817   0.174 -0.0165  0.5898  0.2480
 4374TIP3    H134537   4.684   2.796   0.099 -0.0376 -1.7310  0.8095
 4374TIP3    H234538   4.676   2.886   0.221  0.3918  1.4872 -1.4234
 4375TIP3   OH234539   6.748   4.414  11.341 -0.8774  0.2369 -0.0826
 4375TIP3    H134540   6.761   4.509  11.340 -1.6350  0.3763  1.4328
 4375TIP3    H234541   6.683   4.399  11.409  2.0235 -1.7189  2.4825
 4376TIP3   OH234542   3.755   2.279   4.838 -0.1104  0.0182 -0.0886
 4376TIP3    H134543   3.825   2.278   4.773 -0.3814  1.3964 -0.4457
 4376TIP3    H234544   3.744   2.372   4.859 -1.6608 -0.1953  0.1409
 4377TIP3   OH234545   0.890   1.837  11.652  0.3832  0.0938  0.3239
 4377TIP3    H134546   0.899   1.890  11.573 -0.0364  1.1161  0.9450
 4377TIP3    H234547   0.905   1.898  11.724  1.9871 -1.0681  1.0304
 4378TIP3   OH234548   5.175   2.868  16.755  0.2056  0.0214  0.1629
 4378TIP3    H134549   5.245   2.825  16.803  0.4558 -0.2660 -0.4640
 4378TIP3    H234550   5.200   2.862  16.663 -0.0684  0.9395  0.0178
 4379TIP3   OH234551   2.807   3.445   3.798 -0.4753  0.1849  0.0225
 4379TIP3    H134552   2.716   3.475   3.794 -1.3327 -2.2220 -0.2336
 4379TIP3    H234553   2.855   3.504   3.739 -1.7359  1.8129  0.5460
 4380TIP3   OH234554   6.116   5.600  14.904 -0.0861 -0.1669 -0.6250
 4380TIP3    H134555   6.073   5.564  14.981  1.3189 -0.6340 -0.0341
 4380TIP3    H234556   6.094   5.693  14.905  0.1831 -0.1052  0.5258
 4381TIP3   OH234557   0.883   5.710  17.032 -0.0357  0.2863  0.7203
 4381TIP3    H134558   0.864   5.798  17.001  0.3886  0.2597  0.3779
 4381TIP3    H234559   0.816   5.655  16.989 -1.4839  0.6756  2.3915
 4382TIP3   OH234560   0.653   1.634  11.587 -0.2444  0.0890 -0.1427
 4382TIP3    H134561   0.621   1.724  11.587 -2.1067 -0.5144 -1.6819
 4382TIP3    H234562   0.678   1.617  11.678 -4.0389  0.7786  1.2045
 4383TIP3   OH234563   4.702   5.788   1.786  0.0829  0.3438  0.3717
 4383TIP3    H134564   4.669   5.770   1.874 -1.2325 -0.4365 -0.2549
 4383TIP3    H234565   4.784   5.739   1.780 -0.6811 -1.0104  0.5922
 4384TIP3   OH234566   5.333   4.675  10.892 -0.4522 -0.0113  0.3674
 4384TIP3    H134567   5.318   4.591  10.936  0.0435 -1.2878 -1.7697
 4384TIP3    H234568   5.426   4.693  10.905 -0.5210  0.1285  0.6752
 4385TIP3   OH234569   5.973   0.518  12.372  0.0336 -0.4169 -0.2220
 4385TIP3    H134570   5.945   0.601  12.335  1.0054 -0.7580 -1.8035
 4385TIP3    H234571   5.901   0.491  12.429 -1.6018  0.0543 -2.0006
 4386TIP3   OH234572   5.697   1.459  16.893  0.3504  0.8084  0.1327
 4386TIP3    H134573   5.660   1.478  16.980 -0.2910  2.4035 -0.4572
 4386TIP3    H234574   5.683   1.539  16.843  0.5788 -0.1410 -1.5131
 4387TIP3   OH234575   2.374   0.923   1.076 -0.0402 -0.0432  0.2944
 4387TIP3    H134576   2.335   0.929   1.163  0.1309 -1.8982  0.5584
 4387TIP3    H234577   2.305   0.886   1.021 -0.0318  0.7766 -0.2746
 4388TIP3   OH234578   0.419   3.977   0.307 -0.2161  0.2716 -0.4241
 4388TIP3    H134579   0.425   3.905   0.370  3.0411 -0.3746 -1.2715
 4388TIP3    H234580   0.456   4.052   0.353 -1.2904  0.8004 -0.3846
 4389TIP3   OH234581   6.272   6.277   5.251  0.3975 -0.5633  0.1215
 4389TIP3    H134582   6.272   6.190   5.291 -0.4469 -1.3624 -1.5586
 4389TIP3    H234583   6.331   6.269   5.176  0.5050  0.4024  0.0924
 4390TIP3   OH234584   0.506   2.728  14.630 -0.6318  0.3017 -0.8314
 4390TIP3    H134585   0.528   2.674  14.706  1.8254  0.7597 -1.1241
 4390TIP3    H234586   0.412   2.745  14.639 -0.4935  0.1376  1.9610
 4391TIP3   OH234587   2.176   1.253   3.068  0.5398  0.1480 -0.1500
 4391TIP3    H134588   2.201   1.193   2.998  0.7695 -1.2904  1.0980
 4391TIP3    H234589   2.170   1.197   3.146 -0.0588  1.6204  0.9052
 4392TIP3   OH234590   0.764   6.018  13.226 -0.4984  0.9777 -0.3360
 4392TIP3    H134591   0.770   6.072  13.147 -1.4941 -0.0034 -1.1055
 4392TIP3    H234592   0.772   5.928  13.194 -0.1593  0.5985  0.7774
 4393TIP3   OH234593   6.330   4.618  11.288 -0.4437 -0.0716  0.4340
 4393TIP3    H134594   6.320   4.526  11.311 -1.1938  0.1183  0.9200
 4393TIP3    H234595   6.313   4.665  11.370 -0.3113  0.5092  0.1372
 4394TIP3   OH234596   0.178   0.447  11.737 -0.0702 -0.4282  0.5902
 4394TIP3    H134597   0.140   0.387  11.673  2.5510 -0.4431 -1.0521
 4394TIP3    H234598   0.187   0.394  11.816 -0.1990 -1.4260 -0.0490
 4395TIP3   OH234599   5.490   4.172   2.597  0.9403  0.3389 -0.3447
 4395TIP3    H134600   5.463   4.261   2.621 -0.0650 -0.0649  0.0337
 4395TIP3    H234601   5.414   4.134   2.554  0.7350 -0.9420  1.0753
 4396TIP3   OH234602   5.343   2.912  13.953  0.2397  0.2440 -0.4229
 4396TIP3    H134603   5.396   2.909  14.032 -0.1764  3.4122  0.1290
 4396TIP3    H234604   5.276   2.978  13.972 -0.8892 -0.0935 -2.8362
 4397TIP3   OH234605   1.449   2.641  17.203  0.0658  0.9298  0.0666
 4397TIP3    H134606   1.441   2.645  17.108 -0.1358  3.6559  0.0967
 4397TIP3    H234607   1.358   2.638  17.235  0.1340 -2.4452  0.2384
 4398TIP3   OH234608   1.287   3.815  10.281 -0.6200 -0.4457 -0.1337
 4398TIP3    H134609   1.277   3.909  10.265  0.3213  0.1508  2.2589
 4398TIP3    H234610   1.379   3.797  10.264 -1.0583 -1.2762 -1.8460
 4399TIP3   OH234611   4.458   2.883  14.942  0.0563 -0.2075 -0.3443
 4399TIP3    H134612   4.460   2.857  15.034 -0.5529 -0.6255 -0.4410
 4399TIP3    H234613   4.547   2.865  14.910  0.1727 -0.3911  0.0712
 4400TIP3   OH234614   4.513   4.230   2.160  0.2722  0.6124 -0.3604
 4400TIP3    H134615   4.591   4.264   2.117 -0.7740  2.0617 -1.1872
 4400TIP3    H234616   4.440   4.267   2.110 -0.9735  0.7141  1.4489
 4401TIP3   OH234617   0.757   3.997   3.544  0.3054  0.1262  0.7654
 4401TIP3    H134618   0.851   4.011   3.556  0.5390 -0.3409 -0.3551
 4401TIP3    H234619   0.736   3.922   3.600  1.4666 -2.3788 -1.9034
 4402TIP3   OH234620   2.650   6.590   6.460  0.1534 -0.0387 -0.4544
 4402TIP3    H134621   2.738   6.595   6.423 -0.2315  0.7683 -1.2996
 4402TIP3    H234622   2.639   6.498   6.484  2.1105  0.2253  1.9192
 4403TIP3   OH234623   4.140   3.914  14.232 -0.0768 -0.4042  0.2502
 4403TIP3    H134624   4.204   3.860  14.279  0.2298  0.9886  1.4801
 4403TIP3    H234625   4.068   3.923  14.294  0.4432  1.6748  0.6060
 4404TIP3   OH234626   0.146   2.877   4.058 -0.3852 -0.1641  1.1203
 4404TIP3    H134627   0.085   2.832   3.999  0.8347 -0.6384  0.1759
 4404TIP3    H234628   0.174   2.955   4.008 -1.3194  0.8619  2.1380
 4405TIP3   OH234629   2.526   2.818  15.147  0.2288 -0.3908  0.3606
 4405TIP3    H134630   2.537   2.874  15.224  1.3463  0.5537 -0.4686
 4405TIP3    H234631   2.476   2.871  15.085 -0.6398 -1.1384  0.3926
 4406TIP3   OH234632   5.683   4.505   2.772  0.0026 -0.9379 -0.7141
 4406TIP3    H134633   5.733   4.446   2.715 -1.6752 -1.5797 -1.5752
 4406TIP3    H234634   5.712   4.481   2.860  0.4328 -2.0353 -1.1245
 4407TIP3   OH234635   6.181   4.903  11.860 -0.5064 -0.3081  0.3429
 4407TIP3    H134636   6.185   4.997  11.843 -0.6406 -0.7063 -2.3447
 4407TIP3    H234637   6.273   4.877  11.872 -0.3988  0.0508  0.3060
 4408TIP3   OH234638   3.575   0.748  13.723 -0.3118  0.8415 -0.8801
 4408TIP3    H134639   3.633   0.696  13.778 -0.1264  1.3561 -0.5806
 4408TIP3    H234640   3.521   0.797  13.784 -2.9996 -1.6193 -1.0629
 4409TIP3   OH234641   0.695   3.801   4.393  0.2675 -0.0340  0.5049
 4409TIP3    H134642   0.755   3.826   4.463  1.7129 -1.2015 -0.2666
 4409TIP3    H234643   0.624   3.754   4.438  0.4042  0.5209  1.3271
 4410TIP3   OH234644   2.545   3.912  13.160 -0.0683  0.1898  0.1801
 4410TIP3    H134645   2.627   3.862  13.169  0.1332  0.7122  1.3096
 4410TIP3    H234646   2.572   4.003  13.168 -0.8143  0.3494  0.8725
 4411TIP3   OH234647   1.820   4.738  14.627  0.0047 -0.1506  0.2656
 4411TIP3    H134648   1.837   4.826  14.658 -0.2550 -0.4994  1.4374
 4411TIP3    H234649   1.892   4.719  14.567  1.8834 -0.3076  2.4310
 4412TIP3   OH234650   3.242   0.255  11.514  0.2273 -0.2879  0.0786
 4412TIP3    H134651   3.181   0.327  11.520 -1.2762 -1.3915 -1.1761
 4412TIP3    H234652   3.297   0.275  11.438  1.1648  0.4792  0.9332
 4413TIP3   OH234653   3.315   4.790  15.302  0.0126 -0.5548  0.2097
 4413TIP3    H134654   3.220   4.801  15.300  0.0316 -0.3578  0.3323
 4413TIP3    H234655   3.337   4.788  15.395  0.3905  1.8199  0.2410
 4414TIP3   OH234656   6.525   2.308   6.031  0.1164 -0.6848 -0.4118
 4414TIP3    H134657   6.504   2.305   6.124  1.2822  0.8095 -0.0542
 4414TIP3    H234658   6.615   2.277   6.026  0.3106 -0.0708 -0.9284
 4415TIP3   OH234659   6.496   5.625  15.692  0.4647 -0.0534  0.1666
 4415TIP3    H134660   6.459   5.705  15.730 -0.7144  0.9830 -2.9014
 4415TIP3    H234661   6.428   5.559  15.704  1.0908 -0.4571  1.9096
 4416TIP3   OH234662   4.879   1.866   3.299  0.5670 -0.2013  0.4172
 4416TIP3    H134663   4.811   1.807   3.332 -1.6260  1.6943 -0.4125
 4416TIP3    H234664   4.907   1.826   3.216 -0.0184 -0.6826  0.4418
 4417TIP3   OH234665   2.026   6.155   4.069 -0.4446 -0.2378 -0.7203
 4417TIP3    H134666   2.030   6.074   4.120  0.0696  0.0665 -0.2593
 4417TIP3    H234667   1.953   6.204   4.105 -0.9477 -0.6224 -1.2018
 4418TIP3   OH234668   4.476   5.700  15.617 -0.3682  0.1582 -0.7070
 4418TIP3    H134669   4.479   5.610  15.650  0.8810  0.0038 -1.1744
 4418TIP3    H234670   4.402   5.700  15.556 -0.6951 -0.4191 -0.3216
 4419TIP3   OH234671   2.090   5.244   5.494  0.7035 -0.2090  0.5245
 4419TIP3    H134672   2.031   5.316   5.474  1.4891 -0.1504 -1.8674
 4419TIP3    H234673   2.176   5.286   5.505  1.3087 -0.7804 -1.6333
 4420TIP3   OH234674   0.353   3.140   3.704  0.2379  0.0625  0.2238
 4420TIP3    H134675   0.263   3.122   3.677  0.9655 -2.0932 -1.0175
 4420TIP3    H234676   0.359   3.105   3.793  0.1184 -0.8392 -0.1085
 4421TIP3   OH234677   6.678   1.247  15.565  0.3067  0.2630 -0.3365
 4421TIP3    H134678   6.755   1.301  15.580 -0.1872  0.7910  0.3554
 4421TIP3    H234679   6.651   1.218  15.652 -0.3551  0.2001 -0.5502
 4422TIP3   OH234680   2.838   4.821   3.710 -0.1646  0.1817 -0.1055
 4422TIP3    H134681   2.882   4.790   3.789 -1.0683 -1.3890 -0.1791
 4422TIP3    H234682   2.909   4.833   3.647  0.5479  1.3103  0.8528
 4423TIP3   OH234683   4.131   3.012   5.276 -0.7634 -0.6921 -0.0043
 4423TIP3    H134684   4.110   2.927   5.237 -0.6396 -1.1983  0.9896
 4423TIP3    H234685   4.065   3.024   5.344  0.2677 -0.8451  1.0624
 4424TIP3   OH234686   3.390   1.683  13.383 -0.5635 -0.1952  0.3710
 4424TIP3    H134687   3.390   1.776  13.404 -0.6658 -0.1830  0.3174
 4424TIP3    H234688   3.376   1.640  13.468  1.4166 -0.2415  0.7152
 4425TIP3   OH234689   1.241   0.022  15.197  0.4797 -0.2647  0.0197
 4425TIP3    H134690   1.289  -0.021  15.127  2.0027 -0.3603  1.0941
 4425TIP3    H234691   1.308   0.057  15.255 -0.7263 -0.4698  1.6146
 4426TIP3   OH234692   3.531   0.939  10.472 -0.4205 -0.4113 -0.5327
 4426TIP3    H134693   3.556   0.943  10.565  0.7706 -1.5918 -0.7708
 4426TIP3    H234694   3.468   1.009  10.461  0.2634  0.4742  0.9251
 4427TIP3   OH234695   3.421   4.325  12.943 -0.5905  0.1617  0.5237
 4427TIP3    H134696   3.485   4.384  12.903 -1.6285 -0.8177 -2.9114
 4427TIP3    H234697   3.464   4.240  12.943 -0.9883 -0.0412  0.5236
 4428TIP3   OH234698   2.637   6.591  16.834 -0.0383  0.2916 -0.3472
 4428TIP3    H134699   2.545   6.589  16.860  0.4250 -0.6685  1.3934
 4428TIP3    H234700   2.684   6.617  16.914  1.6560 -4.4017  0.4786
 4429TIP3   OH234701   3.558   4.365  14.549  0.4086  0.1940 -0.4400
 4429TIP3    H134702   3.623   4.297  14.532  0.3949  0.2887 -0.8642
 4429TIP3    H234703   3.566   4.382  14.643  0.8035  0.0096 -0.4371
 4430TIP3   OH234704   1.929   2.428   0.658 -0.2542  0.3506 -0.8380
 4430TIP3    H134705   1.875   2.504   0.635  0.9204  1.5211  0.0654
 4430TIP3    H234706   2.002   2.431   0.595 -0.4934 -0.3730 -1.1542
 4431TIP3   OH234707   4.846   4.554   1.433  0.1707  0.3214  0.5886
 4431TIP3    H134708   4.922   4.612   1.432  0.3067  0.1527 -0.8295
 4431TIP3    H234709   4.790   4.585   1.362  0.4898 -1.5553 -0.5476
 4432TIP3   OH234710   6.254   1.523   5.654 -0.3393  0.2239  0.5256
 4432TIP3    H134711   6.329   1.465   5.663 -1.3642 -1.0997  0.7650
 4432TIP3    H234712   6.195   1.499   5.725 -1.4295  0.5715 -0.2289
 4433TIP3   OH234713   6.341   5.814  15.127  0.4231  0.0462 -0.7197
 4433TIP3    H134714   6.276   5.790  15.192 -0.3036 -0.9789 -1.7796
 4433TIP3    H234715   6.357   5.733  15.078  2.1608  0.3753 -0.7897
 4434TIP3   OH234716   5.746   5.706   4.930 -0.6652  0.4003  0.0893
 4434TIP3    H134717   5.737   5.707   4.835 -0.5454 -0.4146  0.0571
 4434TIP3    H234718   5.660   5.732   4.963 -0.4946  1.4211 -0.2358
 4435TIP3   OH234719   2.730   4.133   1.164 -0.3670  0.7375  0.1193
 4435TIP3    H134720   2.640   4.157   1.143 -0.9872  0.7837  2.4686
 4435TIP3    H234721   2.725   4.105   1.256  1.4583 -2.2330 -0.5595
 4436TIP3   OH234722   5.714   3.707   4.343 -0.2393  0.1962  0.2650
 4436TIP3    H134723   5.775   3.780   4.357  0.7226 -0.1784 -1.5515
 4436TIP3    H234724   5.681   3.721   4.254  3.0599 -3.6153 -1.9008
 4437TIP3   OH234725   1.973   3.321   4.707 -0.1944  0.8096  0.0127
 4437TIP3    H134726   2.016   3.388   4.654 -0.0983  0.2965 -0.5734
 4437TIP3    H234727   1.912   3.278   4.646 -2.0116  1.9325  0.9680
 4438TIP3   OH234728   4.672   1.011   6.170  0.3419 -0.4657 -0.3626
 4438TIP3    H134729   4.731   0.949   6.129  1.8373 -0.4702  1.6197
 4438TIP3    H234730   4.703   1.097   6.141 -0.0258 -0.5364 -0.9776
 4439TIP3   OH234731   1.179   3.892  10.982  0.1467 -0.5470  0.0861
 4439TIP3    H134732   1.158   3.822  10.921 -0.3827  0.9009 -1.4684
 4439TIP3    H234733   1.271   3.879  11.004 -0.1610 -2.1869  0.4956
 4440TIP3   OH234734   5.052   5.352  11.021 -0.1901  0.0966 -0.4548
 4440TIP3    H134735   5.049   5.307  10.937 -1.8485 -0.8001  0.0391
 4440TIP3    H234736   5.090   5.287  11.081  1.0269  0.7441 -0.5007
 4441TIP3   OH234737   1.556   5.019  15.931  0.3141  0.0223 -0.1625
 4441TIP3    H134738   1.568   5.113  15.946  2.2337 -0.1776 -0.2172
 4441TIP3    H234739   1.546   4.982  16.019  0.2769  0.1872 -0.0966
 4442TIP3   OH234740   2.817   0.444   1.344 -0.0327  0.0755 -0.4815
 4442TIP3    H134741   2.881   0.375   1.362 -0.2177  0.1268  0.4196
 4442TIP3    H234742   2.865   0.526   1.362 -0.1806  0.1346 -0.3562
 4443TIP3   OH234743   4.071   4.295   1.232  0.3326  0.5973  0.6851
 4443TIP3    H134744   4.040   4.371   1.183  1.0933 -0.7246 -2.0058
 4443TIP3    H234745   4.126   4.332   1.301 -0.5387  2.5337  0.3976
 4444TIP3   OH234746   3.407   5.004   0.035 -0.0669  0.3940  0.5989
 4444TIP3    H134747   3.415   4.912   0.061 -0.3756 -0.5002 -2.1374
 4444TIP3    H234748   3.318   5.012   0.001  0.4598  1.2404 -0.6740
 4445TIP3   OH234749   6.450   0.491   1.965  0.3408 -0.5705  0.9153
 4445TIP3    H134750   6.489   0.462   2.047  1.2577  1.5358  1.2780
 4445TIP3    H234751   6.453   0.587   1.969  1.5661 -0.3834 -2.0730
 4446TIP3   OH234752   3.928   4.713   5.620 -0.4369 -0.0924 -0.0455
 4446TIP3    H134753   3.952   4.625   5.648 -0.5982 -0.0264  0.3124
 4446TIP3    H234754   4.011   4.760   5.613 -0.4834  0.3889  2.0332
 4447TIP3   OH234755   1.554   3.380   5.473 -0.2849  0.5874 -0.0390
 4447TIP3    H134756   1.467   3.366   5.510 -0.3060 -1.3987 -0.7115
 4447TIP3    H234757   1.572   3.300   5.423  0.3033  2.4960 -3.1925
 4448TIP3   OH234758   0.542   3.500   2.277 -0.3396  0.7297  0.3440
 4448TIP3    H134759   0.453   3.501   2.240 -0.1936  4.1934 -0.2280
 4448TIP3    H234760   0.599   3.513   2.201  0.6712 -0.7428  0.8050
 4449TIP3   OH234761   1.477   3.424   5.906 -0.3136  0.0862 -0.4213
 4449TIP3    H134762   1.547   3.488   5.891 -0.2182 -0.0099 -0.3884
 4449TIP3    H234763   1.438   3.451   5.989  0.4140 -0.5179  0.1275
 4450TIP3   OH234764   6.276   3.088  16.753  0.2326  0.5171  0.1576
 4450TIP3    H134765   6.209   3.128  16.809  0.5511 -1.3596  2.0246
 4450TIP3    H234766   6.229   3.025  16.700 -0.2601  3.0574 -2.7465
 4451TIP3   OH234767   0.678   4.492   3.074 -0.1003 -0.0673 -0.0870
 4451TIP3    H134768   0.764   4.473   3.037  0.4893 -0.4408  1.4119
 4451TIP3    H234769   0.616   4.453   3.012  0.7974  0.1542 -1.1480
 4452TIP3   OH234770   3.706   3.091   5.381  0.1814  0.3494  0.3882
 4452TIP3    H134771   3.796   3.115   5.403  1.0301 -1.8202 -0.5158
 4452TIP3    H234772   3.712   3.055   5.293 -1.4599 -0.4431  0.5733
 4453TIP3   OH234773   2.969   4.247   4.756 -0.4558  0.0122 -0.0423
 4453TIP3    H134774   3.008   4.167   4.722 -0.3142 -0.3053  0.8430
 4453TIP3    H234775   3.010   4.259   4.842 -0.3801  1.1078 -0.2242
 4454TIP3   OH234776   3.011   0.383  11.985 -0.1260  0.2850 -0.1862
 4454TIP3    H134777   2.927   0.388  11.938 -1.1506 -0.1189  1.4912
 4454TIP3    H234778   3.038   0.474  11.996 -0.7191  0.4665 -0.1654
 4455TIP3   OH234779   5.009   4.389   4.010 -0.3165  0.8337  0.0166
 4455TIP3    H134780   5.042   4.337   4.083 -1.5894 -0.3050 -0.1802
 4455TIP3    H234781   5.040   4.478   4.028  1.6879  0.1031  0.5013
 4456TIP3   OH234782   2.563   3.243   0.365 -0.1041  0.0006  0.1194
 4456TIP3    H134783   2.544   3.151   0.348 -0.4446  0.0721  0.1033
 4456TIP3    H234784   2.590   3.278   0.280 -2.4953  0.5296 -0.5253
 4457TIP3   OH234785   1.859   6.520  15.116  0.0187 -0.1726  0.5487
 4457TIP3    H134786   1.843   6.590  15.052 -0.0666 -1.2637 -0.6726
 4457TIP3    H234787   1.953   6.523  15.133 -0.2150  1.3032  1.8252
 4458TIP3   OH234788   1.445   0.996   2.472  0.7237 -0.4795  0.0729
 4458TIP3    H134789   1.445   0.912   2.426 -0.6143 -0.3169 -0.2694
 4458TIP3    H234790   1.434   0.974   2.564 -1.4691 -0.6524 -0.1806
 4459TIP3   OH234791   0.722   2.612  16.947 -0.1897  0.2805  0.1183
 4459TIP3    H134792   0.644   2.653  16.911 -0.1319  0.3425  0.0617
 4459TIP3    H234793   0.698   2.521  16.961  0.1158 -0.0060 -1.0809
 4460TIP3   OH234794   6.421   3.666  11.669  0.1628  0.2519  0.6578
 4460TIP3    H134795   6.420   3.574  11.642  0.8741  0.6571 -0.8514
 4460TIP3    H234796   6.446   3.714  11.590  1.6373  1.5895  1.8748
 4461TIP3   OH234797   4.234   2.276  15.981  0.1095  0.1479  0.1150
 4461TIP3    H134798   4.203   2.349  15.927  1.4708  0.3252 -0.4581
 4461TIP3    H234799   4.327   2.267  15.959  0.2306 -1.0421  1.0040
 4462TIP3   OH234800   5.172   4.967   5.861 -0.1363  0.3086  0.8221
 4462TIP3    H134801   5.197   5.060   5.863 -1.9883  0.9310 -1.1066
 4462TIP3    H234802   5.087   4.964   5.905 -0.4820 -0.3310  0.1231
 4463TIP3   OH234803   2.766   0.151   0.438 -0.1282  0.1845  0.3102
 4463TIP3    H134804   2.828   0.127   0.369  0.3995 -0.9630  1.1539
 4463TIP3    H234805   2.810   0.222   0.486  0.1942 -0.0807  0.4143
 4464TIP3   OH234806   1.927   2.995   0.403 -0.1700  0.7046  0.5498
 4464TIP3    H134807   1.838   3.026   0.391 -0.6307 -1.2119 -1.4099
 4464TIP3    H234808   1.918   2.915   0.455  0.0074 -1.2120 -2.1977
 4465TIP3   OH234809   1.005   3.520  11.306 -1.0831 -0.2177  0.2137
 4465TIP3    H134810   1.044   3.596  11.262  1.6341 -0.1113  2.5088
 4465TIP3    H234811   0.937   3.558  11.362 -1.0491  0.2698 -0.0653
 4466TIP3   OH234812   0.793   4.765   3.944  0.0514  0.0622 -0.0836
 4466TIP3    H134813   0.781   4.703   4.016 -1.3036 -0.1602 -0.4699
 4466TIP3    H234814   0.801   4.710   3.866  0.2739  0.3408 -0.2600
 4467TIP3   OH234815   2.993   5.706  11.954  0.1750  0.2207 -0.4787
 4467TIP3    H134816   3.056   5.766  11.995 -0.0735  0.6946 -0.7727
 4467TIP3    H234817   3.017   5.620  11.987 -0.2457  0.6235  0.9809
 4468TIP3   OH234818   3.274   1.713  16.691 -0.5115 -0.1406  0.4125
 4468TIP3    H134819   3.321   1.796  16.686 -0.6748 -0.0908 -0.3309
 4468TIP3    H234820   3.301   1.676  16.775 -1.8084  1.4709  1.5950
 4469TIP3   OH234821   6.440   0.460   4.746  0.3831  0.4167 -0.2436
 4469TIP3    H134822   6.430   0.555   4.741 -0.6062  0.3457  0.1999
 4469TIP3    H234823   6.418   0.438   4.836 -1.1430 -0.4194 -0.7900
 4470TIP3   OH234824   5.694   1.644  15.814  0.2159  0.1893 -0.2076
 4470TIP3    H134825   5.600   1.629  15.823  0.3331 -0.4700 -0.0542
 4470TIP3    H234826   5.734   1.586  15.879  0.6453  1.8832  1.1212
 4471TIP3   OH234827   0.761   4.041  11.570  0.3814  0.6405  0.6148
 4471TIP3    H134828   0.837   4.100  11.575 -1.1004  2.8254 -0.8204
 4471TIP3    H234829   0.722   4.059  11.485 -2.6130  0.7533  1.8815
 4472TIP3   OH234830   1.322   5.417   2.585 -0.0284  0.0756  0.0491
 4472TIP3    H134831   1.288   5.330   2.564 -1.7075  0.7063  0.0231
 4472TIP3    H234832   1.249   5.476   2.568  0.8228  1.4048  0.8630
 4473TIP3   OH234833   5.475   6.628   4.979 -0.2865 -0.5860 -0.2291
 4473TIP3    H134834   5.394   6.607   4.932 -0.2614 -2.3782  0.4464
 4473TIP3    H234835   5.534   6.556   4.958  0.6271 -0.0480  0.4321
 4474TIP3   OH234836   0.962   4.302  13.654  0.2868  0.1259 -0.4074
 4474TIP3    H134837   1.043   4.332  13.613 -0.5963  1.4020 -1.2909
 4474TIP3    H234838   0.904   4.280  13.580 -0.7010  0.7306  0.1592
 4475TIP3   OH234839   1.810   1.622  17.097 -0.0935  0.2198  0.0334
 4475TIP3    H134840   1.734   1.681  17.092  0.7092  1.2628 -0.0454
 4475TIP3    H234841   1.873   1.668  17.152  1.0413  0.0086 -1.0438
 4476TIP3   OH234842   2.142   4.789  11.936 -0.2217 -0.1269  0.1140
 4476TIP3    H134843   2.183   4.796  12.022 -1.6795 -3.4594  1.2509
 4476TIP3    H234844   2.177   4.707  11.900  0.6994  1.3966 -2.7583
 4477TIP3   OH234845   1.907   4.698  10.918 -0.5514  0.1941 -0.3861
 4477TIP3    H134846   1.995   4.736  10.925 -0.3214 -0.3615 -0.2637
 4477TIP3    H234847   1.911   4.641  10.842 -1.0021  0.6787 -0.7834
 4478TIP3   OH234848   3.554   1.621   0.861  0.0363  0.0936  0.1547
 4478TIP3    H134849   3.638   1.583   0.887 -0.6700  0.6094  3.6056
 4478TIP3    H234850   3.548   1.702   0.910 -2.4066  0.1828 -0.1758
 4479TIP3   OH234851   2.312   0.332  13.245 -0.0752  0.2138 -0.4526
 4479TIP3    H134852   2.313   0.389  13.322  0.7196  0.2849 -0.5051
 4479TIP3    H234853   2.246   0.266  13.264 -0.6072  0.8298 -0.1478
 4480TIP3   OH234854   5.349   4.863   0.423  0.3869 -0.8791  0.3665
 4480TIP3    H134855   5.298   4.815   0.358 -1.0970  1.5254 -0.3601
 4480TIP3    H234856   5.284   4.898   0.484  1.3200  0.6273  0.5515
 4481TIP3   OH234857   3.448   5.116  15.348 -0.1684 -0.1838  0.7004
 4481TIP3    H134858   3.510   5.067  15.401 -0.1988 -0.9451  0.0506
 4481TIP3    H234859   3.479   5.207  15.354  0.5753 -0.4442  0.9837
 4482TIP3   OH234860   4.950   4.505   1.935 -0.5781  0.1197 -0.2698
 4482TIP3    H134861   4.954   4.431   1.995 -0.4362 -0.2807 -0.7674
 4482TIP3    H234862   4.929   4.466   1.850 -0.1668  0.6106 -0.6024
 4483TIP3   OH234863   3.052   5.996  13.910 -0.0565  0.0745 -0.0157
 4483TIP3    H134864   2.963   5.967  13.892 -0.7894  1.2140  1.5621
 4483TIP3    H234865   3.043   6.087  13.936  1.4707 -0.0543  1.1135
 4484TIP3   OH234866   6.653   1.854  11.689 -0.1513  0.0628 -0.3877
 4484TIP3    H134867   6.714   1.905  11.636 -1.4580  0.2139 -1.7995
 4484TIP3    H234868   6.596   1.919  11.729  0.1765 -0.1196  0.3930
 4485TIP3   OH234869   0.255   4.923   0.743 -0.2728 -0.5668 -0.5399
 4485TIP3    H134870   0.173   4.959   0.776  1.3463  2.6736  0.4686
 4485TIP3    H234871   0.231   4.839   0.703 -3.6017 -0.9930  1.9470
 4486TIP3   OH234872   5.071   6.624   0.575 -1.0037 -0.5154 -0.6080
 4486TIP3    H134873   5.139   6.590   0.634 -0.0102  0.0195 -1.4041
 4486TIP3    H234874   5.025   6.689   0.627  0.0757  0.1862 -0.4889
 4487TIP3   OH234875   2.411   1.767  13.648 -0.3088 -0.2930  0.0809
 4487TIP3    H134876   2.352   1.720  13.590  0.0440 -0.5559 -0.0660
 4487TIP3    H234877   2.383   1.859  13.641 -0.1955 -0.3036 -0.5996
 4488TIP3   OH234878   4.306   5.117   4.554 -0.4762 -0.1006 -0.6050
 4488TIP3    H134879   4.323   5.203   4.593  0.1065 -0.7675  0.6595
 4488TIP3    H234880   4.389   5.071   4.560 -1.4726 -1.8086  1.5281
 4489TIP3   OH234881   4.399   2.057   5.106  0.4383  0.2044  0.7134
 4489TIP3    H134882   4.353   1.975   5.126  0.1933  0.1288 -0.1439
 4489TIP3    H234883   4.398   2.062   5.011  1.3021  0.7230  0.7248
 4490TIP3   OH234884   2.910   6.217   0.035 -0.1411  0.2712  0.4307
 4490TIP3    H134885   2.896   6.261  -0.049  1.0814 -0.7437 -0.3552
 4490TIP3    H234886   2.855   6.264   0.097 -1.4757  0.7336 -1.0396
 4491TIP3   OH234887   1.595   1.202   0.905 -0.0880 -0.0795 -0.4096
 4491TIP3    H134888   1.580   1.261   0.832  1.8477 -0.1498 -0.9191
 4491TIP3    H234889   1.529   1.134   0.895 -1.0671  0.9196 -0.9643
 4492TIP3   OH234890   0.503   3.209  12.106  0.0123  0.3683 -0.0147
 4492TIP3    H134891   0.571   3.152  12.143 -0.2698  0.9925  1.5187
 4492TIP3    H234892   0.548   3.256  12.036  0.3543 -1.4055 -1.0562
 4493TIP3   OH234893   5.771   2.506  17.068  0.5139  0.6693 -0.1295
 4493TIP3    H134894   5.817   2.553  16.998 -0.5058  0.6894 -0.7986
 4493TIP3    H234895   5.710   2.570  17.104 -1.0019 -0.1459 -1.1510
 4494TIP3   OH234896   4.723   3.548   0.715  0.0149  0.2680  0.7772
 4494TIP3    H134897   4.806   3.544   0.668 -1.0061  0.5116 -1.1465
 4494TIP3    H234898   4.730   3.626   0.771  0.6608  0.9539 -0.2289
 4495TIP3   OH234899   3.603   2.465  15.339  0.5410  0.1453  0.2352
 4495TIP3    H134900   3.556   2.499  15.414  1.8076  2.2265  0.1664
 4495TIP3    H234901   3.567   2.513  15.264  0.6170 -0.5133 -0.2345
 4496TIP3   OH234902   0.013   3.649   6.411 -0.3378  0.5693  0.5573
 4496TIP3    H134903   0.038   3.737   6.380  0.3853 -0.5570 -2.4455
 4496TIP3    H234904  -0.070   3.631   6.366 -0.0334 -0.5982  0.4427
 4497TIP3   OH234905   0.713   3.133  14.807 -0.3242  0.1301  0.3202
 4497TIP3    H134906   0.743   3.050  14.845  1.4859  0.4189 -0.3751
 4497TIP3    H234907   0.664   3.107  14.729  1.1833 -0.2755 -0.5218
 4498TIP3   OH234908   1.258   1.765  15.331  0.1293 -0.1468  0.2986
 4498TIP3    H134909   1.186   1.747  15.391  0.3955  2.5795  1.5743
 4498TIP3    H234910   1.232   1.845  15.286  0.5850 -1.3418 -2.3147
 4499TIP3   OH234911   0.053   5.229  13.299  0.2049  0.5975  1.0089
 4499TIP3    H134912   0.016   5.301  13.350 -0.1750  0.2511  1.2242
 4499TIP3    H234913   0.148   5.244  13.301  0.0546  2.2388 -0.6285
 4500TIP3   OH234914   4.993   3.821   0.228  0.3239  0.2877  0.0494
 4500TIP3    H134915   5.085   3.846   0.229 -0.1824  2.3526  0.8944
 4500TIP3    H234916   4.987   3.748   0.289  1.1698  1.1732  1.2379
 4501TIP3   OH234917   0.818   2.138  12.131 -0.0670  0.1017  0.1263
 4501TIP3    H134918   0.745   2.087  12.165 -0.6104  0.1824 -0.9008
 4501TIP3    H234919   0.865   2.167  12.209 -2.1409  1.5718  0.9093
 4502TIP3   OH234920   1.285   6.563   3.238 -0.2158 -0.0642 -0.4216
 4502TIP3    H134921   1.237   6.487   3.205  0.1066 -0.3614 -0.2261
 4502TIP3    H234922   1.347   6.585   3.169 -1.3465  0.9997 -1.1341
 4503TIP3   OH234923   1.392   0.764   4.862  0.1073 -0.5320  0.2434
 4503TIP3    H134924   1.385   0.759   4.766  0.0151  2.3100 -0.0105
 4503TIP3    H234925   1.304   0.744   4.894 -0.5684  1.0584 -0.5056
 4504TIP3   OH234926   1.052   2.826   3.587 -0.1114  0.3778 -0.1249
 4504TIP3    H134927   0.959   2.815   3.603  0.0435  0.3990  0.8734
 4504TIP3    H234928   1.059   2.910   3.543 -0.3681  1.7109  2.2034
 4505TIP3   OH234929   4.965   3.412   0.585  0.2742  0.5723  0.6019
 4505TIP3    H134930   5.054   3.384   0.604  0.2965 -0.6981 -1.1690
 4505TIP3    H234931   4.910   3.344   0.623  0.1061  0.6246  0.4532
 4506TIP3   OH234932   2.816   0.217  14.816  0.3806  0.2482 -0.2054
 4506TIP3    H134933   2.894   0.229  14.762 -1.4485  2.7639 -2.5692
 4506TIP3    H234934   2.829   0.275  14.891  1.2954 -0.3853  0.1529
 4507TIP3   OH234935   0.123   1.059   3.652  0.4162 -0.0615 -0.0940
 4507TIP3    H134936   0.112   1.102   3.567 -3.1204 -0.1622  0.1511
 4507TIP3    H234937   0.094   1.125   3.716 -0.6483 -1.2096  0.6583
 4508TIP3   OH234938   4.417   4.880  15.799 -1.0109 -0.3424  0.6986
 4508TIP3    H134939   4.491   4.928  15.762 -1.2367 -0.4263  0.1413
 4508TIP3    H234940   4.421   4.794  15.758 -1.3470 -0.3873  0.7598
 4509TIP3   OH234941   3.760   0.950   2.571  0.2921  0.2407 -0.0684
 4509TIP3    H134942   3.784   1.020   2.632  3.9772  0.9587 -2.0395
 4509TIP3    H234943   3.765   0.991   2.485 -0.9071 -1.6706 -1.1209
 4510TIP3   OH234944   3.378   2.197   3.738 -0.2029 -0.1448  0.4466
 4510TIP3    H134945   3.296   2.210   3.690 -1.0198 -2.1283  1.1987
 4510TIP3    H234946   3.352   2.194   3.830  0.7593 -0.5108  0.7180
 4511TIP3   OH234947   6.226   1.046  15.243 -0.0965 -0.0058 -0.3164
 4511TIP3    H134948   6.268   1.080  15.322 -1.2038  0.6248  0.0320
 4511TIP3    H234949   6.250   0.954  15.240 -0.5604 -0.1933  1.1141
 4512TIP3   OH234950   1.239   2.955  15.667 -0.2359  0.1935 -0.0185
 4512TIP3    H134951   1.173   3.012  15.628 -1.2815 -0.4993  0.6805
 4512TIP3    H234952   1.279   2.910  15.593 -1.6803 -0.5541 -0.3910
 4513TIP3   OH234953   0.017   4.903   1.910  0.6260  0.1510  0.0941
 4513TIP3    H134954  -0.023   4.816   1.910  0.3898  0.2605  0.3446
 4513TIP3    H234955   0.073   4.903   1.987 -0.3975  0.6942  0.8467
 4514TIP3   OH234956   0.333   5.629   6.052  0.1003  0.5417 -0.2782
 4514TIP3    H134957   0.295   5.564   6.112 -3.0030 -0.5296 -3.0518
 4514TIP3    H234958   0.318   5.713   6.095 -0.9785 -0.2479  0.9751
 4515TIP3   OH234959   0.084   1.843   5.456  0.0255 -0.2216 -0.4362
 4515TIP3    H134960  -0.002   1.854   5.498 -0.0064 -1.1694 -0.2129
 4515TIP3    H234961   0.140   1.907   5.499  0.1570 -1.5763  1.5964
 4516TIP3   OH234962   3.396   3.340   0.955 -0.4564 -0.8609 -0.0610
 4516TIP3    H134963   3.454   3.273   0.990 -0.3283 -0.6774  0.0830
 4516TIP3    H234964   3.390   3.320   0.861  1.4330  0.2626 -0.4836
 4517TIP3   OH234965   2.728   6.045  13.420  0.6547 -0.6363 -0.1267
 4517TIP3    H134966   2.815   6.067  13.451 -0.3921  2.2914  1.0962
 4517TIP3    H234967   2.696   5.980  13.483  0.3303  1.7542  2.4201
 4518TIP3   OH234968   5.817   5.645  14.763 -0.8429 -0.5173  0.3952
 4518TIP3    H134969   5.781   5.564  14.801  0.9768 -1.4794  0.2067
 4518TIP3    H234970   5.877   5.678  14.830  1.3510 -1.4780 -0.9918
 4519TIP3   OH234971   4.400   1.732  15.405 -0.1493 -0.1483 -0.0587
 4519TIP3    H134972   4.469   1.672  15.434  1.1705  1.3652  0.0936
 4519TIP3    H234973   4.354   1.757  15.485 -0.6097 -0.8076 -0.1062
 4520TIP3   OH234974   2.936   2.360   0.212  0.1360 -0.0236  0.7123
 4520TIP3    H134975   2.846   2.385   0.231  0.2350 -0.2270  1.5085
 4520TIP3    H234976   2.985   2.387   0.290  0.8649  0.5750  0.0755
 4521TIP3   OH234977   4.786   4.642   6.045  0.1123  0.1082 -0.0890
 4521TIP3    H134978   4.759   4.641   6.136  0.4749 -1.5970  0.0347
 4521TIP3    H234979   4.864   4.699   6.043 -1.1253  1.8989  0.2278
 4522TIP3   OH234980   5.307   0.120   4.995 -0.4020  0.5938 -0.2645
 4522TIP3    H134981   5.313   0.207   5.035 -0.2074  1.1015 -1.3724
 4522TIP3    H234982   5.385   0.074   5.026  1.7506  2.2018 -2.8599
 4523TIP3   OH234983   1.027   0.711   4.916 -0.2758 -0.2331  0.5961
 4523TIP3    H134984   1.050   0.622   4.944 -1.0538 -0.1608  1.5227
 4523TIP3    H234985   0.954   0.736   4.973 -0.3124  0.8635  0.0965
 4524TIP3   OH234986   0.125   4.037  16.990 -0.2822 -0.2837 -0.0014
 4524TIP3    H134987   0.081   4.066  17.071  0.8443  1.8823 -0.0811
 4524TIP3    H234988   0.199   3.985  17.021  0.3877  0.8803  0.4359
 4525TIP3   OH234989   0.219   1.128  12.604  0.4990 -0.0309 -0.1748
 4525TIP3    H134990   0.213   1.093  12.515 -1.2857 -1.4086  0.4501
 4525TIP3    H234991   0.277   1.067  12.650 -0.1907 -0.4644  0.1253
 4526TIP3   OH234992   5.622   5.723  12.783 -0.1141 -0.2855  0.4653
 4526TIP3    H134993   5.585   5.735  12.695  1.2154 -0.8202 -0.1871
 4526TIP3    H234994   5.615   5.810  12.823 -0.9784 -0.0964 -0.0589
 4527TIP3   OH234995   5.617   4.877   3.600 -0.4891  0.3061  0.1718
 4527TIP3    H134996   5.629   4.868   3.505  0.4146  0.9727  0.2032
 4527TIP3    H234997   5.639   4.969   3.617  0.3690 -0.0701  1.1679
 4528TIP3   OH234998   4.932   2.721   3.496  0.1993 -0.3971 -0.0512
 4528TIP3    H134999   4.970   2.704   3.410  0.3374  1.3426 -0.3754
 4528TIP3    H235000   4.850   2.766   3.478  0.6540  0.8106  0.7031
 4529TIP3   OH235001   5.873   4.174  16.542 -0.1995  0.0552  0.2892
 4529TIP3    H135002   5.789   4.141  16.511  0.7253 -0.7977 -1.4917
 4529TIP3    H235003   5.923   4.191  16.462  2.1140 -1.6085  1.2445
 4530TIP3   OH235004   2.628   0.748   1.073 -0.0272  0.1227  0.2114
 4530TIP3    H135005   2.604   0.835   1.042  0.2000 -0.5623 -2.0702
 4530TIP3    H235006   2.546   0.698   1.073  0.0168  0.0487  0.4823
 4531TIP3   OH235007   3.537   1.852  12.552 -0.4986 -0.0641 -0.2449
 4531TIP3    H135008   3.546   1.937  12.595 -1.7648 -1.6064  3.4976
 4531TIP3    H235009   3.476   1.868  12.480  1.0367  2.5415 -1.0891
 4532TIP3   OH235010   4.974   4.461   1.678  0.2020  0.7616  0.4996
 4532TIP3    H135011   5.039   4.531   1.676  0.2244  0.7195 -0.6345
 4532TIP3    H235012   4.904   4.491   1.619  0.4543 -0.3830 -0.4109
 4533TIP3   OH235013   1.715   3.700   0.394  0.1497 -0.1089  0.1425
 4533TIP3    H135014   1.744   3.664   0.478  1.3475 -0.3150 -0.3334
 4533TIP3    H235015   1.790   3.687   0.335  0.3529  2.4554 -0.2576
 4534TIP3   OH235016   5.333   4.088  11.567 -0.1510 -1.0556  0.3742
 4534TIP3    H135017   5.285   4.042  11.499 -1.9932 -0.9587  1.5187
 4534TIP3    H235018   5.297   4.054  11.649 -0.0277  0.8159  1.2739
 4535TIP3   OH235019   5.296   0.681  12.674 -0.4814 -0.2732 -0.6109
 4535TIP3    H135020   5.363   0.634  12.625 -0.8451  0.1622 -1.5345
 4535TIP3    H235021   5.247   0.613  12.719 -0.9382 -0.7871 -1.8515
 4536TIP3   OH235022   2.044   2.415  16.500  0.2805  0.1874  0.1028
 4536TIP3    H135023   1.966   2.379  16.542  0.6811 -0.1864  0.5302
 4536TIP3    H235024   2.011   2.487  16.446 -0.0975  1.4605  1.9655
 4537TIP3   OH235025   6.527   0.967   2.862  0.3328 -0.1522  0.1638
 4537TIP3    H135026   6.486   0.983   2.777  1.4797  1.9412 -0.0699
 4537TIP3    H235027   6.520   0.872   2.874 -3.3861 -0.1133 -0.3823
 4538TIP3   OH235028   3.472   4.515  15.352 -0.1631  0.3412  0.9127
 4538TIP3    H135029   3.568   4.509  15.348 -0.1721 -0.3470  1.6337
 4538TIP3    H235030   3.452   4.599  15.311  0.7010  0.1755  0.1098
 4539TIP3   OH235031   0.548   1.722   1.279  0.2845  0.5950 -0.1584
 4539TIP3    H135032   0.504   1.711   1.364  2.4997  0.4721  1.0347
 4539TIP3    H235033   0.637   1.749   1.301  0.9972  0.3170 -2.4469
 4540TIP3   OH235034   1.206   5.441   2.882 -0.0087  0.2879 -0.4639
 4540TIP3    H135035   1.114   5.416   2.870 -0.6064  1.6449  1.0224
 4540TIP3    H235036   1.215   5.522   2.833 -0.2427  1.3633  1.2039
 4541TIP3   OH235037   2.147   3.626  12.825 -0.0445 -0.2221 -0.0994
 4541TIP3    H135038   2.142   3.573  12.905  0.2712  1.6233  1.2188
 4541TIP3    H235039   2.233   3.668  12.829  0.3735 -0.8243 -1.9325
 4542TIP3   OH235040   5.054   6.125  12.120  0.0494  0.2396 -0.2479
 4542TIP3    H135041   4.977   6.150  12.170  0.6008 -1.7984  1.8150
 4542TIP3    H235042   5.057   6.186  12.047 -1.0697  3.1646  1.9537
 4543TIP3   OH235043   0.283   4.918   2.506 -0.1670 -0.0206 -0.1099
 4543TIP3    H135044   0.218   4.955   2.566 -1.8604 -2.0133 -0.5931
 4543TIP3    H235045   0.348   4.878   2.563  0.4628  1.5994  0.3749
 4544TIP3   OH235046   6.066   0.335  16.056 -0.0684  0.4374 -0.1794
 4544TIP3    H135047   6.098   0.418  16.021  0.3282 -0.0700 -1.0417
 4544TIP3    H235048   5.971   0.338  16.043 -0.3289  1.6065  1.6537
 4545TIP3   OH235049   0.343   2.653   5.488 -0.1852  0.2620  0.8883
 4545TIP3    H135050   0.433   2.624   5.472  0.3515  1.2748  1.9517
 4545TIP3    H235051   0.347   2.748   5.480 -1.6984  0.2125 -1.5045
 4546TIP3   OH235052   2.139   6.098  15.483  0.8554  0.0295 -0.5837
 4546TIP3    H135053   2.158   6.188  15.456  2.4240 -0.3509 -0.7975
 4546TIP3    H235054   2.167   6.044  15.409 -1.0194 -0.6129 -0.8969
 4547TIP3   OH235055   0.045   6.771   1.646  0.6417 -0.3263  0.5419
 4547TIP3    H135056   0.002   6.853   1.623  2.3503  1.1295  2.1975
 4547TIP3    H235057  -0.025   6.716   1.681 -0.5626  0.3248 -0.7547
 4548TIP3   OH235058   0.943   6.044  10.451  0.0743  0.3432 -0.0482
 4548TIP3    H135059   0.934   5.989  10.529  2.2418  0.1651  0.1595
 4548TIP3    H235060   0.987   6.123  10.482 -3.2096  2.4415 -0.3020
 4549TIP3   OH235061   3.275   3.170  16.717  0.2151 -0.1326  0.2049
 4549TIP3    H135062   3.231   3.219  16.787 -0.4134  0.0766 -0.3257
 4549TIP3    H235063   3.290   3.083  16.754 -0.5353 -0.1683  0.4444
 4550TIP3   OH235064   2.021   1.406   3.223 -0.4089 -0.5167 -0.1770
 4550TIP3    H135065   2.041   1.499   3.209  0.6023 -0.5187  1.1157
 4550TIP3    H235066   2.089   1.359   3.175  0.5006 -0.5509  1.1043
 4551TIP3   OH235067   0.784   0.356   5.168 -0.2742 -0.4947 -0.4945
 4551TIP3    H135068   0.869   0.332   5.207  0.3310  1.5220 -0.4425
 4551TIP3    H235069   0.719   0.313   5.224  0.6820 -0.8578  0.3731
 4552TIP3   OH235070   5.298   2.251  14.073  0.4777  0.2699 -0.0816
 4552TIP3    H135071   5.304   2.346  14.062  2.1179  0.0748 -1.3204
 4552TIP3    H235072   5.258   2.240  14.159  0.6649  2.0876  0.2959
 4553TIP3   OH235073   2.536   3.799   4.596  0.7780 -0.4567 -1.0282
 4553TIP3    H135074   2.489   3.766   4.519 -2.0297 -0.0004  0.3441
 4553TIP3    H235075   2.515   3.893   4.598  2.2619 -0.1131 -0.6521
 4554TIP3   OH235076   3.503   6.239   3.789  0.0711  0.1685 -0.1716
 4554TIP3    H135077   3.580   6.182   3.782  0.4636  0.7373 -0.6344
 4554TIP3    H235078   3.461   6.213   3.871 -0.7623 -2.0115 -1.1893
 4555TIP3   OH235079   0.668   4.065  13.739 -0.1997 -0.4297 -0.4682
 4555TIP3    H135080   0.746   4.033  13.693 -0.0318 -0.8267  0.0793
 4555TIP3    H235081   0.661   4.157  13.714  3.3875  1.2075  3.2971
 4556TIP3   OH235082   6.062   2.498   3.026  0.3104  0.1029  0.2728
 4556TIP3    H135083   6.043   2.404   3.027 -0.6480  0.2517 -1.0275
 4556TIP3    H235084   6.042   2.527   3.115 -0.6851 -0.6912  0.3316
 4557TIP3   OH235085   0.262   0.173  16.620  0.5442  0.0985  0.2232
 4557TIP3    H135086   0.250   0.154  16.713 -2.4281 -0.5935 -0.1980
 4557TIP3    H235087   0.349   0.137  16.599  0.6523 -1.0835  2.3936
 4558TIP3   OH235088   4.238   5.690  15.471  0.4279  0.0304  0.1059
 4558TIP3    H135089   4.160   5.661  15.517  0.0125 -0.5987 -0.9645
 4558TIP3    H235090   4.206   5.734  15.393  1.1234  0.6970  0.1824
 4559TIP3   OH235091   4.959   5.851   4.686 -0.2836 -0.3272  0.2235
 4559TIP3    H135092   4.871   5.820   4.707 -0.5354 -0.4207 -0.8757
 4559TIP3    H235093   4.945   5.935   4.642  0.1087 -0.7107 -0.6645
 4560TIP3   OH235094   2.712   0.790  11.509  0.1256  0.2073 -0.3784
 4560TIP3    H135095   2.755   0.855  11.454 -1.6860  0.8746 -1.0882
 4560TIP3    H235096   2.635   0.835  11.544 -0.8737 -1.3540 -0.4440
 4561TIP3   OH235097   4.886   5.001   0.678  0.2392  0.6279  0.3051
 4561TIP3    H135098   4.946   5.074   0.695  0.9000  0.3826 -0.8359
 4561TIP3    H235099   4.931   4.924   0.714  0.2847  0.5499  0.0848
 4562TIP3   OH235100   0.482   2.383  11.398  0.2219 -0.4418 -0.3538
 4562TIP3    H135101   0.562   2.435  11.399  0.3920 -0.7138  0.1046
 4562TIP3    H235102   0.495   2.316  11.464 -1.1174  0.6269  1.0875
 4563TIP3   OH235103   5.389   0.895  16.365  0.1304  0.3218 -0.1808
 4563TIP3    H135104   5.358   0.978  16.402  2.0101  0.9699  0.0500
 4563TIP3    H235105   5.350   0.828  16.421 -1.0495  1.0549 -0.0939
 4564TIP3   OH235106   1.417   1.571   0.657 -0.5818 -0.0408 -0.3081
 4564TIP3    H135107   1.445   1.662   0.649  1.0995 -0.6559 -2.0461
 4564TIP3    H235108   1.429   1.534   0.570  0.4969 -2.3907  0.7375
 4565TIP3   OH235109   6.085   4.452  13.347 -0.0424  0.5179  0.1764
 4565TIP3    H135110   6.016   4.498  13.300  0.1233 -0.6670 -1.3064
 4565TIP3    H235111   6.039   4.387  13.400 -0.2009  1.5382  1.3248
 4566TIP3   OH235112   4.320   3.592  15.237  0.1147  0.0313  0.1324
 4566TIP3    H135113   4.354   3.629  15.156 -1.5591  0.3363 -0.4714
 4566TIP3    H235114   4.320   3.665  15.299  0.6120  0.0076  0.1639
 4567TIP3   OH235115   3.649   6.030   3.834 -0.3789 -0.4800  0.3090
 4567TIP3    H135116   3.684   5.963   3.775 -0.4402 -1.3633  1.2550
 4567TIP3    H235117   3.710   6.030   3.908  0.4288  1.5124 -0.2786
 4568TIP3   OH235118   1.495   0.302  11.515  0.4502 -0.0672 -0.4217
 4568TIP3    H135119   1.518   0.340  11.600 -2.9553 -2.1397  1.6821
 4568TIP3    H235120   1.500   0.375  11.454  0.2389  2.2799  2.1426
 4569TIP3   OH235121   5.040   2.950   4.220 -0.4101  0.2607  0.3081
 4569TIP3    H135122   5.055   2.876   4.278 -0.4782  1.0589  1.3737
 4569TIP3    H235123   5.058   2.916   4.132  0.8920 -0.6645  0.8947
 4570TIP3   OH235124   2.846   5.140   5.985  0.4845  0.0941  0.2396
 4570TIP3    H135125   2.842   5.188   6.068 -2.3701 -0.6885  0.6660
 4570TIP3    H235126   2.789   5.190   5.926  1.2298 -0.2230 -0.7719
 4571TIP3   OH235127   1.854   2.255  16.749 -0.1761 -0.6444 -0.0700
 4571TIP3    H135128   1.871   2.266  16.843 -0.3980 -0.3516 -0.0622
 4571TIP3    H235129   1.940   2.263  16.708 -0.1581 -0.1294  0.0535
 4572TIP3   OH235130   4.853   0.513   3.881 -0.3054 -0.1910  0.0226
 4572TIP3    H135131   4.918   0.445   3.868  1.0494  0.2391  3.4249
 4572TIP3    H235132   4.898   0.595   3.860  0.0347  0.0295  1.4698
 4573TIP3   OH235133   4.560   1.671   6.740 -0.1238 -0.4112  0.2805
 4573TIP3    H135134   4.490   1.649   6.678 -1.1002 -0.1906  1.2661
 4573TIP3    H235135   4.580   1.588   6.783  1.1516 -0.7396 -0.8882
 4574TIP3   OH235136   2.048   6.050  17.248 -0.1675  0.6906  0.0184
 4574TIP3    H135137   2.141   6.032  17.232  0.2872  3.0237 -0.2552
 4574TIP3    H235138   2.008   6.051  17.161 -0.0754  1.5147 -0.0171
 4575TIP3   OH235139   4.138   5.775   4.147  0.8859  0.4641  0.2100
 4575TIP3    H135140   4.043   5.768   4.155  0.8306  1.0413  0.1282
 4575TIP3    H235141   4.153   5.806   4.058  1.1198  0.8736  0.3886
 4576TIP3   OH235142   1.878   2.608  14.012  0.3714  0.1338  0.8118
 4576TIP3    H135143   1.887   2.692  14.058 -1.5774  0.2455  1.0814
 4576TIP3    H235144   1.818   2.626  13.940  1.7767 -0.5264 -0.5886
 4577TIP3   OH235145   6.722   2.678   5.582 -0.0308  0.1659 -0.0334
 4577TIP3    H135146   6.766   2.739   5.522 -0.7996 -0.4207 -1.2423
 4577TIP3    H235147   6.784   2.606   5.593  0.2498  0.4329  0.1541
 4578TIP3   OH235148   5.252   0.773   5.754 -0.0809 -0.8497 -0.0235
 4578TIP3    H135149   5.206   0.718   5.818  0.1470 -0.1722  0.7293
 4578TIP3    H235150   5.321   0.815   5.804 -1.0267  1.1173 -0.2839
 4579TIP3   OH235151   1.980   0.994  14.055 -0.4336  0.2555  0.1008
 4579TIP3    H135152   1.937   1.044  14.124  0.6322 -0.0602  1.0215
 4579TIP3    H235153   2.045   0.942  14.101  0.2115 -0.0573 -1.1405
 4580TIP3   OH235154   6.014   1.395   4.712  0.0430  0.5422 -0.0586
 4580TIP3    H135155   5.926   1.406   4.676 -0.4060 -1.7437  0.1615
 4580TIP3    H235156   6.016   1.451   4.789 -0.2048  2.7727 -1.5979
 4581TIP3   OH235157   0.536   4.585   2.033 -0.4154 -0.0000  0.9474
 4581TIP3    H135158   0.521   4.660   2.090 -0.6911  0.6992 -0.0181
 4581TIP3    H235159   0.459   4.531   2.044 -0.2570 -0.1039  1.5823
 4582TIP3   OH235160   1.572   1.484  11.733  0.1115 -0.5078 -0.1394
 4582TIP3    H135161   1.600   1.544  11.664  0.6580 -0.4380  0.1384
 4582TIP3    H235162   1.483   1.458  11.707 -1.1198  2.2272  0.8888
 4583TIP3   OH235163   2.897   6.611   1.566 -0.1207 -0.4433  0.0644
 4583TIP3    H135164   2.913   6.549   1.494  1.3169 -0.0796  0.0388
 4583TIP3    H235165   2.984   6.647   1.586 -0.6294  0.0628  1.4432
 4584TIP3   OH235166   0.021   5.991   5.643 -0.3496  0.3440 -0.0034
 4584TIP3    H135167   0.004   6.038   5.724  0.0405 -1.3238  1.0851
 4584TIP3    H235168   0.107   6.023   5.614 -0.4243  0.8377  0.3244
 4585TIP3   OH235169   4.007   5.552  13.525 -0.3660 -0.1058 -0.0778
 4585TIP3    H135170   3.980   5.461  13.514  1.0115 -0.3653 -1.7563
 4585TIP3    H235171   3.929   5.604  13.504 -0.3414 -0.8586 -2.2230
 4586TIP3   OH235172   3.816   6.295  15.079 -0.4037 -0.2915 -0.3478
 4586TIP3    H135173   3.837   6.354  15.006  0.8892  0.0603  0.2873
 4586TIP3    H235174   3.763   6.226  15.039 -1.8726  1.2207 -1.1351
 4587TIP3   OH235175   0.486   4.440   0.021 -0.3763 -0.0657 -0.6931
 4587TIP3    H135176   0.512   4.517   0.071  0.7924  0.1160 -1.5220
 4587TIP3    H235177   0.486   4.469  -0.070 -2.1857 -0.4599 -0.8579
 4588TIP3   OH235178   2.513   4.372  13.013 -0.0850  0.3669 -0.0370
 4588TIP3    H135179   2.550   4.405  12.931  0.5891  0.9986  0.5149
 4588TIP3    H235180   2.451   4.440  13.040 -1.4437 -0.5221 -0.7753
 4589TIP3   OH235181   5.229   3.334  14.785  0.2415 -0.5248  0.3860
 4589TIP3    H135182   5.145   3.356  14.744 -0.1596 -0.7322  1.0872
 4589TIP3    H235183   5.273   3.278  14.720 -0.0871 -0.2839 -0.0504
 4590TIP3   OH235184   5.689   5.538   2.502 -0.0109 -0.1777  0.1182
 4590TIP3    H135185   5.693   5.446   2.475  0.6004  0.1389 -0.8902
 4590TIP3    H235186   5.770   5.552   2.551 -0.2315 -0.2404  0.5067
 4591TIP3   OH235187   2.156   2.123  16.592 -0.1500  0.1160 -0.3336
 4591TIP3    H135188   2.142   2.149  16.500 -1.5000  1.0334  0.0882
 4591TIP3    H235189   2.168   2.206  16.638 -0.0606 -0.3019  0.4035
 4592TIP3   OH235190   3.265   1.881   6.048 -0.8569 -0.6035  0.0507
 4592TIP3    H135191   3.201   1.809   6.049 -0.3139 -1.0971 -0.1323
 4592TIP3    H235192   3.342   1.844   6.091  0.5075 -1.1602 -2.6445
 4593TIP3   OH235193   3.745   6.344  11.619  0.0281  0.4359 -0.7753
 4593TIP3    H135194   3.778   6.367  11.533  0.8172  0.9022 -0.3637
 4593TIP3    H235195   3.706   6.425  11.653 -2.2996 -0.2758 -1.5484
 4594TIP3   OH235196   3.951   6.107  11.465 -0.6601 -0.0372  0.3634
 4594TIP3    H135197   3.920   6.142  11.548 -0.7962  1.6583 -0.3399
 4594TIP3    H235198   4.030   6.158  11.446  1.2490 -2.6024  0.9558
 4595TIP3   OH235199   5.242   1.039  11.162  0.7346 -0.0868 -0.0973
 4595TIP3    H135200   5.166   1.083  11.124  0.4482 -1.5347 -1.3230
 4595TIP3    H235201   5.302   1.110  11.186 -2.8403  1.6751  5.6590
 4596TIP3   OH235202   5.548   2.664   3.446  0.2092  0.1840  0.0571
 4596TIP3    H135203   5.458   2.691   3.463 -0.3965 -0.9716 -1.1516
 4596TIP3    H235204   5.601   2.721   3.501 -1.1767  1.8558 -0.2518
 4597TIP3   OH235205   4.886   1.985  15.980 -0.1884 -0.3622 -0.1138
 4597TIP3    H135206   4.976   1.957  15.964  0.0899  1.3142 -1.8108
 4597TIP3    H235207   4.895   2.061  16.038 -0.5422 -0.4423  0.0491
 4598TIP3   OH235208   1.136   5.186   2.519  0.2761 -0.1454 -0.3041
 4598TIP3    H135209   1.060   5.136   2.490  0.8944 -0.4701 -1.4362
 4598TIP3    H235210   1.167   5.231   2.440  1.1756  0.0694  0.1546
 4599TIP3   OH235211   0.323   4.561   3.008  1.0752 -0.2038  0.6940
 4599TIP3    H135212   0.342   4.579   3.100 -0.4490  0.5234  0.9007
 4599TIP3    H235213   0.227   4.551   3.005  0.8865  1.4889 -1.0511
 4600TIP3   OH235214   5.409   1.098   1.433  0.1066 -0.0926 -0.4820
 4600TIP3    H135215   5.325   1.056   1.451  1.0298 -1.8761 -0.1027
 4600TIP3    H235216   5.442   1.052   1.355 -0.0105  1.7730 -1.7097
 4601TIP3   OH235217   1.375   3.286  15.823 -0.4952  0.2076  0.2185
 4601TIP3    H135218   1.413   3.202  15.798 -1.7497 -0.7135  1.3143
 4601TIP3    H235219   1.344   3.324  15.741  1.0458  0.1182 -0.4316
 4602TIP3   OH235220   0.509   2.967  13.661  0.0716  0.3168  0.5632
 4602TIP3    H135221   0.554   2.950  13.578 -3.7550 -0.8289 -1.5387
 4602TIP3    H235222   0.471   3.055  13.650 -0.1296  0.3240  1.2691
 4603TIP3   OH235223   4.889   2.477   1.832 -0.3060  0.2918 -0.6978
 4603TIP3    H135224   4.817   2.515   1.781  0.9441  2.1884 -1.1621
 4603TIP3    H235225   4.962   2.473   1.770  1.1684  2.3351  0.7776
 4604TIP3   OH235226   0.034   3.414   1.728  0.2011  0.6003 -0.3482
 4604TIP3    H135227  -0.051   3.423   1.684  1.6361  1.7842 -3.1065
 4604TIP3    H235228   0.059   3.503   1.752  0.2962  0.1618  1.3329
 4605TIP3   OH235229   3.344   0.516  12.623  0.2301 -0.0415 -0.3946
 4605TIP3    H135230   3.409   0.513  12.694  0.4286 -0.6991 -0.5888
 4605TIP3    H235231   3.264   0.548  12.665  0.6466  0.6630 -0.1253
 4606TIP3   OH235232   0.175   6.407   2.578  0.0989 -0.4151 -0.3917
 4606TIP3    H135233   0.260   6.372   2.552  0.5632 -0.3595  0.9709
 4606TIP3    H235234   0.167   6.385   2.671 -1.9532 -1.5476 -0.7870
 4607TIP3   OH235235   3.193   0.024  15.834  0.0367  0.5560 -0.0913
 4607TIP3    H135236   3.167   0.114  15.815  0.3392  0.3505 -1.5946
 4607TIP3    H235237   3.286   0.021  15.813  0.5998  0.4335  2.0907
 4608TIP3   OH235238   1.190   1.312  13.045  0.0117  0.4313  0.0503
 4608TIP3    H135239   1.160   1.374  12.978 -0.7708  1.5219  1.3523
 4608TIP3    H235240   1.115   1.256  13.062  0.0596  0.4525  0.3405
 4609TIP3   OH235241   6.305   3.727  15.282 -0.5390  0.2791  0.3820
 4609TIP3    H135242   6.281   3.682  15.363  0.5752  0.2090  0.6868
 4609TIP3    H235243   6.370   3.792  15.309  2.1149 -1.6813 -0.8230
 4610TIP3   OH235244   1.215   4.079  15.556  0.0027  0.1182 -0.1233
 4610TIP3    H135245   1.171   4.046  15.477 -2.0169 -1.0148  1.3924
 4610TIP3    H235246   1.164   4.044  15.629  0.5960  2.7543  1.7132
 4611TIP3   OH235247   0.101   6.305  13.334 -0.3801 -0.2431 -0.2551
 4611TIP3    H135248   0.031   6.243  13.350  0.7513 -1.4445  0.2125
 4611TIP3    H235249   0.065   6.390  13.360 -1.5499 -0.8738  0.2299
 4612TIP3   OH235250   0.959   5.747  13.861  0.0940 -0.1689  0.3693
 4612TIP3    H135251   0.899   5.800  13.913 -0.0659 -0.7384  0.7779
 4612TIP3    H235252   1.003   5.691  13.925  1.6114  0.7590  0.1668
 4613TIP3   OH235253   3.527   1.415   4.683 -0.7979  0.1626  0.2407
 4613TIP3    H135254   3.538   1.449   4.772 -1.5259 -0.1825  0.4619
 4613TIP3    H235255   3.439   1.378   4.681 -1.3321  1.3897 -1.0281
 4614TIP3   OH235256   0.283   1.280  13.789 -0.3896 -0.2467 -0.2807
 4614TIP3    H135257   0.222   1.296  13.717 -0.6201 -0.8448 -0.2205
 4614TIP3    H235258   0.233   1.230  13.853  0.5405 -2.0028 -0.8481
 4615TIP3   OH235259   0.094   2.730  16.744 -0.3554 -0.0292  0.4203
 4615TIP3    H135260   0.018   2.672  16.754 -0.4199 -0.5930 -2.5610
 4615TIP3    H235261   0.078   2.776  16.662  1.8083  1.0184  0.5337
 4616TIP3   OH235262   2.913   2.503  12.139 -0.0781 -0.2300  0.1566
 4616TIP3    H135263   2.956   2.432  12.093 -2.0734 -1.0481 -0.5562
 4616TIP3    H235264   2.869   2.554  12.071 -0.9033  0.0878  0.8975
 4617TIP3   OH235265   0.534   3.786   5.892 -0.5982  0.6066 -0.2983
 4617TIP3    H135266   0.480   3.708   5.879 -0.6154  0.4118  0.8380
 4617TIP3    H235267   0.488   3.856   5.845 -0.4496 -0.0948 -1.5476
 4618TIP3   OH235268   1.680   5.354  12.938  0.0390  0.3622  0.0322
 4618TIP3    H135269   1.642   5.297  13.005 -0.7691  0.1628 -0.5817
 4618TIP3    H235270   1.605   5.397  12.898  0.6239  1.6451  0.2796
 4619TIP3   OH235271   5.387   5.096   5.272  0.3192 -0.1169 -0.3778
 4619TIP3    H135272   5.461   5.128   5.220 -0.2531 -0.8553 -1.6980
 4619TIP3    H235273   5.379   5.004   5.248 -1.3095  0.0541 -0.5981
 4620TIP3   OH235274   0.166   6.269   2.842  0.7644  0.4100 -0.4756
 4620TIP3    H135275   0.122   6.189   2.868  1.7756 -0.6635 -1.9077
 4620TIP3    H235276   0.202   6.305   2.923  1.7498 -1.4986 -0.0197
 4621TIP3   OH235277   5.531   6.721   0.658  0.2636  0.2421  0.1074
 4621TIP3    H135278   5.490   6.750   0.740  2.1385  1.7673  0.5569
 4621TIP3    H235279   5.567   6.635   0.679  1.6601  1.0633  1.2723
 4622TIP3   OH235280   3.986   3.086  10.840  0.1121 -0.0988 -0.1994
 4622TIP3    H135281   3.955   3.021  10.903  1.2164  0.2108  0.7047
 4622TIP3    H235282   4.061   3.127  10.884 -0.9923  2.2968 -0.4057
 4623TIP3   OH235283   6.669   1.862   1.880  0.1277  0.3936 -0.1819
 4623TIP3    H135284   6.664   1.847   1.974  0.8988 -1.7116 -0.4180
 4623TIP3    H235285   6.728   1.936   1.871  0.2469  0.4631  0.9943
 4624TIP3   OH235286   6.058   1.012   4.021  0.2302 -0.1183 -0.6087
 4624TIP3    H135287   5.970   1.023   4.057 -0.0521 -0.0644 -1.3115
 4624TIP3    H235288   6.116   1.038   4.093 -0.2987 -0.8533  0.1097
 4625TIP3   OH235289   0.398   1.723  10.964  0.1574 -0.0806  0.3447
 4625TIP3    H135290   0.424   1.786  11.031  1.4803  0.8459 -0.9747
 4625TIP3    H235291   0.303   1.727  10.963 -0.2647 -2.7889  4.6186
 4626TIP3   OH235292   6.375   2.546   3.872  0.3768  0.7717 -0.6047
 4626TIP3    H135293   6.324   2.620   3.839 -2.0833 -0.3268  0.4680
 4626TIP3    H235294   6.458   2.584   3.899 -0.4461  2.9663 -0.9673
 4627TIP3   OH235295   4.009   3.743   6.474  0.0627 -0.4624 -0.5142
 4627TIP3    H135296   3.970   3.658   6.493 -0.6110  0.0342  0.3797
 4627TIP3    H235297   4.072   3.757   6.545 -1.0896  0.5498  0.3381
 4628TIP3   OH235298   1.449   1.617  15.446 -0.2455  0.5834 -0.0755
 4628TIP3    H135299   1.386   1.669  15.397  0.6781  0.4062 -1.5007
 4628TIP3    H235300   1.485   1.678  15.511 -0.3991  1.2483 -0.6037
 4629TIP3   OH235301   2.661   4.448   4.174 -0.3268  0.6321  0.1118
 4629TIP3    H135302   2.757   4.450   4.175 -0.2022 -1.8974  0.1825
 4629TIP3    H235303   2.636   4.480   4.260  0.5062  0.5027  0.4180
 4630TIP3   OH235304   0.807   0.014  13.985 -0.6398  0.3302 -0.1559
 4630TIP3    H135305   0.792  -0.046  13.912 -2.4953 -0.0083  0.4570
 4630TIP3    H235306   0.863   0.083  13.948 -0.5535 -0.4602 -1.5508
 4631TIP3   OH235307   6.277   2.347  13.210  0.5975  0.3477  0.7110
 4631TIP3    H135308   6.183   2.358  13.191  0.7282  1.5757  0.6624
 4631TIP3    H235309   6.321   2.377  13.131  1.0344 -0.5908  0.5949
 4632TIP3   OH235310   1.718   3.426  15.841  0.1386  0.5089  0.2709
 4632TIP3    H135311   1.666   3.397  15.766 -1.5169 -0.3568  1.7022
 4632TIP3    H235312   1.806   3.394  15.822 -0.6076 -1.2551 -0.4828
 4633TIP3   OH235313   0.514   3.304   5.427  0.6053 -0.6156 -0.3519
 4633TIP3    H135314   0.454   3.253   5.481  2.1402 -1.6116  0.5142
 4633TIP3    H235315   0.489   3.395   5.440 -0.2985 -0.9738  0.4686
 4634TIP3   OH235316   3.179   5.660  12.817  0.0468 -0.1463  0.2603
 4634TIP3    H135317   3.108   5.633  12.875  0.3750  0.9846  1.2057
 4634TIP3    H235318   3.176   5.755  12.817 -0.2263 -0.0938 -1.9591
 4635TIP3   OH235319   0.331   1.247   2.259 -0.2419  0.5499  0.6016
 4635TIP3    H135320   0.320   1.165   2.211  0.6403  0.9470 -0.3065
 4635TIP3    H235321   0.398   1.228   2.325  0.8471  0.8525 -0.3962
 4636TIP3   OH235322   3.919   6.635  11.910 -0.4379  0.0059  0.2823
 4636TIP3    H135323   3.988   6.668  11.967 -0.7814 -0.2292  0.8441
 4636TIP3    H235324   3.893   6.711  11.857 -0.8423  0.5066  1.1818
 4637TIP3   OH235325   4.717   1.982  12.903 -0.1965 -0.1716  0.4485
 4637TIP3    H135326   4.805   1.979  12.865 -0.0972 -2.0001  0.7202
 4637TIP3    H235327   4.705   2.073  12.929  0.4531  0.7695 -2.2544
 4638TIP3   OH235328   3.314   6.584  16.135 -0.1222  0.0133  0.3348
 4638TIP3    H135329   3.232   6.553  16.174  0.2535  0.5059  1.5483
 4638TIP3    H235330   3.356   6.505  16.102 -1.5604 -0.1435 -1.3071
 4639TIP3   OH235331   2.185   3.180  14.117  0.4598 -0.1916 -0.3600
 4639TIP3    H135332   2.178   3.085  14.111  1.3013 -0.3650  1.0777
 4639TIP3    H235333   2.251   3.203  14.051 -2.0599 -0.1708 -3.0945
 4640TIP3   OH235334   2.420   2.362   4.305  0.7404  0.4276  0.1921
 4640TIP3    H135335   2.482   2.435   4.306  0.4041  0.7888 -1.5154
 4640TIP3    H235336   2.335   2.402   4.320  0.6631  0.2552  0.2170
 4641TIP3   OH235337   2.535   4.326  12.378  0.3923 -0.4431 -0.5510
 4641TIP3    H135338   2.600   4.360  12.316  0.0847 -0.9758 -1.1731
 4641TIP3    H235339   2.584   4.313  12.460  0.7955  0.2885 -0.6696
 4642TIP3   OH235340   5.986   3.055   3.954  0.4438 -0.6619  0.0474
 4642TIP3    H135341   6.032   3.017   4.029 -2.3535 -1.1651  1.6675
 4642TIP3    H235342   5.899   3.015   3.957 -0.8898  1.8631 -1.4352
 4643TIP3   OH235343   0.301   2.523   3.358 -0.0491 -0.4510 -0.3212
 4643TIP3    H135344   0.328   2.437   3.391  0.0866 -0.2437  0.1138
 4643TIP3    H235345   0.364   2.584   3.395 -0.2072 -0.1491 -0.5433
 4644TIP3   OH235346   4.920   1.412  10.940  0.8686  0.2118  0.6822
 4644TIP3    H135347   4.942   1.357  10.864  1.8044  0.4353  0.7819
 4644TIP3    H235348   4.912   1.500  10.904 -1.7701 -0.1058  0.3194
 4645TIP3   OH235349   1.716   2.009  14.319 -0.0644  0.0267 -0.6327
 4645TIP3    H135350   1.707   1.917  14.293  0.2365 -0.3265  0.4740
 4645TIP3    H235351   1.802   2.013  14.361 -0.6131  0.5226  0.4770
 4646TIP3   OH235352   0.858   6.091  15.783  0.0668 -0.2469  0.1395
 4646TIP3    H135353   0.865   6.183  15.757  1.9097 -0.0945  1.0458
 4646TIP3    H235354   0.892   6.043  15.707 -1.2807 -0.2336 -0.4975
 4647TIP3   OH235355   1.900   4.556   0.558 -0.0805  0.3240 -0.1991
 4647TIP3    H135356   1.868   4.628   0.503 -0.3489 -0.7722 -1.5246
 4647TIP3    H235357   1.995   4.562   0.552 -0.0570  1.4538  0.9116
 4648TIP3   OH235358   2.471   0.075   3.419 -0.3482  0.7701  0.0932
 4648TIP3    H135359   2.467   0.024   3.500  1.1837  0.8415  0.2449
 4648TIP3    H235360   2.528   0.025   3.361 -1.2005  0.8658 -0.8566
 4649TIP3   OH235361   2.664   0.434  14.053  0.0145 -0.5770 -0.3987
 4649TIP3    H135362   2.749   0.415  14.093 -0.0713 -1.7225 -0.7370
 4649TIP3    H235363   2.600   0.402  14.117 -0.1505 -0.7279 -0.6395
 4650TIP3   OH235364   3.375   1.563   2.071  0.3360  0.0773 -0.2819
 4650TIP3    H135365   3.427   1.497   2.027 -2.4576 -1.3037 -1.7906
 4650TIP3    H235366   3.343   1.520   2.150  2.8056  1.5343  1.6662
 4651TIP3   OH235367   1.975   4.771   4.663 -0.2020  0.6140 -0.1797
 4651TIP3    H135368   1.890   4.731   4.683 -0.4295 -0.3383 -2.5833
 4651TIP3    H235369   1.969   4.860   4.696 -1.4301  0.0133  1.3248
 4652TIP3   OH235370   4.734   6.127  15.186 -0.7309 -0.2292  0.1791
 4652TIP3    H135371   4.750   6.035  15.166  0.4214  0.1527 -0.7454
 4652TIP3    H235372   4.774   6.175  15.114  0.3279  1.0834  1.5802
 4653TIP3   OH235373   3.649   1.832  15.846 -0.2272  0.1816 -0.8678
 4653TIP3    H135374   3.571   1.838  15.791 -0.6306 -0.1575 -0.3436
 4653TIP3    H235375   3.627   1.882  15.925 -0.3160 -0.7798 -0.2677
 4654TIP3   OH235376   1.929   0.594  10.680  0.3684  0.0843  0.1811
 4654TIP3    H135377   1.942   0.499  10.673 -1.2087 -0.1553  0.0535
 4654TIP3    H235378   1.865   0.614  10.611  1.5146  1.4423 -0.5309
 4655TIP3   OH235379   3.917   4.472   6.148  0.1693 -0.1213 -0.6311
 4655TIP3    H135380   3.961   4.499   6.228  1.7983 -0.3003 -1.4155
 4655TIP3    H235381   3.888   4.383   6.164 -1.1216  0.4506  0.3599
 4656TIP3   OH235382   1.690   2.719   0.295  0.4835 -0.1977  0.2186
 4656TIP3    H135383   1.732   2.636   0.317  2.8079  1.2388  1.5535
 4656TIP3    H235384   1.689   2.768   0.377 -2.3732  0.5434 -0.1391
 4657TIP3   OH235385   5.603   0.703   4.528 -0.6027 -0.5147  0.3865
 4657TIP3    H135386   5.539   0.709   4.458  0.3959 -0.0394 -0.5119
 4657TIP3    H235387   5.591   0.782   4.580 -0.5074 -0.2504  0.0070
 4658TIP3   OH235388   3.134   3.460  16.215  0.5748  0.1712  0.2940
 4658TIP3    H135389   3.221   3.496  16.235  0.1941  0.3514  1.7133
 4658TIP3    H235390   3.153   3.377  16.170  1.5173 -0.2887  1.4766
 4659TIP3   OH235391   2.778   2.749   5.775  0.1409 -0.7939  0.2427
 4659TIP3    H135392   2.866   2.784   5.756 -0.6279  1.5953  0.7172
 4659TIP3    H235393   2.769   2.674   5.717  1.1930  1.0292 -2.4877
 4660TIP3   OH235394   1.281   2.298  12.788  0.3563 -0.2340  0.1810
 4660TIP3    H135395   1.303   2.346  12.709 -1.5944 -0.8599 -0.8196
 4660TIP3    H235396   1.352   2.234  12.798  0.4843 -0.3530 -1.2515
 4661TIP3   OH235397   2.475   5.649  16.175  0.1579 -0.2326 -0.2238
 4661TIP3    H135398   2.564   5.621  16.201 -0.3326 -0.0598  1.8329
 4661TIP3    H235399   2.427   5.653  16.257 -0.7504  3.4296 -0.7826
 4662TIP3   OH235400   4.566   1.852  11.978  0.6901  0.1277 -0.2591
 4662TIP3    H135401   4.486   1.801  11.987  0.0360  0.5510 -2.7897
 4662TIP3    H235402   4.628   1.793  11.936  0.1501  1.1014 -2.5654
 4663TIP3   OH235403   5.880   4.224  16.802 -0.3410 -0.2351 -0.0898
 4663TIP3    H135404   5.912   4.138  16.832  0.6859  0.0933 -0.2057
 4663TIP3    H235405   5.866   4.213  16.708  0.2273 -0.1543 -0.1879
 4664TIP3   OH235406   1.071   5.049  13.467 -0.6745 -0.1514  0.0318
 4664TIP3    H135407   1.040   5.121  13.522 -1.9417 -0.0787 -0.7584
 4664TIP3    H235408   1.151   5.018  13.511  0.7295  2.6301 -0.3258
 4665TIP3   OH235409   0.286   3.571   2.406 -0.1476  0.3624 -0.1070
 4665TIP3    H135410   0.242   3.655   2.418  1.1789  0.8847  1.7259
 4665TIP3    H235411   0.379   3.591   2.417  0.1496 -1.4500  1.2373
 4666TIP3   OH235412   2.416   3.745  12.774  0.3659  0.4099 -0.9299
 4666TIP3    H135413   2.504   3.780  12.762  1.4021 -1.6666  0.2511
 4666TIP3    H235414   2.378   3.746  12.686  1.6967  0.9331 -1.5268
 4667TIP3   OH235415   0.888   0.761   2.899  0.2849  0.3427 -0.5739
 4667TIP3    H135416   0.798   0.794   2.903 -0.2915 -1.0791 -1.2445
 4667TIP3    H235417   0.880   0.674   2.860  1.9043 -0.0192 -0.1594
 4668TIP3   OH235418   1.271   1.374   1.918  0.7127 -0.4876 -0.2284
 4668TIP3    H135419   1.248   1.365   1.826 -1.2105 -2.8727  0.3721
 4668TIP3    H235420   1.191   1.350   1.965  0.3312  4.3465  2.1869
 4669TIP3   OH235421   1.336   3.477  11.521 -0.1369 -0.4613 -0.0039
 4669TIP3    H135422   1.349   3.535  11.446 -0.1551 -0.3999  0.0406
 4669TIP3    H235423   1.312   3.535  11.593  1.8592 -0.2802  0.5674
 4670TIP3   OH235424   6.667   6.556  11.072  0.3326 -0.3409  0.0318
 4670TIP3    H135425   6.704   6.503  11.002 -0.8458 -1.1426 -0.0133
 4670TIP3    H235426   6.719   6.534  11.149  1.3376  0.2003 -0.4601
 4671TIP3   OH235427   2.821   2.992  14.486  0.3304  0.2054  0.0047
 4671TIP3    H135428   2.849   2.960  14.400 -0.3142 -0.7936  0.1418
 4671TIP3    H235429   2.881   2.950  14.548  1.6217  1.9351 -0.0115
 4672TIP3   OH235430   4.315   6.158   0.666 -0.6068 -0.4929  0.0003
 4672TIP3    H135431   4.346   6.166   0.757  0.3998  3.2337 -0.4968
 4672TIP3    H235432   4.220   6.150   0.674 -0.5546 -0.0041  1.4127
 4673TIP3   OH235433   6.066   6.534  13.235  0.0013  0.1855  0.3720
 4673TIP3    H135434   6.054   6.512  13.328 -0.9981 -1.4819 -0.1096
 4673TIP3    H235435   6.085   6.628  13.235 -1.7431  0.6069  2.1386
 4674TIP3   OH235436   6.718   6.663   3.905  0.1778  0.5315  0.1426
 4674TIP3    H135437   6.716   6.626   3.817  0.3752  2.2863 -0.6337
 4674TIP3    H235438   6.812   6.667   3.927  0.1573  0.5801  0.2225
 4675TIP3   OH235439   0.686   0.776   4.078 -0.1227 -0.4290  0.4835
 4675TIP3    H135440   0.626   0.795   4.006 -0.0836 -0.1167  0.5297
 4675TIP3    H235441   0.723   0.862   4.101 -0.1289 -0.5301  0.8704
 4676TIP3   OH235442   3.335   1.198  13.838  0.2958 -0.5251  0.5464
 4676TIP3    H135443   3.277   1.188  13.763  1.0970  1.1866 -0.3389
 4676TIP3    H235444   3.386   1.277  13.820 -0.1428  0.5219  3.3322
 4677TIP3   OH235445   0.695   5.674  14.159  0.2853 -0.5604  0.0460
 4677TIP3    H135446   0.712   5.758  14.117 -0.2013 -0.7573 -0.5557
 4677TIP3    H235447   0.776   5.653  14.204 -0.4522  1.6121  2.6641
 4678TIP3   OH235448   0.896   2.048   1.301  0.4778 -0.6497  0.0439
 4678TIP3    H135449   0.903   2.090   1.215  0.4599 -0.3477  0.1865
 4678TIP3    H235450   0.926   2.115   1.362 -0.0932 -0.6430  0.3296
 4679TIP3   OH235451   4.020   2.918   3.633  0.1264  0.2501  0.2528
 4679TIP3    H135452   4.057   2.847   3.686 -1.3099 -1.2323 -0.6493
 4679TIP3    H235453   4.032   2.890   3.543 -0.3507  1.2258 -0.1369
 4680TIP3   OH235454   1.301   3.264  12.284  0.2200  0.6793  0.4346
 4680TIP3    H135455   1.396   3.272  12.278  0.1382  1.7041  0.3381
 4680TIP3    H235456   1.286   3.216  12.366  0.8585 -0.9430 -0.3631
 4681TIP3   OH235457   6.038   1.702   5.141  0.4936  0.1974  0.7027
 4681TIP3    H135458   6.067   1.793   5.137 -1.6214  0.8961  0.3366
 4681TIP3    H235459   6.000   1.692   5.228  0.3585 -0.2241  0.6007
 4682TIP3   OH235460   3.768   5.727  15.173 -0.3411 -0.0465 -0.1591
 4682TIP3    H135461   3.784   5.635  15.194 -2.5560 -0.1051  1.6584
 4682TIP3    H235462   3.698   5.726  15.108 -0.7128  0.3579  0.2280
 4683TIP3   OH235463   5.785   2.793  12.737 -0.1587  0.3112 -0.3798
 4683TIP3    H135464   5.724   2.866  12.730  2.8331  3.0539  0.1058
 4683TIP3    H235465   5.837   2.812  12.815  1.1675 -2.0481 -0.5828
 4684TIP3   OH235466   4.950   6.243  12.380  0.0165  0.0958 -0.2152
 4684TIP3    H135467   4.872   6.207  12.339  0.9900  0.0311 -2.1341
 4684TIP3    H235468   4.917   6.295  12.453 -1.7929 -0.0514 -0.8760
 4685TIP3   OH235469   3.377   2.941  13.213  0.1802  0.3019  0.3030
 4685TIP3    H135470   3.290   2.962  13.179 -0.2960 -0.8611  0.7548
 4685TIP3    H235471   3.363   2.866  13.270  1.5433 -0.1365  0.0940
 4686TIP3   OH235472   1.171   2.572   3.555 -0.7960  0.1886  0.0354
 4686TIP3    H135473   1.129   2.658   3.550  2.0472  1.6375 -1.9690
 4686TIP3    H235474   1.196   2.553   3.464 -0.1019 -2.1241  0.6565
 4687TIP3   OH235475   3.554   0.412  11.709 -0.3469 -0.5457  0.2527
 4687TIP3    H135476   3.605   0.394  11.788  1.2053  1.5898 -0.1875
 4687TIP3    H235477   3.597   0.360  11.641  1.0261  0.8712 -0.0149
 4688TIP3   OH235478   3.427   1.309   0.187 -0.0239 -0.7868  0.0434
 4688TIP3    H135479   3.383   1.225   0.197 -1.0934 -0.1993  0.3764
 4688TIP3    H235480   3.398   1.361   0.261 -0.2477  0.2555 -0.7424
 4689TIP3   OH235481   1.292   1.242   5.807  0.0972  0.2302 -0.0855
 4689TIP3    H135482   1.225   1.265   5.742  0.8206  0.0141 -0.9366
 4689TIP3    H235483   1.294   1.146   5.806 -1.0563  0.1511  1.5121
 4690TIP3   OH235484   0.912   3.043  16.023 -0.0275 -0.3940 -0.1400
 4690TIP3    H135485   0.855   2.997  15.961 -1.4243  0.5221  0.4088
 4690TIP3    H235486   0.892   3.136  16.009  1.4033 -0.0325  0.0365
 4691TIP3   OH235487   3.918   1.479   1.688 -0.2550  0.8812 -0.2988
 4691TIP3    H135488   4.008   1.466   1.657 -0.3918 -0.0376 -0.3594
 4691TIP3    H235489   3.880   1.391   1.686 -0.7011  1.0202  1.1335
 4692TIP3   OH235490   6.263   6.394   2.267 -0.0901 -0.4755 -0.6705
 4692TIP3    H135491   6.179   6.422   2.232 -0.4537 -1.7605 -0.8611
 4692TIP3    H235492   6.269   6.438   2.353 -1.5553 -1.3816 -0.0755
 4693TIP3   OH235493   3.848   4.305   3.182 -0.3787 -0.9587  0.3861
 4693TIP3    H135494   3.820   4.216   3.161 -0.7228 -1.3435  2.3143
 4693TIP3    H235495   3.931   4.294   3.228  0.6937 -0.1066 -1.2373
 4694TIP3   OH235496   4.588   4.919   0.236 -0.5362  0.2011  0.0735
 4694TIP3    H135497   4.533   4.918   0.315 -0.1073  0.4916  0.3847
 4694TIP3    H235498   4.536   4.962   0.170 -2.1341 -2.6894 -0.7280
 4695TIP3   OH235499   2.123   4.007  11.997  0.6308  0.0289  0.7968
 4695TIP3    H135500   2.115   3.939  12.064  0.6079  0.7782  1.5723
 4695TIP3    H235501   2.217   4.025  11.992  0.8641 -1.3405 -0.7476
 4696TIP3   OH235502   5.644   1.992  12.026 -0.5511  0.4667 -0.1185
 4696TIP3    H135503   5.693   2.052  12.082  1.0102 -1.3187  0.5551
 4696TIP3    H235504   5.554   1.997  12.058  0.2004 -0.1282  2.2931
 4697TIP3   OH235505   0.665   0.917   0.349  0.0597 -0.1426  0.5014
 4697TIP3    H135506   0.591   0.861   0.326  0.6367 -1.3192  1.3434
 4697TIP3    H235507   0.672   0.979   0.277 -0.8531 -0.9238 -0.2954
 4698TIP3   OH235508   5.320   1.721   2.802 -0.3313 -0.1565 -0.4013
 4698TIP3    H135509   5.321   1.726   2.707  1.0842  0.0130 -0.3881
 4698TIP3    H235510   5.340   1.630   2.822  1.2686  0.2071 -0.2540
 4699TIP3   OH235511   0.049   1.934   2.615  0.2409  0.4557  0.0193
 4699TIP3    H135512   0.120   1.901   2.670  0.1579 -0.4882 -0.4194
 4699TIP3    H235513   0.090   1.950   2.531  0.4387  2.2108  0.4160
 4700TIP3   OH235514   6.244   6.781  13.059 -0.0121  0.5504  0.1617
 4700TIP3    H135515   6.315   6.721  13.037 -1.8246 -1.6648 -0.1367
 4700TIP3    H235516   6.217   6.818  12.975  0.7991  1.4303  0.2816
 4701TIP3   OH235517   1.345   3.345   5.049 -0.7343  0.0754 -0.4295
 4701TIP3    H135518   1.370   3.391   4.969 -2.4047  0.3828 -0.7977
 4701TIP3    H235519   1.250   3.338   5.044 -0.7307 -1.2204  0.8235
 4702TIP3   OH235520   0.455   5.056   4.906 -0.4132  0.0441 -0.0939
 4702TIP3    H135521   0.361   5.054   4.887 -0.0838  0.6576 -1.9915
 4702TIP3    H235522   0.460   5.074   5.000 -2.1798 -1.0111  0.2619
 4703TIP3   OH235523   6.195   5.210  11.552  0.2297 -0.2740  0.3061
 4703TIP3    H135524   6.105   5.240  11.563  0.3776 -0.2192  1.4506
 4703TIP3    H235525   6.188   5.132  11.497 -0.6030 -0.7781  1.1075
 4704TIP3   OH235526   6.128   6.088   4.889 -0.0504 -0.1275  0.1777
 4704TIP3    H135527   6.198   6.024   4.902 -1.3075 -1.7313 -0.7589
 4704TIP3    H235528   6.100   6.075   4.799 -2.3235 -0.3115  0.8712
 4705TIP3   OH235529   0.377   5.037   6.135 -0.1173  0.2110 -0.2800
 4705TIP3    H135530   0.367   5.088   6.215  0.4562 -0.3489  0.1563
 4705TIP3    H235531   0.414   4.954   6.163 -0.2967 -0.1538 -1.0786
 4706TIP3   OH235532   1.460   2.265   5.735  0.1710 -0.0069  0.8506
 4706TIP3    H135533   1.370   2.269   5.768  0.1580  2.3397  0.7204
 4706TIP3    H235534   1.477   2.353   5.701  1.1486 -1.4358 -2.8757
 4707TIP3   OH235535   0.575   4.911   1.367  0.0041 -0.4687  0.4428
 4707TIP3    H135536   0.586   4.874   1.454  1.6365 -1.2448 -0.0583
 4707TIP3    H235537   0.655   4.963   1.352 -0.8636  0.7895 -0.0653
 4708TIP3   OH235538   4.838   1.247   3.633  0.3862 -0.0999 -0.0032
 4708TIP3    H135539   4.786   1.190   3.576  2.2303 -1.4941 -0.3946
 4708TIP3    H235540   4.841   1.331   3.586 -1.2057 -0.0717 -0.1065
 4709TIP3   OH235541   0.614   2.743   5.253 -0.1130 -0.1109 -0.0568
 4709TIP3    H135542   0.562   2.665   5.270  1.8322 -1.4029  0.2736
 4709TIP3    H235543   0.694   2.730   5.303 -0.3856  2.9237  1.4522
 4710TIP3   OH235544   2.169   0.211   3.280 -0.0184 -0.0455 -0.0113
 4710TIP3    H135545   2.115   0.207   3.358 -0.5554  1.2099 -0.2855
 4710TIP3    H235546   2.242   0.269   3.304 -0.2627  0.4646 -0.4633
 4711TIP3   OH235547   3.636   5.897  10.475 -0.0160 -0.0392 -0.1401
 4711TIP3    H135548   3.570   5.876  10.408  0.3260  0.6775 -0.7231
 4711TIP3    H235549   3.659   5.813  10.513 -0.3811 -0.4418 -0.7836
 4712TIP3   OH235550   6.736   6.097   3.887  0.3882 -0.1712 -0.0775
 4712TIP3    H135551   6.690   6.065   3.809  0.4337 -1.6923  0.4775
 4712TIP3    H235552   6.667   6.126   3.946  0.0338 -2.4567  0.7565
 4713TIP3   OH235553   6.275   4.219  11.773  0.4421  0.0183 -0.4313
 4713TIP3    H135554   6.244   4.308  11.783 -2.5802 -1.0848  1.1647
 4713TIP3    H235555   6.297   4.190  11.862  1.0620 -0.9583 -0.8767
 4714TIP3   OH235556   4.022   4.318   0.408  0.4475 -0.2909 -0.4421
 4714TIP3    H135557   4.105   4.299   0.364  0.1058 -1.3251 -0.6844
 4714TIP3    H235558   3.998   4.235   0.450 -0.8726 -0.2756 -1.0962
 4715TIP3   OH235559   4.758   0.312   3.706 -0.1065 -0.0952  0.0842
 4715TIP3    H135560   4.842   0.265   3.709 -0.3703 -0.5915 -0.1296
 4715TIP3    H235561   4.740   0.322   3.612 -0.9786 -1.2712  0.0993
 4716TIP3   OH235562   4.345   0.465  16.289 -0.4684  0.2176  0.0936
 4716TIP3    H135563   4.346   0.480  16.195  0.9122 -0.8008 -0.0872
 4716TIP3    H235564   4.437   0.458  16.314 -0.8236 -1.6632  1.1381
 4717TIP3   OH235565   4.136   6.687  16.241  0.3678 -0.2511 -1.0587
 4717TIP3    H135566   4.136   6.782  16.227  1.1916 -0.1120 -0.2211
 4717TIP3    H235567   4.063   6.672  16.302  0.8526 -0.0101 -0.4037
 4718TIP3   OH235568   3.878   6.524  11.430  0.3042 -0.2524  0.0473
 4718TIP3    H135569   3.957   6.509  11.379  1.1214  0.3350  1.0912
 4718TIP3    H235570   3.909   6.567  11.510 -1.0088 -0.4897  0.7154
 4719TIP3   OH235571   5.703   2.465   1.408  0.4431  0.0790  0.1143
 4719TIP3    H135572   5.696   2.371   1.391  0.9327  0.3102 -1.5803
 4719TIP3    H235573   5.670   2.476   1.497  0.8532 -1.7610  0.5416
 4720TIP3   OH235574   4.119   1.449   2.117  0.4425 -0.1322 -0.3822
 4720TIP3    H135575   4.060   1.494   2.057 -0.9177 -0.7857  0.4178
 4720TIP3    H235576   4.178   1.399   2.060 -0.0687  0.1634 -1.1918
 4721TIP3   OH235577   6.144   2.642   1.214  0.1289  0.6154 -0.5345
 4721TIP3    H135578   6.143   2.547   1.225  0.9732  0.6893  0.2680
 4721TIP3    H235579   6.052   2.666   1.202 -0.0182 -0.3812 -1.5528
 4722TIP3   OH235580   6.472   6.316  10.549  0.7783  0.2504  0.2934
 4722TIP3    H135581   6.393   6.283  10.506  1.9164 -2.0493 -0.1911
 4722TIP3    H235582   6.494   6.396  10.500  1.3546 -1.5998 -2.7633
 4723TIP3   OH235583   2.332   4.318  13.724 -0.3338 -0.0211  0.6717
 4723TIP3    H135584   2.408   4.375  13.732 -0.3392  0.4500 -1.7586
 4723TIP3    H235585   2.368   4.230  13.711 -0.1729  0.1869 -0.3753
 4724TIP3   OH235586   0.761   1.654  10.832  0.3375 -0.3064  0.3181
 4724TIP3    H135587   0.856   1.656  10.822  0.2283 -1.3018 -1.0874
 4724TIP3    H235588   0.746   1.596  10.907  0.8128 -0.9857 -0.1039
 4725TIP3   OH235589   2.426   1.677  17.248 -0.3452 -0.2585 -0.0274
 4725TIP3    H135590   2.376   1.676  17.166  0.9036 -2.9610 -0.8812
 4725TIP3    H235591   2.436   1.770  17.268 -2.1604  0.4652 -1.9926
 4726TIP3   OH235592   0.629   2.045  13.377  0.3547 -0.0290  0.0933
 4726TIP3    H135593   0.636   2.100  13.299  0.8301  0.2197  0.3110
 4726TIP3    H235594   0.662   2.099  13.448  1.2772 -0.7544  0.2337
 4727TIP3   OH235595   4.740   5.595   3.014  0.2684 -0.0658 -0.2723
 4727TIP3    H135596   4.828   5.630   3.002 -0.4908  1.5314 -1.5128
 4727TIP3    H235597   4.702   5.648   3.084  0.5973 -1.4550  1.0264
 4728TIP3   OH235598   5.541   4.489   5.219 -0.3221 -0.2144 -0.3354
 4728TIP3    H135599   5.601   4.423   5.255  1.0050  1.0479 -0.1497
 4728TIP3    H235600   5.470   4.438   5.180  0.7207 -1.7578 -0.2904
 4729TIP3   OH235601   4.757   1.564   4.788  0.4010  0.5437 -0.0956
 4729TIP3    H135602   4.805   1.631   4.836 -0.4230 -0.4071  2.1754
 4729TIP3    H235603   4.817   1.491   4.782  0.0761  0.1974  0.6871
 4730TIP3   OH235604   1.779   4.482   5.279 -0.2260 -0.6558  0.0674
 4730TIP3    H135605   1.696   4.526   5.294 -0.3444 -1.0913  0.7818
 4730TIP3    H235606   1.829   4.498   5.359  0.0128 -1.1727  0.0301
 4731TIP3   OH235607   6.191   0.788  13.716 -0.4181 -0.2571 -0.3718
 4731TIP3    H135608   6.112   0.746  13.684 -0.0591  0.6671 -2.6785
 4731TIP3    H235609   6.194   0.872  13.670  0.5800  0.8661  1.6118
 4732TIP3   OH235610   2.949   0.802  12.600  0.0275 -0.5290 -0.1010
 4732TIP3    H135611   3.029   0.843  12.631  0.1263 -0.0431 -0.9477
 4732TIP3    H235612   2.880   0.866  12.620  0.0481 -0.3525 -0.5827
 4733TIP3   OH235613   5.817   4.722   3.468 -0.0552 -0.1908  0.7793
 4733TIP3    H135614   5.789   4.711   3.559  0.2267 -1.2881  0.7455
 4733TIP3    H235615   5.897   4.670   3.461  0.2350  0.3381  0.0422
 4734TIP3   OH235616   5.192   0.761   1.345 -0.2959 -0.2798 -0.4990
 4734TIP3    H135617   5.118   0.735   1.291 -0.2447 -2.7021  0.4747
 4734TIP3    H235618   5.160   0.835   1.396 -1.5791 -0.3965 -1.1049
 4735TIP3   OH235619   0.129   1.529  16.344  0.5762 -0.4254  0.2305
 4735TIP3    H135620   0.124   1.483  16.428 -1.6673 -0.0812  0.3554
 4735TIP3    H235621   0.182   1.472  16.288  1.5904 -0.9616  1.6920
 4736TIP3   OH235622   2.989   4.756  10.737 -0.3251 -0.4611  1.0823
 4736TIP3    H135623   2.945   4.680  10.698  1.2659 -0.0014 -1.8682
 4736TIP3    H235624   2.945   4.832  10.699  0.0026  0.0871  1.7615
 4737TIP3   OH235625   5.899   1.517   4.037 -0.7234  1.1675  0.1648
 4737TIP3    H135626   5.804   1.507   4.043 -0.7984  2.0542  0.6219
 4737TIP3    H235627   5.930   1.430   4.012 -1.3923  0.0052  2.9697
 4738TIP3   OH235628   5.402   1.426  13.252 -0.5342 -0.3753 -0.0615
 4738TIP3    H135629   5.404   1.447  13.159 -0.9626  1.9479  0.4072
 4738TIP3    H235630   5.441   1.502  13.295 -0.4515 -1.3498  1.6785
 4739TIP3   OH235631   4.150   4.767   4.338  0.0168  0.8585 -0.3714
 4739TIP3    H135632   4.193   4.754   4.422 -1.8720  0.3524  0.5790
 4739TIP3    H235633   4.065   4.807   4.360 -0.9258 -0.1449 -1.9347
 4740TIP3   OH235634   6.006   1.686   2.637 -0.1078 -0.6716 -0.1463
 4740TIP3    H135635   5.929   1.641   2.672 -0.5590  1.2235  1.4554
 4740TIP3    H235636   6.023   1.642   2.554 -3.1053 -0.9721 -0.7232
 4741TIP3   OH235637   3.395   4.316  15.950  0.1464 -0.2132  0.1547
 4741TIP3    H135638   3.411   4.363  15.867 -1.0070 -2.2443 -1.3134
 4741TIP3    H235639   3.353   4.234  15.923  0.8380 -1.5027  2.6869
 4742TIP3   OH235640   2.823   2.366   5.404 -0.2388  0.7482 -0.0728
 4742TIP3    H135641   2.791   2.405   5.323 -0.0762 -1.2411 -1.1521
 4742TIP3    H235642   2.779   2.281   5.409  2.3784 -0.7095  0.0207
 4743TIP3   OH235643   3.531   6.376   0.146  0.7678  0.1676 -0.1351
 4743TIP3    H135644   3.552   6.468   0.129  2.3769 -0.1197  0.1346
 4743TIP3    H235645   3.477   6.379   0.225  1.7423  0.8373  0.5395
 4744TIP3   OH235646   1.610   6.696   1.799  0.2477 -0.4566 -0.3695
 4744TIP3    H135647   1.604   6.792   1.793  1.2325 -0.3640 -0.0865
 4744TIP3    H235648   1.564   6.664   1.722 -3.0676  0.1127  1.1926
 4745TIP3   OH235649   5.400   2.423   6.721  0.1218 -0.1840  0.3453
 4745TIP3    H135650   5.321   2.466   6.688  0.8691  0.7404 -0.2930
 4745TIP3    H235651   5.368   2.355   6.780 -1.1028  1.6169  1.8355
 4746TIP3   OH235652   3.769   0.122   2.123  0.1171  0.1592 -0.0499
 4746TIP3    H135653   3.774   0.187   2.052 -1.2940  0.6982  0.2940
 4746TIP3    H235654   3.804   0.167   2.199 -0.7448  0.5143  0.1591
 4747TIP3   OH235655   1.153   0.699   0.539  0.0516 -0.3933 -0.0806
 4747TIP3    H135656   1.085   0.695   0.607 -0.3996  0.3163 -0.4798
 4747TIP3    H235657   1.235   0.712   0.587 -0.3856  1.1362  0.2855
 4748TIP3   OH235658   4.519   4.656   3.240 -0.3012  0.0448 -0.1982
 4748TIP3    H135659   4.514   4.725   3.174 -0.5682  0.1050 -0.1162
 4748TIP3    H235660   4.586   4.687   3.301 -1.1106  0.7074  0.3765
 4749TIP3   OH235661   4.334   1.079  13.309  0.3280 -0.1036  0.6883
 4749TIP3    H135662   4.293   1.019  13.371  0.3037  0.3663  1.1292
 4749TIP3    H235663   4.387   1.022  13.253 -1.6136 -0.8618 -0.4935
 4750TIP3   OH235664   0.996   1.144  13.138  0.2668 -0.0191  0.5586
 4750TIP3    H135665   0.970   1.083  13.070  0.8917  0.5362 -0.2106
 4750TIP3    H235666   0.920   1.152  13.194 -0.5021  0.0129 -0.4572
 4751TIP3   OH235667   1.655   6.415  15.965  0.3340 -0.1785 -0.1828
 4751TIP3    H135668   1.686   6.493  15.921 -0.2790  1.4249  2.0550
 4751TIP3    H235669   1.732   6.359  15.972  0.7937  0.1896 -1.7710
 4752TIP3   OH235670   6.479   4.651   6.044 -0.6241 -0.4573 -0.2634
 4752TIP3    H135671   6.456   4.742   6.061 -2.5666 -0.7618 -0.9735
 4752TIP3    H235672   6.574   4.650   6.042 -0.5105  1.1978  1.5622
 4753TIP3   OH235673   3.842   2.491  13.951  0.7723 -0.6482  0.7034
 4753TIP3    H135674   3.879   2.477  14.039 -1.4805 -0.6912  1.7181
 4753TIP3    H235675   3.755   2.452  13.956  0.4327 -0.2454 -1.4461
 4754TIP3   OH235676   0.430   5.778  12.594  0.6485 -0.1821  0.6234
 4754TIP3    H135677   0.463   5.692  12.620  0.5632 -0.3120  0.3063
 4754TIP3    H235678   0.469   5.839  12.656  0.7578 -0.4440  0.8116
 4755TIP3   OH235679   4.803   4.779   1.975 -0.2376 -0.0504 -0.0108
 4755TIP3    H135680   4.841   4.692   1.988  1.3582  0.2459 -2.1831
 4755TIP3    H235681   4.716   4.763   1.939 -0.2032 -0.7405  0.2101
 4756TIP3   OH235682   6.647   5.593  17.246 -0.3883 -0.1649 -0.1208
 4756TIP3    H135683   6.604   5.548  17.174  0.0379  1.3010 -1.3292
 4756TIP3    H235684   6.577   5.643  17.289 -0.6487 -1.0673  0.5481
 4757TIP3   OH235685   0.732   3.276   5.594 -0.6385 -0.0877 -0.3379
 4757TIP3    H135686   0.679   3.291   5.516  1.1627 -1.1781 -1.8750
 4757TIP3    H235687   0.786   3.355   5.602 -0.6554 -0.0768 -0.3303
 4758TIP3   OH235688   1.504   6.075  13.435 -0.4552 -0.5431 -0.3037
 4758TIP3    H135689   1.465   6.159  13.410  0.0583  0.1619  1.1521
 4758TIP3    H235690   1.430   6.015  13.440 -1.0202  0.1538 -0.0655
 4759TIP3   OH235691   2.709   4.469  17.147  0.1468  0.2852 -0.4823
 4759TIP3    H135692   2.627   4.444  17.189  0.4101 -1.9107 -1.1593
 4759TIP3    H235693   2.777   4.449  17.211  0.2779  0.3315 -0.6042
 4760TIP3   OH235694   5.259   6.262   0.402 -0.2309 -0.7559 -0.2748
 4760TIP3    H135695   5.279   6.325   0.471 -0.7317 -1.9585  1.0292
 4760TIP3    H235696   5.336   6.262   0.346  0.9790 -1.0056  1.2985
 4761TIP3   OH235697   3.771   5.820  14.659 -0.6732 -0.2969  0.2711
 4761TIP3    H135698   3.859   5.855  14.678 -1.0633  1.9063 -1.5627
 4761TIP3    H235699   3.780   5.779  14.573 -1.7817  1.5292 -0.7660
 4762TIP3   OH235700   2.639   4.797   0.707  0.3664 -0.6513  0.4102
 4762TIP3    H135701   2.573   4.731   0.685 -0.5925  0.6860 -0.9018
 4762TIP3    H235702   2.723   4.754   0.687 -0.2622 -1.2530 -1.0738
 4763TIP3   OH235703   4.191   6.253  15.038  0.2112 -0.5941  0.4559
 4763TIP3    H135704   4.212   6.163  15.064 -1.7680 -1.2973 -0.1694
 4763TIP3    H235705   4.179   6.249  14.943  1.5472  0.6810  0.1949
 4764TIP3   OH235706   4.062   0.536  11.746 -0.3332 -0.9055 -0.8226
 4764TIP3    H135707   4.064   0.600  11.674  2.6136 -0.7696 -0.7612
 4764TIP3    H235708   4.043   0.588  11.824  3.1706  0.2992 -0.5925
 4765TIP3   OH235709   2.152   1.541  16.503 -0.4402  0.2801  0.7604
 4765TIP3    H135710   2.214   1.598  16.548  0.7094 -0.8147  0.6296
 4765TIP3    H235711   2.207   1.479  16.455 -1.6332  0.3491 -0.8001
 4766TIP3   OH235712   1.317   3.816   4.591 -0.2315  0.3279  0.3084
 4766TIP3    H135713   1.344   3.908   4.595 -0.9650  0.6422 -1.0685
 4766TIP3    H235714   1.388   3.773   4.543 -0.1660  0.3079  0.4254
 4767TIP3   OH235715   4.491   3.045   3.434  0.1795 -0.5323 -0.3252
 4767TIP3    H135716   4.477   3.062   3.527  0.3614 -0.5891 -0.2885
 4767TIP3    H235717   4.515   3.129   3.397  0.0750 -0.5030 -0.3273
 4768TIP3   OH235718   4.700   2.120  13.975  0.0010  0.0378  0.4733
 4768TIP3    H135719   4.638   2.151  13.909 -0.1411  0.7835  0.9428
 4768TIP3    H235720   4.784   2.157  13.949 -0.1144  0.6028  0.8725
 4769TIP3   OH235721   4.997   1.575   5.273  0.9768  0.5776  0.0724
 4769TIP3    H135722   5.074   1.546   5.322 -0.5200  0.5915  2.6095
 4769TIP3    H235723   4.923   1.535   5.319 -0.5980  1.0985 -1.8795
 4770TIP3   OH235724   5.430   6.217  14.455  0.3270  0.3757  0.0551
 4770TIP3    H135725   5.395   6.217  14.544  0.2989  2.3777  0.1027
 4770TIP3    H235726   5.427   6.126  14.428 -1.8417  0.0076  1.2691
 4771TIP3   OH235727   2.930   5.348  16.389  0.0820 -0.0815 -0.2485
 4771TIP3    H135728   3.020   5.352  16.356  0.3709 -0.3089  0.4743
 4771TIP3    H235729   2.932   5.403  16.468 -0.7523  0.9945 -0.9578
 4772TIP3   OH235730   3.052   1.304  16.018  0.4832  0.3177 -0.2431
 4772TIP3    H135731   3.122   1.238  16.020  0.9733  0.8269 -0.2253
 4772TIP3    H235732   3.084   1.373  16.076 -0.9515 -0.3245  1.3981
 4773TIP3   OH235733   6.737   3.579  13.474  0.4241  0.6719 -1.2602
 4773TIP3    H135734   6.758   3.671  13.459  0.8820  0.8680  0.3839
 4773TIP3    H235735   6.668   3.580  13.540  0.7664 -0.1577 -0.8645
 4774TIP3   OH235736   6.256   4.038  14.908  0.0778  0.0130 -0.6377
 4774TIP3    H135737   6.305   4.115  14.937 -0.2627  1.1686 -2.9205
 4774TIP3    H235738   6.224   4.061  14.821 -2.6942 -1.5516 -0.1297
 4775TIP3   OH235739   0.087   3.715   2.953 -0.0728  0.3066  0.0185
 4775TIP3    H135740  -0.007   3.729   2.959 -0.2369 -1.1124  1.1920
 4775TIP3    H235741   0.106   3.645   3.016  1.5228 -0.5172 -1.2828
 4776TIP3   OH235742   0.474   2.599   0.699 -0.3985  0.5319  0.2047
 4776TIP3    H135743   0.511   2.685   0.718 -0.1334  0.2527  0.9852
 4776TIP3    H235744   0.380   2.615   0.692 -0.2636  1.0401 -0.6017
 4777TIP3   OH235745   0.027   0.646  11.620  0.0041  0.0949  0.0577
 4777TIP3    H135746   0.069   0.584  11.679 -0.8362 -0.1416  0.4190
 4777TIP3    H235747  -0.051   0.675  11.667 -0.2009  0.5777 -0.5683
 4778TIP3   OH235748   0.559   3.294   6.706  0.4744 -0.5187 -0.3102
 4778TIP3    H135749   0.570   3.368   6.647  0.6413 -0.3134 -0.0253
 4778TIP3    H235750   0.637   3.295   6.761 -0.1172 -0.1081  0.5589
 4779TIP3   OH235751   1.016   3.743  10.528  0.2572  0.6087  0.4388
 4779TIP3    H135752   1.007   3.814  10.465  0.0145  1.5641  1.5136
 4779TIP3    H235753   1.111   3.731  10.537  0.3186  1.3133  0.7975
 4780TIP3   OH235754   1.873   4.902   3.669  0.4195  0.2908  0.7114
 4780TIP3    H135755   1.892   4.809   3.667  0.5158  0.3215 -0.1126
 4780TIP3    H235756   1.895   4.929   3.759  0.1199 -0.5209  1.0379
 4781TIP3   OH235757   2.442   4.488  17.233 -0.0573 -0.1590  0.4955
 4781TIP3    H135758   2.478   4.506  17.320 -1.0418  1.8185  0.5369
 4781TIP3    H235759   2.425   4.574  17.196 -0.3382 -0.9890 -1.3907
 4782TIP3   OH235760   0.360   5.021  16.465  0.0790 -0.1947  0.0515
 4782TIP3    H135761   0.397   4.949  16.414 -0.5509 -1.7051  1.6015
 4782TIP3    H235762   0.436   5.068  16.498  0.4947  0.3737 -1.6144
 4783TIP3   OH235763   1.611   1.169   5.324 -0.0756 -0.2251 -0.0203
 4783TIP3    H135764   1.592   1.114   5.400 -0.7301 -1.8660 -1.2912
 4783TIP3    H235765   1.674   1.118   5.273  0.8897  1.1583 -0.2443
 4784TIP3   OH235766   6.456   1.529  13.804 -0.3022  0.1517  0.2245
 4784TIP3    H135767   6.473   1.472  13.729 -0.5427 -1.0793  1.0841
 4784TIP3    H235768   6.361   1.541  13.804 -0.1173  2.1142 -1.0338
 4785TIP3   OH235769   3.499   2.007   0.851  0.5261  0.3865  0.4344
 4785TIP3    H135770   3.524   2.068   0.782 -0.2911  1.4873  1.0830
 4785TIP3    H235771   3.554   2.032   0.926  0.4998  0.0385  0.5713
 4786TIP3   OH235772   1.460   3.992  15.005  0.5084 -0.0914 -0.0037
 4786TIP3    H135773   1.501   3.905  14.994  1.6146  0.0432  2.5041
 4786TIP3    H235774   1.533   4.050  15.027 -0.2852  1.4333 -1.2105
 4787TIP3   OH235775   4.173   4.502   6.027  0.3087 -0.2835  0.5273
 4787TIP3    H135776   4.086   4.462   6.026  0.4578 -0.7183 -2.0554
 4787TIP3    H235777   4.229   4.435   6.067  0.0620 -1.5707 -1.1736
 4788TIP3   OH235778   4.051   3.777  11.527 -0.2447 -0.1685  0.4112
 4788TIP3    H135779   4.078   3.811  11.442  1.9044  0.6627  1.3706
 4788TIP3    H235780   4.073   3.684  11.524 -0.3121 -0.1727  0.0077
 4789TIP3   OH235781   1.923   1.978  14.053 -0.4588 -0.3662 -0.1940
 4789TIP3    H135782   1.870   1.929  14.116 -0.8457  0.8287  0.4304
 4789TIP3    H235783   1.999   2.008  14.103 -2.0988  2.9956  0.5814
 4790TIP3   OH235784   1.403   2.314  17.168  0.0227  0.4481  0.4804
 4790TIP3    H135785   1.314   2.315  17.201 -0.5036 -1.3635 -0.7234
 4790TIP3    H235786   1.394   2.337  17.075  0.8961  0.8668  0.4862
 4791TIP3   OH235787   0.143   0.300   5.160  0.4866  0.2957  0.1041
 4791TIP3    H135788   0.076   0.249   5.115  2.6067 -0.9835 -1.8348
 4791TIP3    H235789   0.200   0.332   5.090  1.5841  1.8366  1.6058
 4792TIP3   OH235790   3.504   3.053   4.068  0.5949 -0.7281  0.6916
 4792TIP3    H135791   3.440   3.123   4.081  0.2861 -0.9119  0.2248
 4792TIP3    H235792   3.563   3.088   4.001  1.3449 -0.3273  1.5414
 4793TIP3   OH235793   2.325   6.634   6.531  0.0146 -0.8777 -0.1338
 4793TIP3    H135794   2.239   6.673   6.512 -0.1545  0.2654  2.5295
 4793TIP3    H235795   2.305   6.542   6.549 -0.5109 -0.8463 -0.5150
 4794TIP3   OH235796   3.694   5.211  14.877  0.0491 -0.0995 -0.1726
 4794TIP3    H135797   3.718   5.160  14.799  0.7298 -1.0743  0.6476
 4794TIP3    H235798   3.778   5.233  14.917 -0.3218 -1.1382  1.2377
 4795TIP3   OH235799   2.737   0.462  16.457  0.1437  0.3030 -0.3990
 4795TIP3    H135800   2.726   0.484  16.364  1.7504 -0.7995 -0.8874
 4795TIP3    H235801   2.712   0.370  16.462  0.0343  0.3701  0.2732
 4796TIP3   OH235802   3.852   6.791  12.519  0.1739  0.2637  0.0930
 4796TIP3    H135803   3.788   6.762  12.584 -0.1089  0.3729 -0.1325
 4796TIP3    H235804   3.799   6.832  12.450  0.5033  0.5598  0.0111
 4797TIP3   OH235805   0.171   5.172  15.528 -0.4137  0.0978  0.2789
 4797TIP3    H135806   0.196   5.244  15.470  0.3886  0.2532  0.8026
 4797TIP3    H235807   0.120   5.214  15.597  1.2107  0.4214  1.3448
 4798TIP3   OH235808   5.675   0.650  15.941  0.1182 -0.1433  0.1727
 4798TIP3    H135809   5.642   0.573  15.987 -1.5622  1.5131  1.9179
 4798TIP3    H235810   5.625   0.651  15.859  1.1146 -1.5756 -0.5027
 4799TIP3   OH235811   0.460   0.007   4.891 -0.5886  0.3681 -0.0195
 4799TIP3    H135812   0.505  -0.061   4.841 -2.1127 -2.1306  1.7537
 4799TIP3    H235813   0.371   0.007   4.855 -0.7602  0.9890  0.4005
 4800TIP3   OH235814   0.006   4.527  12.698 -0.0401  0.1044 -0.2020
 4800TIP3    H135815   0.002   4.499  12.789 -0.3387 -0.1123 -0.2794
 4800TIP3    H235816  -0.082   4.509  12.663  0.0510  0.2495 -0.5118
 4801TIP3   OH235817   0.745   5.920   0.873  0.1421  0.2952 -0.7189
 4801TIP3    H135818   0.788   6.000   0.905 -0.1373  0.0149  0.3733
 4801TIP3    H235819   0.817   5.858   0.859  0.2589  0.4047 -0.6010
 4802TIP3   OH235820   6.236   1.066  13.580  0.4889  0.1063 -0.3799
 4802TIP3    H135821   6.253   1.135  13.644 -1.4222  0.5364 -0.3028
 4802TIP3    H235822   6.169   1.101  13.522  0.9629 -0.9224 -1.6106
 4803TIP3   OH235823   2.362   3.276  12.923 -0.5600 -0.4236  0.2652
 4803TIP3    H135824   2.454   3.277  12.952 -0.8849 -1.8485  1.4625
 4803TIP3    H235825   2.367   3.277  12.827  0.7332 -1.1326  0.2994
 4804TIP3   OH235826   2.379   4.782  14.481  0.3328  0.6141  0.5332
 4804TIP3    H135827   2.439   4.852  14.455 -0.0218  0.6442 -0.2497
 4804TIP3    H235828   2.373   4.789  14.576  0.8786  1.1712  0.5315
 4805TIP3   OH235829   0.603   0.831   2.912 -0.1473  0.7172 -0.3913
 4805TIP3    H135830   0.621   0.917   2.874  1.1475  1.1147  1.0107
 4805TIP3    H235831   0.550   0.850   2.989 -0.4095  0.1834 -0.4346
 4806TIP3   OH235832   0.767   6.623  12.164  0.0387 -0.3008  0.8544
 4806TIP3    H135833   0.799   6.672  12.088  2.1281 -0.4312  1.5844
 4806TIP3    H235834   0.710   6.556  12.126  2.5337 -1.6247 -0.8807
 4807TIP3   OH235835   3.191   0.595   1.827  0.0874  0.0021 -0.5693
 4807TIP3    H135836   3.159   0.565   1.912 -0.0141 -2.1640 -1.3248
 4807TIP3    H235837   3.122   0.654   1.795 -0.5786 -0.3396  0.2103
 4808TIP3   OH235838   4.913   1.476   0.688 -0.4031 -0.1062 -0.1547
 4808TIP3    H135839   4.921   1.552   0.746  0.8814 -1.3676  1.4111
 4808TIP3    H235840   4.883   1.405   0.745 -1.4847 -0.8368 -1.5606
 4809TIP3   OH235841   0.482   1.596  12.955  0.2292  0.8970 -0.2361
 4809TIP3    H135842   0.557   1.649  12.930 -0.4982  2.7577  1.2335
 4809TIP3    H235843   0.506   1.557  13.039 -0.0068  0.5562 -0.3228
 4810TIP3   OH235844   5.700   2.535  11.741 -0.2909 -0.2105  0.9396
 4810TIP3    H135845   5.650   2.616  11.747 -0.5930 -0.3804  0.7699
 4810TIP3    H235846   5.791   2.563  11.733 -0.4228  0.1204  0.5445
 4811TIP3   OH235847   3.193   0.780  15.922  0.0798 -0.0752  0.0649
 4811TIP3    H135848   3.150   0.731  15.853 -0.3821  0.8659 -0.3228
 4811TIP3    H235849   3.231   0.856  15.879  0.0424  0.3707  0.7898
 4812TIP3   OH235850   6.232   6.187  15.095  0.4716 -0.1308  0.1481
 4812TIP3    H135851   6.214   6.224  15.181  0.8748  0.3874  0.0133
 4812TIP3    H235852   6.163   6.121  15.082  0.7876 -0.6605  1.1230
 4813TIP3   OH235853   3.725   6.382   3.905 -0.3395 -0.4401  0.3167
 4813TIP3    H135854   3.636   6.410   3.883 -0.3728  0.2835  1.2691
 4813TIP3    H235855   3.727   6.384   4.001  0.8203 -0.0189  0.3023
 4814TIP3   OH235856   5.644   1.394   3.985  0.1051  0.3250  0.2088
 4814TIP3    H135857   5.590   1.362   3.912  1.3116 -1.1427 -0.0700
 4814TIP3    H235858   5.602   1.358   4.063  0.2203 -0.1484  0.0553
 4815TIP3   OH235859   1.192   0.345  17.223 -0.2209  0.5379  0.6760
 4815TIP3    H135860   1.268   0.379  17.176 -0.3426  0.0654  0.1099
 4815TIP3    H235861   1.188   0.253  17.196 -0.5296  0.3621  1.3162
 4816TIP3   OH235862   4.371   2.633   0.461 -0.0587  0.5885  0.1481
 4816TIP3    H135863   4.380   2.541   0.435  0.8499  0.7973 -0.3395
 4816TIP3    H235864   4.277   2.648   0.464 -0.2176  0.0090 -1.1576
 4817TIP3   OH235865   0.154   6.062  15.790 -0.4876  0.2101 -0.4748
 4817TIP3    H135866   0.148   6.144  15.840  1.5761  1.2295 -1.7814
 4817TIP3    H235867   0.112   6.083  15.706 -0.7642 -0.3613 -0.4798
 4818TIP3   OH235868   1.124   0.708   6.286  0.6266  0.6578 -0.6745
 4818TIP3    H135869   1.211   0.694   6.322  0.5934  1.0709 -0.4346
 4818TIP3    H235870   1.082   0.768   6.347  0.0009  0.0725 -0.5183
 4819TIP3   OH235871   1.352   4.669  10.945 -0.0553 -0.1851 -0.5158
 4819TIP3    H135872   1.446   4.675  10.964 -0.3293 -1.0339  1.3558
 4819TIP3    H235873   1.347   4.622  10.863  1.1619 -0.0241 -0.7030
 4820TIP3   OH235874   5.463   0.176  15.993  0.0969  0.2172 -0.3529
 4820TIP3    H135875   5.407   0.209  16.064  0.3961 -0.5105  0.2346
 4820TIP3    H235876   5.420   0.096  15.964  0.1809  0.3107 -0.7433
 4821TIP3   OH235877   3.684   6.097   4.198  0.6681  0.4898  0.1969
 4821TIP3    H135878   3.755   6.131   4.253 -0.3225  2.2081  0.4663
 4821TIP3    H235879   3.719   6.103   4.109  0.8769  1.3449  0.3268
 4822TIP3   OH235880   0.171   3.805  15.427 -0.0350  0.0051 -0.0037
 4822TIP3    H135881   0.228   3.788  15.502 -0.8013 -0.7734  0.4211
 4822TIP3    H235882   0.208   3.753  15.356  0.1864  0.0594  0.0706
 4823TIP3   OH235883   4.679   3.168   3.107 -0.2661 -0.3314 -0.7819
 4823TIP3    H135884   4.712   3.097   3.162 -2.2345  0.4361  1.5282
 4823TIP3    H235885   4.633   3.123   3.035  2.2060 -1.3429 -1.8585
 4824TIP3   OH235886   0.712   4.676   1.529  0.5039 -0.6334 -0.0925
 4824TIP3    H135887   0.697   4.633   1.613 -1.1546 -0.3240 -0.1891
 4824TIP3    H235888   0.758   4.757   1.552  0.1498 -0.5944  0.5278
 4825TIP3   OH235889   5.285   3.285   2.193 -0.3215  0.7157 -0.3671
 4825TIP3    H135890   5.213   3.346   2.179 -1.4964 -0.5410 -0.0596
 4825TIP3    H235891   5.244   3.209   2.235  1.2754  0.1508  0.2429
 4826TIP3   OH235892   1.508   4.730   4.993 -0.2125  0.1606  1.4011
 4826TIP3    H135893   1.527   4.639   5.015  0.1613  0.3344  1.8283
 4826TIP3    H235894   1.593   4.774   5.000  0.0400  0.1489 -0.9492
 4827TIP3   OH235895   1.885   3.463  14.297 -0.4150  0.6393 -0.3075
 4827TIP3    H135896   1.935   3.388  14.327 -0.3464  1.2564  1.1953
 4827TIP3    H235897   1.915   3.478  14.207 -0.9660 -1.5518 -0.9164
 4828TIP3   OH235898   0.708   0.286   2.750 -0.2043  0.2255  0.2922
 4828TIP3    H135899   0.655   0.363   2.729  0.6035  1.5437  2.7481
 4828TIP3    H235900   0.644   0.215   2.757 -1.1774  1.0038 -0.3511
 4829TIP3   OH235901   6.474   0.719   3.124  0.2148 -0.0042  0.1204
 4829TIP3    H135902   6.382   0.737   3.109 -0.1381 -0.6848  1.3317
 4829TIP3    H235903   6.478   0.683   3.212  1.8161  1.2989  0.6404
 4830TIP3   OH235904   1.556   0.844  16.671  0.4829 -0.2113  0.4117
 4830TIP3    H135905   1.619   0.879  16.734  1.2797 -0.5120 -0.2069
 4830TIP3    H235906   1.605   0.778  16.622 -0.5993 -1.2120  0.6235
 4831TIP3   OH235907   1.462   4.438   5.746 -0.0409  0.1093 -0.2764
 4831TIP3    H135908   1.422   4.353   5.768  3.0680 -1.2368  0.7694
 4831TIP3    H235909   1.453   4.444   5.651 -1.4722 -0.7362 -0.2324
 4832TIP3   OH235910   4.550   3.007   2.779  0.1916 -0.1468 -0.1299
 4832TIP3    H135911   4.539   3.102   2.782 -1.8879 -0.3471  0.0239
 4832TIP3    H235912   4.557   2.986   2.686 -1.5256 -0.0109 -0.3206
 4833TIP3   OH235913   6.766   3.009  15.805 -0.1835  0.6171  0.2785
 4833TIP3    H135914   6.741   2.978  15.718  3.4481 -0.3678 -0.5814
 4833TIP3    H235915   6.726   3.095  15.813 -1.3827  0.3315 -1.9516
 4834TIP3   OH235916   4.784   5.200  11.569 -0.1535  0.5457 -0.2289
 4834TIP3    H135917   4.806   5.198  11.662 -1.0161 -2.9886  0.0002
 4834TIP3    H235918   4.850   5.144  11.527  0.1220  1.9340 -1.7949
 4835TIP3   OH235919   6.044   5.026  14.921  0.3866 -0.1576 -0.0878
 4835TIP3    H135920   6.037   4.988  15.009 -0.8102 -2.6503 -1.1396
 4835TIP3    H235921   6.085   5.111  14.934  2.6520 -1.5083  2.5920
 4836TIP3   OH235922   4.834   0.646  14.401 -0.3044  0.0030  0.7225
 4836TIP3    H135923   4.747   0.685  14.401 -0.3387 -0.0658  0.2334
 4836TIP3    H235924   4.844   0.608  14.314 -0.1456 -0.7955  1.0784
 4837TIP3   OH235925   1.478   0.604   2.616 -0.0544 -0.5147 -0.3608
 4837TIP3    H135926   1.540   0.553   2.669 -0.0748  1.4143  1.6588
 4837TIP3    H235927   1.427   0.653   2.680 -1.2897  0.6116 -2.1390
 4838TIP3   OH235928   3.095   4.751   0.404 -0.3929 -0.5557  0.1007
 4838TIP3    H135929   3.079   4.819   0.469  0.5786  0.1496 -0.3771
 4838TIP3    H235930   3.167   4.699   0.440  0.2609 -0.0606 -0.4693
 4839TIP3   OH235931   4.767   1.533   2.712  0.0957 -0.5123 -0.2026
 4839TIP3    H135932   4.824   1.462   2.740 -0.5909 -1.4508 -1.1289
 4839TIP3    H235933   4.680   1.494   2.707 -0.2717  0.3514 -0.8706
 4840TIP3   OH235934   6.234   1.102   0.069  0.4783  0.3894  0.5308
 4840TIP3    H135935   6.222   1.148  -0.014 -0.4138 -0.0755  0.3834
 4840TIP3    H235936   6.145   1.093   0.104  0.8391  0.5083  1.4995
 4841TIP3   OH235937   1.964   1.332  15.304 -0.8189 -0.3340 -0.2703
 4841TIP3    H135938   1.966   1.391  15.229 -0.8191  0.4282  0.3182
 4841TIP3    H235939   2.056   1.321  15.328 -0.8179  4.7098  3.6247
 4842TIP3   OH235940   3.491   2.566   1.399 -0.8080 -0.0929  0.3646
 4842TIP3    H135941   3.438   2.528   1.468 -3.0729  0.3828 -1.0022
 4842TIP3    H235942   3.440   2.641   1.368  1.0184  0.8329 -0.5777
 4843TIP3   OH235943   3.105   0.888  11.642 -0.5462 -0.2061 -0.5404
 4843TIP3    H135944   3.108   0.853  11.553  0.1507  0.6111 -0.8539
 4843TIP3    H235945   3.185   0.856  11.683 -2.4441 -3.4967  0.9881
 4844TIP3   OH235946   1.359   5.628   5.505  0.6913  0.3987 -0.2746
 4844TIP3    H135947   1.264   5.622   5.495  0.7490 -0.2247 -0.5007
 4844TIP3    H235948   1.385   5.702   5.450  0.2089  1.3188  0.7005
 4845TIP3   OH235949   0.362   3.281  14.457  0.4775 -0.3871  0.2396
 4845TIP3    H135950   0.342   3.192  14.484  0.6928 -0.6467 -0.4488
 4845TIP3    H235951   0.296   3.335  14.501  0.9433 -0.7701  1.4466
 4846TIP3   OH235952   3.726   4.386   4.515  0.4912 -0.1005  0.3321
 4846TIP3    H135953   3.657   4.366   4.578  1.2239  2.0093  1.9011
 4846TIP3    H235954   3.806   4.349   4.553  0.9861  1.4161  0.8201
 4847TIP3   OH235955   4.053   3.087   2.939  0.4612  0.4598 -0.9269
 4847TIP3    H135956   4.081   3.170   2.900  1.3629  1.1214  0.9933
 4847TIP3    H235957   4.117   3.023   2.908  0.7764  0.8240 -1.0350
 4848TIP3   OH235958   2.510   6.550   5.288  0.5214 -0.0657  0.3653
 4848TIP3    H135959   2.498   6.503   5.206  0.1813 -0.8102  0.8329
 4848TIP3    H235960   2.481   6.639   5.269 -1.2597 -0.6526  0.1384
 4849TIP3   OH235961   1.325   0.134   0.651  0.5388  0.2715  0.2648
 4849TIP3    H135962   1.420   0.128   0.636  0.4715  0.1061 -0.0981
 4849TIP3    H235963   1.303   0.049   0.689  0.0822 -0.7814 -2.1727
 4850TIP3   OH235964   4.167   1.766  12.624  0.2246 -0.0839  0.1029
 4850TIP3    H135965   4.114   1.815  12.687  0.6329  1.6579 -0.8484
 4850TIP3    H235966   4.254   1.761  12.664  0.1516 -0.1482  0.2540
 4851TIP3   OH235967   0.340   2.845   4.321 -0.2623 -0.4240  0.1702
 4851TIP3    H135968   0.322   2.871   4.411 -2.5562 -0.5380 -0.1981
 4851TIP3    H235969   0.293   2.909   4.267  0.7648 -0.5675 -0.9497
 4852TIP3   OH235970   0.959   2.565  11.043  0.1711  0.4427 -0.2154
 4852TIP3    H135971   0.906   2.581  11.121  0.0521  0.6319 -0.3364
 4852TIP3    H235972   0.916   2.615  10.973  1.2770  1.7171 -0.0300
 4853TIP3   OH235973   2.480   2.762  14.722 -0.3485 -0.9806 -0.2445
 4853TIP3    H135974   2.439   2.677  14.711 -2.3477 -0.1871  0.6326
 4853TIP3    H235975   2.503   2.790  14.633  1.1376 -2.7606 -0.4680
 4854TIP3   OH235976   2.253   4.424  14.868  0.2483 -0.5310 -0.0584
 4854TIP3    H135977   2.166   4.384  14.868  0.1701 -0.3660  0.7032
 4854TIP3    H235978   2.249   4.490  14.937  0.1408  1.3246 -1.7555
 4855TIP3   OH235979   1.957   6.759  12.169  0.1893 -0.2442  0.1928
 4855TIP3    H135980   1.940   6.737  12.077  0.3970  2.4214 -0.5898
 4855TIP3    H235981   1.870   6.771  12.207  0.0743  1.5854 -0.5362
 4856TIP3   OH235982   1.016   1.700  10.770  0.0133  1.2146 -0.5797
 4856TIP3    H135983   0.973   1.784  10.752 -1.2597  0.5353 -0.8771
 4856TIP3    H235984   1.082   1.691  10.702 -2.1936  0.4142 -2.7854
 4857TIP3   OH235985   4.416   5.243   0.879 -0.1366  0.4496  0.6534
 4857TIP3    H135986   4.377   5.330   0.873  1.7108  1.3512  1.2425
 4857TIP3    H235987   4.467   5.245   0.960  0.6602 -0.8998  0.2136
 4858TIP3   OH235988   4.479   3.949  16.841 -0.5846  0.2431  0.2328
 4858TIP3    H135989   4.434   4.033  16.835 -2.1082 -0.5204  0.3859
 4858TIP3    H235990   4.445   3.898  16.767  0.5296 -0.1583 -0.0270
 4859TIP3   OH235991   6.016   3.042  17.149  0.3152  0.2973 -0.1856
 4859TIP3    H135992   5.964   3.015  17.224  0.8952 -2.4365 -0.6353
 4859TIP3    H235993   6.107   3.026  17.175  0.6810  1.3760 -0.7286
 4860TIP3   OH235994   1.285   5.640   1.932  0.1196  0.5000 -0.0896
 4860TIP3    H135995   1.372   5.603   1.921  0.2704  1.4359 -2.6948
 4860TIP3    H235996   1.289   5.689   2.014  1.6546 -0.3821  0.4007
 4861TIP3   OH235997   4.642   3.756   5.658  0.2706  0.1070 -0.0761
 4861TIP3    H135998   4.634   3.785   5.749 -0.9149  1.8044 -0.6795
 4861TIP3    H235999   4.556   3.770   5.620  1.0573  0.5874 -1.7792
 4862TIP3   OH236000   5.939   2.553   0.558 -0.5773 -0.6168  0.2958
 4862TIP3    H136001   5.988   2.507   0.491  1.7427  0.4737  1.1342
 4862TIP3    H236002   5.931   2.643   0.524 -0.1442 -0.2733  1.0879
 4863TIP3   OH236003   0.979   1.858   2.460 -0.6154 -0.2106  0.1791
 4863TIP3    H136004   0.933   1.942   2.469 -4.1050 -1.9971  0.8749
 4863TIP3    H236005   1.028   1.867   2.378  0.3758  2.9411  0.9611
 4864TIP3   OH236006   1.144   6.403  14.599  0.2373  0.0623 -0.4230
 4864TIP3    H136007   1.164   6.460  14.525  0.3345 -0.1753 -0.5818
 4864TIP3    H236008   1.059   6.365  14.579 -0.9328  1.9143  0.7651
 4865TIP3   OH236009   0.860   1.983   0.007  0.0055  0.2101 -0.3992
 4865TIP3    H136010   0.816   2.010  -0.073 -0.8668 -1.7724 -0.6681
 4865TIP3    H236011   0.807   1.910   0.040  1.4963 -0.3814  0.8487
 4866TIP3   OH236012   3.646   1.477   2.272  0.0100 -0.4054  0.6358
 4866TIP3    H136013   3.652   1.532   2.194  1.3752 -0.7319  0.4827
 4866TIP3    H236014   3.736   1.474   2.306  0.0313 -2.6881  0.5104
 4867TIP3   OH236015   1.725   0.971   0.126  0.1515  0.6046  0.1362
 4867TIP3    H136016   1.645   0.983   0.177  0.4552  1.1958  0.4859
 4867TIP3    H236017   1.795   0.977   0.191  0.4670 -0.2693 -0.1098
 4868TIP3   OH236018   3.504   3.505  13.894  0.1971  0.1977 -0.2946
 4868TIP3    H136019   3.419   3.530  13.930  0.0321 -0.4413 -0.2304
 4868TIP3    H236020   3.529   3.578  13.838 -0.0974  0.6710  0.1882
 4869TIP3   OH236021   2.330   5.119  10.856 -0.5197  0.2373  0.3170
 4869TIP3    H136022   2.409   5.131  10.803  0.6864 -1.0577  1.7331
 4869TIP3    H236023   2.258   5.136  10.795  0.8114  0.2054 -1.3481
 4870TIP3   OH236024   3.270   4.292  15.060  0.3051 -0.1503  0.2840
 4870TIP3    H136025   3.338   4.287  15.128  0.2133 -0.8435  0.3255
 4870TIP3    H236026   3.216   4.366  15.086 -1.4653 -2.0952  2.5884
 4871TIP3   OH236027   6.124   2.044   3.884 -0.2286 -0.5938 -0.4111
 4871TIP3    H136028   6.181   2.008   3.952  1.8123 -1.7481 -2.6157
 4871TIP3    H236029   6.152   2.135   3.874  1.6419 -1.2682 -1.7752
 4872TIP3   OH236030   3.836   0.869  16.945 -0.4440  0.1528  0.4357
 4872TIP3    H136031   3.890   0.936  16.902 -0.6806  0.4549  0.6040
 4872TIP3    H236032   3.836   0.795  16.884 -0.7889  0.5779 -0.0948
 4873TIP3   OH236033   6.034   3.947   1.091  0.7516 -0.3933  0.1251
 4873TIP3    H136034   5.983   3.911   1.019  0.0212  0.2912  0.2905
 4873TIP3    H236035   6.070   4.029   1.057  0.6290 -0.2040  0.4490
 4874TIP3   OH236036   6.680   0.727  16.220  0.6481 -0.0545 -0.0877
 4874TIP3    H136037   6.714   0.815  16.208  1.5046 -0.4387 -0.5629
 4874TIP3    H236038   6.729   0.692  16.294  0.1487 -0.0575  0.2467
 4875TIP3   OH236039   5.776   0.224  17.018 -0.2537 -0.2378 -0.1288
 4875TIP3    H136040   5.800   0.226  17.110  0.3388 -0.3596 -0.2773
 4875TIP3    H236041   5.757   0.316  16.996  0.9139 -0.0069 -0.2200
 4876TIP3   OH236042   4.104   2.214   5.617  0.0524 -0.3318  0.0421
 4876TIP3    H136043   4.030   2.235   5.560 -0.0826 -0.2472  0.2501
 4876TIP3    H236044   4.141   2.299   5.641 -1.1951 -0.2436  1.8265
 4877TIP3   OH236045   0.445   0.776   0.827 -0.1650  0.1373 -0.1956
 4877TIP3    H136046   0.531   0.812   0.808 -0.1777  0.1282 -0.2718
 4877TIP3    H236047   0.401   0.772   0.741 -0.4395  0.6594 -0.0870
 4878TIP3   OH236048   6.390   6.300   0.479 -0.1195  0.0654  0.7331
 4878TIP3    H136049   6.463   6.357   0.454  0.7073 -0.8688  0.9578
 4878TIP3    H236050   6.346   6.280   0.397 -1.0586  1.8281  0.7519
 4879TIP3   OH236051   6.633   4.771   0.449 -0.4317 -0.0604 -0.4495
 4879TIP3    H136052   6.680   4.855   0.447  0.2475 -0.4172  0.0556
 4879TIP3    H236053   6.641   4.742   0.540 -2.0633  0.0897 -0.2384
 4880TIP3   OH236054   4.622   3.138  11.493  0.1078  0.0685 -0.2414
 4880TIP3    H136055   4.570   3.077  11.442 -0.9574  2.2420 -1.9308
 4880TIP3    H236056   4.558   3.183  11.548  0.5767  0.9183 -0.3810
 4881TIP3   OH236057   5.056   3.247   1.493  0.9723 -0.5511  0.3417
 4881TIP3    H136058   5.046   3.186   1.419 -0.2939  1.6136 -1.3793
 4881TIP3    H236059   4.986   3.312   1.480  1.4759  0.5789  2.8061
 4882TIP3   OH236060   4.817   1.411  13.490 -0.2172 -0.1384  0.1043
 4882TIP3    H136061   4.887   1.375  13.435  1.8434  1.0505  1.8253
 4882TIP3    H236062   4.749   1.438  13.427  1.5608  0.1593 -1.7843
 4883TIP3   OH236063   5.295   2.732   2.778  0.1201  0.4878  0.3250
 4883TIP3    H136064   5.203   2.747   2.800 -0.1624  0.0447 -0.5283
 4883TIP3    H236065   5.307   2.637   2.786  0.4928  0.5340  0.3608
 4884TIP3   OH236066   3.621   3.933  15.604  1.1904 -0.1703  0.2215
 4884TIP3    H136067   3.590   3.844  15.622 -1.8806  0.6812 -0.3819
 4884TIP3    H236068   3.612   3.979  15.687  0.1625  0.2547 -0.1177
 4885TIP3   OH236069   3.649   4.876   5.881  0.3562 -0.5916  0.0999
 4885TIP3    H136070   3.733   4.913   5.854 -0.0928  1.3442  1.1823
 4885TIP3    H236071   3.671   4.796   5.929  1.6800  0.5592  1.4735
 4886TIP3   OH236072   3.788   2.378  12.327  0.4893 -0.3297 -0.0520
 4886TIP3    H136073   3.828   2.429  12.397 -1.5243  0.8215  0.3126
 4886TIP3    H236074   3.775   2.441  12.256 -0.7022 -0.6689 -0.1467
 4887TIP3   OH236075   4.354   6.169   5.584 -0.2449  0.1246 -0.2929
 4887TIP3    H136076   4.258   6.168   5.591 -0.2887 -0.1872 -0.9256
 4887TIP3    H236077   4.375   6.095   5.528  0.3392  0.4958 -0.5714
 4888TIP3   OH236078   5.841   5.557  16.920 -0.8705 -0.1573  0.0553
 4888TIP3    H136079   5.863   5.616  16.848  2.8206 -0.8691  0.3999
 4888TIP3    H236080   5.746   5.564  16.929 -1.2379  1.4679 -3.5145
 4889TIP3   OH236081   4.575   3.643   5.132 -0.0832  0.3006  0.6036
 4889TIP3    H136082   4.670   3.653   5.143  0.4548  0.5999 -3.0072
 4889TIP3    H236083   4.553   3.566   5.184  2.2364 -0.1411  1.0625
 4890TIP3   OH236084   5.819   4.433  14.727  0.2972 -0.2347 -0.1248
 4890TIP3    H136085   5.903   4.391  14.709 -0.1560 -0.9416 -0.6743
 4890TIP3    H236086   5.806   4.494  14.654  0.7336  0.5373  0.4240
 4891TIP3   OH236087   3.981   1.767  14.679 -0.2591 -0.5877  0.0594
 4891TIP3    H136088   3.977   1.830  14.751 -2.6757  2.0737 -2.1717
 4891TIP3    H236089   3.905   1.710  14.693 -1.8343  1.0859 -1.2151
 4892TIP3   OH236090   6.556   4.606   1.904  0.0324 -0.9110 -0.1292
 4892TIP3    H136091   6.589   4.621   1.815 -1.6193  0.5327 -0.5493
 4892TIP3    H236092   6.588   4.519   1.926 -0.1377 -1.6354 -2.4379
 4893TIP3   OH236093   2.647   0.217  16.555 -0.0451 -0.3956 -0.0451
 4893TIP3    H136094   2.556   0.216  16.584 -0.6525  0.1599 -1.8264
 4893TIP3    H236095   2.665   0.127  16.529  0.0451 -0.5802  0.6273
 4894TIP3   OH236096   2.261   3.309  11.930 -0.2641 -0.4400  0.2640
 4894TIP3    H136097   2.165   3.315  11.930 -0.4846 -1.3570 -3.4280
 4894TIP3    H236098   2.279   3.218  11.908  1.5597 -0.5403  1.8803
 4895TIP3   OH236099   2.456   6.776  13.973  0.3549 -0.1874  0.3504
 4895TIP3    H136100   2.382   6.717  13.988 -0.7066  0.6138 -1.4819
 4895TIP3    H236101   2.519   6.752  14.041  0.0314 -3.5072 -0.3637
 4896TIP3   OH236102   6.396   1.410   4.998  0.1960  0.4617  0.0186
 4896TIP3    H136103   6.383   1.501   5.024  0.0025 -0.0588  1.8934
 4896TIP3    H236104   6.322   1.363   5.036  1.1389 -0.7221  0.4737
 4897TIP3   OH236105   4.355   1.645  17.038 -0.2479 -0.7759 -0.1035
 4897TIP3    H136106   4.376   1.607  17.123  2.3118 -0.7886 -0.6562
 4897TIP3    H236107   4.356   1.571  16.977 -0.4940 -0.5539 -0.3783
 4898TIP3   OH236108   2.158   0.437   0.078 -0.1644  0.0046 -0.1512
 4898TIP3    H136109   2.253   0.432   0.076 -0.0787  1.5072 -0.7068
 4898TIP3    H236110   2.129   0.355   0.038  0.8551 -1.0637  1.2082
 4899TIP3   OH236111   4.373   5.992   5.361  0.4340  0.1468  0.1896
 4899TIP3    H136112   4.289   5.991   5.314 -0.1275  0.4534  1.1505
 4899TIP3    H236113   4.375   5.908   5.407  0.1505  0.5740  1.0026
 4900TIP3   OH236114   2.133   2.117  14.841 -0.2002 -0.5369 -0.1653
 4900TIP3    H136115   2.107   2.047  14.781  0.5263  0.1314 -1.3017
 4900TIP3    H236116   2.139   2.195  14.785  1.0697 -0.0199  0.6640
 4901TIP3   OH236117   0.976   4.432  16.800 -0.6538  0.3338  0.3267
 4901TIP3    H136118   0.973   4.398  16.889 -0.1520  1.1149  0.6625
 4901TIP3    H236119   0.963   4.527  16.811 -0.3619  0.4625 -0.4032
 4902TIP3   OH236120   4.966   4.210  16.591  0.1590 -0.4967  0.2671
 4902TIP3    H136121   4.913   4.178  16.663 -0.4648  1.3571  0.6854
 4902TIP3    H236122   5.042   4.251  16.633 -1.0340  2.1345  0.0778
 4903TIP3   OH236123   6.400   3.872   0.203  0.1882 -0.3420  0.0309
 4903TIP3    H136124   6.345   3.795   0.214  0.5595 -0.6861 -0.4853
 4903TIP3    H236125   6.486   3.846   0.238 -0.1834  0.4754  1.6497
 4904TIP3   OH236126   6.098   0.426  12.145  0.3312  0.9075 -0.2715
 4904TIP3    H136127   6.191   0.406  12.153  0.7164  2.7189  0.3184
 4904TIP3    H236128   6.074   0.462  12.230 -1.2220 -0.6053 -0.0341
 4905TIP3   OH236129   2.393   3.968  16.201  0.4888  0.2076  0.5831
 4905TIP3    H136130   2.426   3.903  16.138  0.2556  0.8275 -0.2032
 4905TIP3    H236131   2.450   4.044  16.188  0.4996  0.3068  1.2019
 4906TIP3   OH236132   4.296   0.179  12.924 -0.2313  0.1178  0.3238
 4906TIP3    H136133   4.352   0.256  12.936 -1.1351  0.6653  1.1859
 4906TIP3    H236134   4.356   0.110  12.896  0.5671  1.1954 -0.7317
 4907TIP3   OH236135   2.086   3.021   2.741 -0.0491  0.3662  0.4920
 4907TIP3    H136136   2.117   3.088   2.679  0.1592  0.1275  0.3310
 4907TIP3    H236137   2.019   3.065   2.793 -0.4518  0.4859 -0.1137
 4908TIP3   OH236138   4.429   2.654   2.559 -0.0019  0.0979 -0.3122
 4908TIP3    H136139   4.449   2.603   2.481  1.4447  0.0381  0.0691
 4908TIP3    H236140   4.404   2.589   2.624 -6.1385  0.2879 -1.8629
 4909TIP3   OH236141   0.708   2.019   6.051 -0.7445 -0.2971 -0.3164
 4909TIP3    H136142   0.754   1.945   6.089 -0.2623  0.1736  0.0350
 4909TIP3    H236143   0.629   2.029   6.104  1.2151  2.0886  2.5138
 4910TIP3   OH236144   4.413   1.262   0.871  0.6323  0.4036 -0.0610
 4910TIP3    H136145   4.386   1.353   0.868 -1.3052 -0.1580 -1.8941
 4910TIP3    H236146   4.369   1.221   0.796  2.4393 -1.7774 -0.0343
 4911TIP3   OH236147   1.648   3.869   6.147  0.5257  0.1890  0.0547
 4911TIP3    H136148   1.614   3.958   6.136  3.0098  1.0630 -1.5142
 4911TIP3    H236149   1.722   3.878   6.207 -0.4395 -1.2179  1.5226
 4912TIP3   OH236150   3.582   2.199  13.096  0.4063 -0.0729 -0.2224
 4912TIP3    H136151   3.655   2.226  13.040  0.5749 -0.6836 -0.3025
 4912TIP3    H236152   3.583   2.262  13.168 -1.0175  1.9686 -1.8469
 4913TIP3   OH236153   3.730   2.063   5.098  0.3979 -0.4377  0.0222
 4913TIP3    H136154   3.717   2.051   5.192  1.2286  1.8369  0.4793
 4913TIP3    H236155   3.647   2.101   5.067  0.1141 -1.2126 -0.1960
 4914TIP3   OH236156   3.845   0.498  17.026  0.0097  0.1160  0.7102
 4914TIP3    H136157   3.812   0.529  17.110 -0.5574  1.3416  0.0567
 4914TIP3    H236158   3.861   0.577  16.975 -2.1193 -0.6022 -1.2525
 4915TIP3   OH236159   3.441   0.224   0.886  0.5948 -0.1006 -0.5650
 4915TIP3    H136160   3.520   0.265   0.850  0.0226  1.5010 -0.0516
 4915TIP3    H236161   3.377   0.227   0.815  0.5343 -0.0366 -0.5084
 4916TIP3   OH236162   3.242   2.073  11.995 -0.5805 -0.3091 -0.4841
 4916TIP3    H136163   3.199   2.000  11.951 -1.3743  0.0349 -0.3030
 4916TIP3    H236164   3.333   2.044  12.007 -1.4368 -2.3945  1.9873
 4917TIP3   OH236165   6.287   1.708   3.480  0.2571  0.9070 -0.2828
 4917TIP3    H136166   6.252   1.773   3.419  0.4582  1.1591 -0.1359
 4917TIP3    H236167   6.247   1.730   3.564  1.3199  1.6691  0.0500
 4918TIP3   OH236168   0.008   4.661  16.926  0.2285  0.3873  0.4828
 4918TIP3    H136169  -0.013   4.574  16.959 -0.7312  0.6715  0.6627
 4918TIP3    H236170   0.094   4.651  16.885  1.4161  0.0045  2.9166
 4919TIP3   OH236171   3.393   4.854  15.031  0.1510  0.1110 -0.2508
 4919TIP3    H136172   3.436   4.769  15.022 -0.1656  0.0163 -0.9808
 4919TIP3    H236173   3.354   4.853  15.118 -0.2294 -0.6718 -0.4287
 4920TIP3   OH236174   3.797   5.721  13.484 -0.5251  0.0726  0.2955
 4920TIP3    H136175   3.724   5.659  13.486 -1.1580  0.7813 -0.2518
 4920TIP3    H236176   3.776   5.781  13.412  0.0240  0.9825  0.8674
 4921TIP3   OH236177   2.689   2.896  16.805  0.6896 -0.2611 -0.4196
 4921TIP3    H136178   2.676   2.988  16.825 -2.4999 -0.7791  0.5292
 4921TIP3    H236179   2.707   2.893  16.711  0.0781  1.2784 -0.6040
 4922TIP3   OH236180   4.346   1.550   0.330  0.1833  0.4236  0.3990
 4922TIP3    H136181   4.430   1.519   0.296 -0.8340 -0.9165 -0.9663
 4922TIP3    H236182   4.318   1.616   0.266  0.2953  1.0520  0.9883
 4923TIP3   OH236183   1.348   1.338  15.424 -0.6636  0.4135 -0.2289
 4923TIP3    H136184   1.378   1.422  15.460 -0.6891 -0.4870  2.0693
 4923TIP3    H236185   1.429   1.294  15.396 -0.1104 -0.4785  2.5107
 4924TIP3   OH236186   0.400   2.800  11.733 -0.0741  0.2087  0.3896
 4924TIP3    H136187   0.455   2.862  11.781  1.1418 -0.7141  0.2264
 4924TIP3    H236188   0.311   2.821  11.761  0.5306  0.1991  2.4904
 4925TIP3   OH236189   0.978   6.100  12.366  0.5846 -0.4958 -0.2781
 4925TIP3    H136190   1.009   6.143  12.287  1.8366 -1.6908 -0.4888
 4925TIP3    H236191   0.886   6.080  12.348 -0.2884  2.6809  0.1539
 4926TIP3   OH236192   4.403   0.452   4.309  0.1940 -0.0470 -0.0647
 4926TIP3    H136193   4.316   0.458   4.269  0.3586 -2.4089 -0.9016
 4926TIP3    H236194   4.406   0.365   4.349  2.4988 -0.4292 -0.9068
 4927TIP3   OH236195   2.868   0.690  16.887 -0.5206  0.4704 -0.6842
 4927TIP3    H136196   2.811   0.694  16.963 -0.7270 -1.2301 -0.7288
 4927TIP3    H236197   2.925   0.766  16.896 -1.7612  1.3514  0.1583
 4928TIP3   OH236198   2.158   1.508   5.493 -0.1547  0.3076 -0.1199
 4928TIP3    H136199   2.199   1.465   5.419  0.7603 -1.1981  1.1909
 4928TIP3    H236200   2.141   1.597   5.463 -0.7529 -0.5194 -2.4308
 4929TIP3   OH236201   6.287   5.343  13.738  0.4016  0.5403  0.1592
 4929TIP3    H136202   6.244   5.368  13.820 -1.1384  1.9190 -0.9897
 4929TIP3    H236203   6.350   5.413  13.722  0.4248  0.4797 -0.0151
 4930TIP3   OH236204   1.408   5.091   3.870 -0.0829  0.2369 -0.3401
 4930TIP3    H136205   1.363   5.161   3.824  1.0321  1.4081  0.2964
 4930TIP3    H236206   1.487   5.075   3.818  0.4728  0.5919  0.3755
 4931TIP3   OH236207   4.915   2.305   0.367  0.0183  0.6372 -0.1529
 4931TIP3    H136208   5.006   2.332   0.354  0.5038 -1.4919 -1.7507
 4931TIP3    H236209   4.899   2.318   0.460  2.1850  0.4051  0.2956
 4932TIP3   OH236210   0.129   4.773   3.718 -0.1087 -0.6773 -0.3108
 4932TIP3    H136211   0.186   4.698   3.704  1.5265  0.0974  1.6972
 4932TIP3    H236212   0.159   4.839   3.656 -2.2468 -1.8873 -2.8594
 4933TIP3   OH236213   5.964   3.405   5.485  0.0566  0.0903 -0.0764
 4933TIP3    H136214   5.943   3.485   5.533  1.0336 -0.3128  1.0751
 4933TIP3    H236215   6.028   3.359   5.540 -2.7720 -3.0688  0.9136
 4934TIP3   OH236216   3.987   0.441   4.613  0.6515 -0.7910  0.0562
 4934TIP3    H136217   4.044   0.512   4.643  0.1583  0.1143 -1.0451
 4934TIP3    H236218   3.923   0.430   4.684 -0.7089  1.5361 -0.6669
 4935TIP3   OH236219   6.688   4.304   3.612  0.0403  0.4064  0.4394
 4935TIP3    H136220   6.619   4.266   3.557 -0.5780  0.0686  1.4141
 4935TIP3    H236221   6.731   4.228   3.652  1.8571  0.5466 -1.1493
 4936TIP3   OH236222   6.342   3.292  13.220 -0.0195  0.6160  0.4472
 4936TIP3    H136223   6.308   3.279  13.309  1.5782 -1.0389  0.8658
 4936TIP3    H236224   6.407   3.361  13.229  0.6621 -0.0524  0.7221
 4937TIP3   OH236225   3.853   4.216   1.958 -0.0029 -0.4532 -0.1441
 4937TIP3    H136226   3.807   4.287   2.004 -0.9970 -0.2947 -1.3432
 4937TIP3    H236227   3.939   4.212   2.000 -0.0848  1.1804  0.2280
 4938TIP3   OH236228   4.095   0.261   3.943 -0.1663  0.0185 -0.2500
 4938TIP3    H136229   4.121   0.191   4.003 -0.5226 -0.3898 -0.5549
 4938TIP3    H236230   4.015   0.227   3.901 -2.8273  2.2571  2.5133
 4939TIP3   OH236231   3.914   2.461  15.982 -0.1599 -0.2006  0.6682
 4939TIP3    H136232   3.846   2.492  16.042  3.3916  2.3486  3.8422
 4939TIP3    H236233   3.951   2.385  16.026  1.4932  0.7830  1.0537
 4940TIP3   OH236234   4.063   5.999  15.073 -0.3118  0.0151  0.5173
 4940TIP3    H136235   3.999   6.054  15.029 -2.0762 -1.1295  1.5550
 4940TIP3    H236236   4.045   6.012  15.166  0.9867 -0.3407  0.8348
 4941TIP3   OH236237   6.686   5.204  16.153 -0.0847 -0.5431  0.2169
 4941TIP3    H136238   6.744   5.244  16.089 -0.2710 -0.1111  0.3128
 4941TIP3    H236239   6.744   5.153  16.210  0.2985  0.4709  0.7552
 4942TIP3   OH236240   1.232   6.682   0.692  0.2593 -0.1019 -0.0494
 4942TIP3    H136241   1.220   6.628   0.614  0.5732 -0.0668 -0.1234
 4942TIP3    H236242   1.148   6.725   0.704  0.3457  0.2411 -0.6341
 4943TIP3   OH236243   3.319   3.394   1.984 -0.1036  0.2990  0.5578
 4943TIP3    H136244   3.322   3.425   2.074  1.8321 -0.5859  0.8568
 4943TIP3    H236245   3.398   3.340   1.975 -0.7089 -0.3419 -1.4087
 4944TIP3   OH236246   5.875   3.313  16.944  0.3539 -0.0871 -0.1610
 4944TIP3    H136247   5.887   3.335  17.037 -1.5339  0.9350 -0.1045
 4944TIP3    H236248   5.901   3.393  16.898 -1.9451  0.6669 -0.2609
 4945TIP3   OH236249   1.236   5.382   6.376 -0.0031 -0.3400  0.2055
 4945TIP3    H136250   1.223   5.470   6.340  0.0839  0.3621  1.8330
 4945TIP3    H236251   1.148   5.350   6.393 -0.0170  0.6998  2.4736
 4946TIP3   OH236252   0.967   3.331  15.114  0.3684  0.0780  0.2391
 4946TIP3    H136253   0.892   3.386  15.135  0.2107  0.0164 -0.1500
 4946TIP3    H236254   0.957   3.312  15.021  1.6682  1.3187 -0.2087
 4947TIP3   OH236255   4.974   2.014  14.172 -0.0690 -0.8100 -0.4338
 4947TIP3    H136256   5.014   1.982  14.091  1.3024  0.9280 -0.5202
 4947TIP3    H236257   4.997   1.949  14.238  1.4484 -0.7484 -0.8540
 4948TIP3   OH236258   0.464   1.741   0.326  0.6909 -0.7859 -0.3195
 4948TIP3    H136259   0.528   1.769   0.260  0.8060 -1.1741 -0.3703
 4948TIP3    H236260   0.401   1.814   0.330  1.5748 -0.0323  0.3127
 4949TIP3   OH236261   6.329   4.338   1.111  0.3132  0.0326  0.2612
 4949TIP3    H136262   6.292   4.375   1.031 -1.0517 -2.4518 -0.3338
 4949TIP3    H236263   6.260   4.348   1.176  1.2169  1.5404  1.0357
 4950TIP3   OH236264   4.513   4.028   2.982 -0.0237 -0.3561  0.1764
 4950TIP3    H136265   4.567   3.950   2.969  0.8072  0.2045  0.2063
 4950TIP3    H236266   4.561   4.080   3.047  0.5923  1.2153 -1.4489
 4951TIP3   OH236267   3.988   5.232  14.666  0.0851  0.0419 -0.2793
 4951TIP3    H136268   3.936   5.154  14.688 -0.5435  0.2015 -1.1476
 4951TIP3    H236269   4.067   5.223  14.719 -0.5356 -0.5384  0.5993
 4952TIP3   OH236270   4.541   2.606  13.460  0.1312 -0.0412  0.2157
 4952TIP3    H136271   4.593   2.679  13.426  1.4014 -0.9383  0.1665
 4952TIP3    H236272   4.526   2.550  13.384  0.2401 -0.4517  0.4906
 4953TIP3   OH236273   3.831   5.203   0.983 -0.2097 -0.2400 -0.0197
 4953TIP3    H136274   3.747   5.200   0.936 -1.1554 -0.4689  1.5937
 4953TIP3    H236275   3.863   5.292   0.970 -0.7837 -0.1050 -0.5384
 4954TIP3   OH236276   6.207   1.006  16.759  0.6518 -0.1819  0.4036
 4954TIP3    H136277   6.251   0.961  16.831 -0.2112  0.8802  1.6416
 4954TIP3    H236278   6.273   1.010  16.689  0.9439 -2.7976  0.4354
 4955TIP3   OH236279   1.133   2.175  10.967  0.3198  0.6114  0.5182
 4955TIP3    H136280   1.042   2.146  10.958  0.4081  0.2081  0.8624
 4955TIP3    H236281   1.184   2.109  10.920  0.6755 -0.8147  2.7297
 4956TIP3   OH236282   3.173   2.383  16.072  0.5208  0.4574 -0.5740
 4956TIP3    H136283   3.119   2.461  16.057  2.4689  1.7463 -1.2338
 4956TIP3    H236284   3.236   2.383  16.000  1.1048 -1.2735 -0.1164
 4957TIP3   OH236285   1.355   2.383  16.900  0.0008  0.3714  0.3380
 4957TIP3    H136286   1.335   2.474  16.879  0.6218  0.2815 -0.6892
 4957TIP3    H236287   1.362   2.339  16.815  2.3590 -0.0506  0.6925
 4958TIP3   OH236288   6.300   0.191  14.765 -0.2709 -0.2336 -0.1289
 4958TIP3    H136289   6.345   0.185  14.680 -0.4900 -0.4308 -0.2300
 4958TIP3    H236290   6.371   0.186  14.829  0.0119  1.0356 -0.3150
 4959TIP3   OH236291   4.139   0.131  15.228  0.3947 -0.1567  0.6029
 4959TIP3    H136292   4.061   0.100  15.275  1.8464 -1.5189  2.2498
 4959TIP3    H236293   4.148   0.070  15.154 -0.7964  0.8078 -0.3793
 4960TIP3   OH236294   6.270   2.238   4.142 -0.1303 -0.5621 -0.3662
 4960TIP3    H136295   6.180   2.264   4.159  0.2727  0.0870  0.9386
 4960TIP3    H236296   6.283   2.253   4.049 -0.6943  1.6013 -0.1546
 4961TIP3   OH236297   2.593   0.814   4.971 -0.4594  0.3782 -0.0411
 4961TIP3    H136298   2.591   0.720   4.950  0.1776  0.4036 -0.2509
 4961TIP3    H236299   2.683   0.840   4.952 -0.9194  1.2824 -1.0565
 4962TIP3   OH236300   6.161   0.832  12.524  0.5133 -0.2427  0.8695
 4962TIP3    H136301   6.159   0.882  12.442  2.2207 -1.4431  0.0313
 4962TIP3    H236302   6.254   0.830  12.548  0.3106 -1.7488  1.6636
 4963TIP3   OH236303   0.623   2.282   3.719 -0.1458  0.0151 -0.3214
 4963TIP3    H136304   0.718   2.288   3.710 -0.2135  0.0500 -1.0332
 4963TIP3    H236305   0.602   2.191   3.694  0.2560 -1.8548  4.8964
 4964TIP3   OH236306   3.732   6.607   0.548  0.0790 -0.0563 -0.2939
 4964TIP3    H136307   3.827   6.607   0.544  0.1869 -1.8091  1.0021
 4964TIP3    H236308   3.704   6.559   0.470  0.4104 -1.4871  0.4202
 4965TIP3   OH236309   5.114   6.280   3.029  0.5467 -0.2842  0.9205
 4965TIP3    H136310   5.122   6.220   2.955 -0.0430 -1.4028  1.7235
 4965TIP3    H236311   5.024   6.267   3.061  0.5588  0.7025  1.3906
 4966TIP3   OH236312   6.712   1.735  12.088 -0.0945  0.1018 -0.0657
 4966TIP3    H136313   6.690   1.823  12.058 -0.8785  0.0840  0.4406
 4966TIP3    H236314   6.628   1.692  12.099  0.2722 -0.5880  0.0779
 4967TIP3   OH236315   2.150   4.860  16.429 -0.1643 -0.4385 -0.0745
 4967TIP3    H136316   2.201   4.899  16.358 -1.2198  2.8927  0.8233
 4967TIP3    H236317   2.060   4.863  16.398 -0.3272 -2.0258  0.1659
 4968TIP3   OH236318   3.815   4.116   2.474 -0.0784 -0.0299  0.3353
 4968TIP3    H136319   3.883   4.064   2.431  0.9647  2.1553 -0.8245
 4968TIP3    H236320   3.863   4.180   2.526 -1.2985  0.3413  1.0521
 4969TIP3   OH236321   3.001   2.660   5.349  0.3979 -0.6258  0.1682
 4969TIP3    H136322   2.909   2.675   5.366  0.5271 -1.1087  1.3509
 4969TIP3    H236323   3.035   2.620   5.429  1.1658 -2.4464 -1.0160
 4970TIP3   OH236324   5.506   3.779  16.624 -0.0480  0.2810  0.0719
 4970TIP3    H136325   5.437   3.792  16.559 -0.0609  1.7973  0.3601
 4970TIP3    H236326   5.529   3.867  16.652  1.3240 -0.2577  0.7061
 4971TIP3   OH236327   5.060   0.199   2.623 -0.6025 -0.4326 -0.7536
 4971TIP3    H136328   5.025   0.274   2.671  1.7257  0.0692  0.3045
 4971TIP3    H236329   5.003   0.126   2.647 -0.2638  0.0638  1.8815
 4972TIP3   OH236330   4.135   3.775   6.232  0.1398  0.6249  0.1696
 4972TIP3    H136331   4.139   3.784   6.327 -0.8518 -0.2690  0.3127
 4972TIP3    H236332   4.169   3.687   6.214  0.2680  0.7654 -0.2992
 4973TIP3   OH236333   2.411   3.693   0.089  0.3150  0.3173 -0.3596
 4973TIP3    H136334   2.459   3.610   0.084 -3.0080 -2.0840  2.5500
 4973TIP3    H236335   2.468   3.750   0.141  2.4729 -0.1908 -2.0198
 4974TIP3   OH236336   6.777   2.008  15.899 -0.6751 -0.0197 -0.1578
 4974TIP3    H136337   6.693   1.972  15.872 -1.6096  2.9309 -1.6730
 4974TIP3    H236338   6.772   2.012  15.994 -0.0160 -4.6125  0.2630
 4975TIP3   OH236339   2.000   5.505  16.279  0.0110 -0.1260  0.0021
 4975TIP3    H136340   2.002   5.411  16.258  1.8073 -0.4313  1.2293
 4975TIP3    H236341   2.042   5.547  16.205  1.2831 -0.5845  0.4252
 4976TIP3   OH236342   2.580   5.057   0.118  0.3447 -0.1754 -0.1055
 4976TIP3    H136343   2.605   5.121   0.051  0.6089 -0.5127 -0.3311
 4976TIP3    H236344   2.573   4.974   0.070 -0.8599 -0.1664  0.0139
 4977TIP3   OH236345   2.720   4.653  12.005 -0.6122  0.3799  0.7243
 4977TIP3    H136346   2.648   4.607  11.960 -0.1442 -0.4295  0.7836
 4977TIP3    H236347   2.684   4.675  12.091 -1.4661  1.8053  0.0272
 4978TIP3   OH236348   4.579   6.700   1.574  0.2047 -0.5426  0.0424
 4978TIP3    H136349   4.487   6.705   1.547  0.2857 -1.9905 -0.6031
 4978TIP3    H236350   4.617   6.782   1.542 -0.2271 -1.1799 -2.3717
 4979TIP3   OH236351   4.551   2.919  15.225 -0.7312  0.5572  0.4610
 4979TIP3    H136352   4.633   2.874  15.205 -2.1475 -1.2723 -1.7720
 4979TIP3    H236353   4.574   2.981  15.295  2.4568 -0.0095  0.0806
 4980TIP3   OH236354   2.787   0.033   6.674 -0.4595  0.4560 -0.1606
 4980TIP3    H136355   2.866   0.034   6.620 -1.4370 -0.7133 -1.7221
 4980TIP3    H236356   2.816   0.063   6.760  2.4241 -2.8743  0.2805
 4981TIP3   OH236357   0.117   6.167  16.435 -0.0252  0.4268 -0.2842
 4981TIP3    H136358   0.097   6.086  16.482  1.3426 -0.5662 -1.3553
 4981TIP3    H236359   0.031   6.205  16.415 -0.7505 -1.5522 -1.1217
 4982TIP3   OH236360   1.936   0.151   5.932 -0.2305  0.4219 -0.7683
 4982TIP3    H136361   1.861   0.101   5.965 -0.3881  1.3430  0.3640
 4982TIP3    H236362   1.943   0.128   5.840 -1.8496  0.2371 -0.8627
 4983TIP3   OH236363   3.152   4.250  12.381 -0.0868  0.2117 -0.3222
 4983TIP3    H136364   3.214   4.313  12.418 -0.0841  0.3647 -0.5827
 4983TIP3    H236365   3.181   4.165  12.413 -0.3483  0.3834  0.3955
 4984TIP3   OH236366   2.818   0.858   2.399 -0.2112 -0.1649 -0.4929
 4984TIP3    H136367   2.889   0.807   2.437 -0.7174 -1.1643 -0.8573
 4984TIP3    H236368   2.774   0.898   2.475 -0.9631 -1.8060 -0.0197
 4985TIP3   OH236369   3.131   2.092  16.518 -0.5183 -0.3136  0.2759
 4985TIP3    H136370   3.167   2.129  16.437  1.0507 -0.5964  0.8066
 4985TIP3    H236371   3.093   2.008  16.491 -2.2488  0.6721 -0.5653
 4986TIP3   OH236372   3.773   4.471   2.137  0.6786 -0.0512  0.2394
 4986TIP3    H136373   3.855   4.490   2.183 -0.7225  0.1381  2.8825
 4986TIP3    H236374   3.715   4.544   2.162  0.2228  0.8930 -3.1677
 4987TIP3   OH236375   2.322   4.514  13.154 -0.2809 -0.2516 -0.0990
 4987TIP3    H136376   2.359   4.586  13.205  0.0462 -0.1264 -0.5159
 4987TIP3    H236377   2.311   4.443  13.218  2.6888 -1.0616 -0.3222
 4988TIP3   OH236378   5.632   1.118   5.304 -0.2321  0.1028  0.3424
 4988TIP3    H136379   5.582   1.052   5.256  0.7432 -0.3078 -0.1278
 4988TIP3    H236380   5.704   1.141   5.246  2.8407 -2.6838  2.6354
 4989TIP3   OH236381   0.815   0.030  16.887 -0.4093  0.5289  0.0341
 4989TIP3    H136382   0.877   0.035  16.814 -1.0718 -0.4957 -0.6266
 4989TIP3    H236383   0.868   0.002  16.961 -0.0919 -0.6648 -0.6031
 4990TIP3   OH236384   6.118   0.184  15.130  0.1159  0.3863  0.6220
 4990TIP3    H136385   6.151   0.273  15.116  2.1765 -0.4078 -0.0441
 4990TIP3    H236386   6.058   0.169  15.058  1.8521  0.3427 -0.8914
 4991TIP3   OH236387   0.557   3.949  17.265  0.5459  0.4941 -0.5552
 4991TIP3    H136388   0.636   3.915  17.223  0.1891 -2.6687  1.0520
 4991TIP3    H236389   0.577   4.040  17.284  3.6547 -0.0994 -0.5780
 4992TIP3   OH236390   0.015   4.079  13.952  0.2938  0.4369 -1.2100
 4992TIP3    H136391   0.061   3.996  13.960  0.3530  0.5583 -0.1747
 4992TIP3    H236392   0.070   4.132  13.895  1.2941  0.4697 -0.2425
 4993TIP3   OH236393   3.793   1.763   2.319 -0.0835 -0.2631  0.0015
 4993TIP3    H136394   3.754   1.726   2.398  0.5837 -0.5519  0.2005
 4993TIP3    H236395   3.731   1.831   2.292  0.5061  1.0759  1.7654
 4994TIP3   OH236396   5.878   5.087   1.304 -0.5001 -0.2091  0.5572
 4994TIP3    H136397   5.912   5.165   1.259 -1.1350  0.2128  0.7952
 4994TIP3    H236398   5.946   5.021   1.291 -0.6866 -0.1168 -1.0693
 4995TIP3   OH236399   2.292   6.199   4.971  0.1656  0.6097  0.0778
 4995TIP3    H136400   2.313   6.248   4.892  1.1977  0.1537  0.0538
 4995TIP3    H236401   2.217   6.146   4.947 -0.1326  1.1841 -0.2975
 4996TIP3   OH236402   2.265   0.121   0.211 -0.3146  0.4671  0.0913
 4996TIP3    H136403   2.351   0.091   0.241 -0.6207 -0.3679  0.1517
 4996TIP3    H236404   2.235   0.179   0.281 -0.5330 -0.5757  0.8878
 4997TIP3   OH236405   1.565   1.536  15.186  0.9249 -0.5106  0.3559
 4997TIP3    H136406   1.589   1.628  15.173  1.4838 -0.6400  0.4639
 4997TIP3    H236407   1.560   1.525  15.281  2.5121 -0.9976  0.4156
 4998TIP3   OH236408   1.197   6.292   6.223  0.2376 -0.3229  0.5109
 4998TIP3    H136409   1.266   6.331   6.278  1.1775 -1.6590  0.3418
 4998TIP3    H236410   1.221   6.199   6.217 -1.0156 -0.6147 -0.4248
 4999TIP3   OH236411   1.907   3.030  12.978  0.5317  0.1194  0.3846
 4999TIP3    H136412   1.923   2.947  12.934 -1.1717 -0.0002 -0.0835
 4999TIP3    H236413   1.946   3.019  13.065  0.1900 -1.2304  0.3843
 5000TIP3   OH236414   5.050   3.064   0.915  0.0923  0.3878 -0.4550
 5000TIP3    H136415   5.123   3.049   0.855 -0.4823  0.4339 -1.1793
 5000TIP3    H236416   5.026   2.977   0.947  0.2047  0.3338 -0.5189
 5001TIP3   OH236417   4.407   2.963  16.021 -0.5834  0.8334 -0.1315
 5001TIP3    H136418   4.355   3.027  15.972 -0.7776 -0.2214 -1.3324
 5001TIP3    H236419   4.498   2.989  16.005 -0.6667  2.0002  1.0543
 5002TIP3   OH236420   4.606   3.299  13.076 -0.0596  0.2372 -0.6225
 5002TIP3    H136421   4.660   3.251  13.014  1.1137  0.3543  0.2829
 5002TIP3    H236422   4.578   3.233  13.140 -3.6034 -0.5224 -2.6717
 5003TIP3   OH236423   6.242   5.672  12.664  0.2018 -0.4426  0.1236
 5003TIP3    H136424   6.168   5.732  12.673  0.1683 -0.0256 -2.3850
 5003TIP3    H236425   6.284   5.697  12.582  3.1133 -0.7283  1.3824
 5004TIP3   OH236426   3.386   5.210   0.192  0.5800 -0.2127  0.7703
 5004TIP3    H136427   3.414   5.133   0.142 -0.4226  0.3826 -0.7770
 5004TIP3    H236428   3.290   5.205   0.189  0.5012  1.2782  0.3440
 5005TIP3   OH236429   6.310   6.408   4.146  0.4245 -0.7042 -0.1685
 5005TIP3    H136430   6.391   6.453   4.121  0.5625 -1.1706 -0.5941
 5005TIP3    H236431   6.243   6.476   4.146  0.6679 -0.4617 -0.5785
 5006TIP3   OH236432   3.263   0.506   5.640  0.1862 -0.2958 -0.2567
 5006TIP3    H136433   3.177   0.517   5.680  0.7302  1.2658  0.5708
 5006TIP3    H236434   3.258   0.555   5.558  0.9676  1.8583  0.9106
 5007TIP3   OH236435   3.668   2.008  17.074  0.3660 -0.0919 -0.1332
 5007TIP3    H136436   3.635   2.053  17.152 -0.5299  1.1305 -1.1883
 5007TIP3    H236437   3.594   1.957  17.043  0.9162 -1.0970  0.1593
 5008TIP3   OH236438   5.074   0.574   0.478 -0.3381  0.3500  0.5902
 5008TIP3    H136439   5.126   0.627   0.418 -0.8058  2.4324  1.9313
 5008TIP3    H236440   5.063   0.490   0.432 -1.2834  2.0272 -2.5992
 5009TIP3   OH236441   3.561   2.751   0.144  0.1138  0.7408 -0.4431
 5009TIP3    H136442   3.481   2.788   0.107  0.4736  1.0141 -0.9726
 5009TIP3    H236443   3.608   2.716   0.068  1.3301  2.1901 -0.3958
 5010TIP3   OH236444   6.511   4.368   4.549 -1.4974 -0.2993  0.4893
 5010TIP3    H136445   6.550   4.424   4.482  0.1610 -1.5186  0.3674
 5010TIP3    H236446   6.478   4.293   4.501 -2.2421 -0.1985  0.8290
 5011TIP3   OH236447   2.247   5.668  15.646 -0.4505  0.1469 -0.3655
 5011TIP3    H136448   2.332   5.633  15.672 -1.1075 -1.1426  0.1228
 5011TIP3    H236449   2.245   5.756  15.684  0.0871 -0.3575  0.8981
 5012TIP3   OH236450   6.693   1.946   5.900  0.2750 -0.7555 -0.2734
 5012TIP3    H136451   6.777   1.920   5.938  0.0922  0.9260  1.4477
 5012TIP3    H236452   6.713   2.023   5.847 -0.1509 -0.4070  0.0651
 5013TIP3   OH236453   0.369   4.545   4.551 -0.5082  0.1107  0.6705
 5013TIP3    H136454   0.292   4.527   4.498 -0.1717  1.8271 -0.4799
 5013TIP3    H236455   0.335   4.584   4.631 -0.9526 -1.3627  1.2146
 5014TIP3   OH236456   1.065   4.567   3.543 -0.2839  0.3813 -0.4453
 5014TIP3    H136457   1.071   4.499   3.477  0.9422  0.5235 -0.5042
 5014TIP3    H236458   0.993   4.539   3.600 -0.2812 -0.5694 -0.8926
 5015TIP3   OH236459   0.857   6.282  14.339 -0.0562  0.8027 -0.3608
 5015TIP3    H136460   0.823   6.228  14.268 -1.0095 -0.3462  0.9319
 5015TIP3    H236461   0.943   6.311  14.307  0.5670 -1.6019 -1.0540
 5016TIP3   OH236462   1.713   1.451  12.945 -0.5331 -0.1537 -0.2735
 5016TIP3    H136463   1.748   1.449  13.034  0.6581 -1.2103 -0.7320
 5016TIP3    H236464   1.741   1.368  12.907  0.0483  0.8054 -2.0336
 5017TIP3   OH236465   6.419   0.509  11.592  0.1082 -0.2766 -0.8653
 5017TIP3    H136466   6.415   0.541  11.682 -1.5061  0.6220 -1.2122
 5017TIP3    H236467   6.416   0.414  11.600 -1.5061 -0.1919  0.0301
 5018TIP3   OH236468   0.132   3.968   1.872  0.0452 -0.4914  0.1021
 5018TIP3    H136469   0.057   4.019   1.905  0.2594  0.9047 -1.4347
 5018TIP3    H236470   0.143   3.997   1.782  0.7352 -2.7099 -0.5901
 5019TIP3   OH236471   5.066   2.547  11.879 -0.2004 -0.1686 -0.3988
 5019TIP3    H136472   5.011   2.486  11.929 -1.7324  1.6522  0.3129
 5019TIP3    H236473   5.154   2.512  11.886 -0.7298 -1.2634  1.6076
 5020TIP3   OH236474   2.466   4.615  14.920 -0.1551  0.0480  0.7999
 5020TIP3    H136475   2.544   4.670  14.933 -0.7600  0.7517  1.5633
 5020TIP3    H236476   2.453   4.572  15.005 -0.0407 -0.8239  0.3843
 5021TIP3   OH236477   6.358   6.609  15.057  0.1632  0.4745  0.2374
 5021TIP3    H136478   6.410   6.658  14.993  0.6522 -0.0672  0.2093
 5021TIP3    H236479   6.339   6.526  15.013  2.2753 -0.7869  1.5263
 5022TIP3   OH236480   3.307   0.377   0.032 -0.5482  0.0357 -0.7192
 5022TIP3    H136481   3.350   0.292   0.044 -1.1076  0.0277  1.6519
 5022TIP3    H236482   3.215   0.361   0.054 -0.4987  1.4228  0.6406
 5023TIP3   OH236483   4.189   5.979  15.951 -0.3617  0.1313  0.2282
 5023TIP3    H136484   4.119   6.035  15.916  0.0045  0.1918 -0.4220
 5023TIP3    H236485   4.236   5.949  15.874  0.5794  0.4140  0.6807
 5024TIP3   OH236486   4.399   5.944  16.535 -0.4980  0.3857 -0.1325
 5024TIP3    H136487   4.307   5.919  16.545  0.1499 -1.2847  3.1217
 5024TIP3    H236488   4.416   6.003  16.609  1.2707 -0.2493  0.0180
 5025TIP3   OH236489   4.223   0.180  15.789  0.8792  0.0363 -0.2797
 5025TIP3    H136490   4.145   0.148  15.835 -0.0107  0.5601 -1.3717
 5025TIP3    H236491   4.193   0.196  15.699  1.4392  3.0829 -0.0390
 5026TIP3   OH236492   2.060   5.243   3.638 -0.4280  0.4072 -0.1581
 5026TIP3    H136493   2.111   5.241   3.719 -0.5373  1.7765 -0.0390
 5026TIP3    H236494   2.123   5.263   3.570 -0.1166 -1.9006 -0.6436
 5027TIP3   OH236495   3.493   6.172  14.595  0.2569 -0.0176 -0.3560
 5027TIP3    H136496   3.539   6.111  14.537  0.4536 -0.5575  0.3403
 5027TIP3    H236497   3.401   6.164  14.571  0.2851 -0.5674 -0.3000
 5028TIP3   OH236498   1.984   1.982  11.266 -0.4748  1.0073  0.6844
 5028TIP3    H136499   2.021   2.035  11.337  1.5782 -1.2799  1.4801
 5028TIP3    H236500   2.001   2.032  11.187  1.5419  1.5125  1.3749
 5029TIP3   OH236501   1.248   3.382  10.841 -0.1277  0.3134 -0.1566
 5029TIP3    H136502   1.251   3.303  10.896 -0.5083  0.0943 -0.4446
 5029TIP3    H236503   1.317   3.369  10.776  2.6062  2.0273  2.1592
 5030TIP3   OH236504   3.677   2.505   1.717  0.5596 -0.0216  0.1434
 5030TIP3    H136505   3.597   2.538   1.757  0.9613  1.3417 -0.1240
 5030TIP3    H236506   3.693   2.565   1.644  2.4501  0.4409  0.8875
 5031TIP3   OH236507   1.783   6.674  13.395  0.3571 -0.2373  0.6111
 5031TIP3    H136508   1.875   6.673  13.368  0.0378  0.5331 -0.5499
 5031TIP3    H236509   1.736   6.630  13.324 -0.4064  1.1914  0.1924
 5032TIP3   OH236510   2.866   5.167   3.649  0.1820  0.0395 -0.3537
 5032TIP3    H136511   2.936   5.103   3.635 -0.3813 -0.3796 -1.3820
 5032TIP3    H236512   2.798   5.142   3.587 -1.2342 -0.0493  1.1521
 5033TIP3   OH236513   0.475   2.140   4.124  0.0872 -0.6134  0.0227
 5033TIP3    H136514   0.517   2.133   4.210 -2.2530 -3.0535  1.1155
 5033TIP3    H236515   0.527   2.205   4.077 -0.7638  4.0657  4.5990
 5034TIP3   OH236516   1.056   4.048  13.840  0.1687 -0.2034 -0.2216
 5034TIP3    H136517   0.974   4.038  13.791 -0.2147 -0.6953  0.4932
 5034TIP3    H236518   1.110   4.105  13.786 -0.0120 -1.1855 -1.4897
 5035TIP3   OH236519   0.653   3.519   2.529  0.2528 -0.5875  1.3119
 5035TIP3    H136520   0.613   3.521   2.442 -0.5963 -3.0706  1.5720
 5035TIP3    H236521   0.663   3.611   2.553 -0.9927  0.1398 -0.7314
 5036TIP3   OH236522   3.836   6.549  13.359 -0.3228 -0.3758  0.3986
 5036TIP3    H136523   3.872   6.587  13.439  3.7650 -0.2798 -1.2281
 5036TIP3    H236524   3.870   6.460  13.358  0.0847 -0.2296 -1.3990
 5037TIP3   OH236525   4.162   0.996   4.169  0.3610  0.0472 -0.3078
 5037TIP3    H136526   4.172   0.914   4.121 -0.8982  0.8181 -1.9803
 5037TIP3    H236527   4.144   0.969   4.259  1.0435 -1.4830 -0.6066
 5038TIP3   OH236528   4.485   4.042  15.145  0.0504 -0.1659 -0.0621
 5038TIP3    H136529   4.463   4.014  15.056 -0.3942  1.2598 -0.4212
 5038TIP3    H236530   4.509   3.961  15.190  1.6180 -0.7634 -1.8478
 5039TIP3   OH236531   1.076   3.899   2.311  0.0135  0.1250 -0.2871
 5039TIP3    H136532   1.123   3.980   2.330 -0.5912  0.5941 -0.7596
 5039TIP3    H236533   0.992   3.927   2.275 -1.3817 -0.6630  2.1262
 5040TIP3   OH236534   1.912   5.322   0.114  0.4640 -0.1960 -0.4895
 5040TIP3    H136535   1.955   5.309   0.198  1.3705 -1.2181 -1.0715
 5040TIP3    H236536   1.819   5.307   0.131  0.5676  0.1773  0.4329
 5041TIP3   OH236537   1.330   0.441  11.043  0.1421 -0.6961 -0.3597
 5041TIP3    H136538   1.272   0.507  11.004 -1.1682 -1.5975  0.0117
 5041TIP3    H236539   1.406   0.439  10.985  0.7003  1.8480  0.1659
 5042TIP3   OH236540   4.802   2.150  17.118 -0.2160  0.1274 -0.0805
 5042TIP3    H136541   4.820   2.227  17.063 -0.4708 -0.0861 -0.4624
 5042TIP3    H236542   4.874   2.089  17.099  0.0500  0.3072  0.3083
 5043TIP3   OH236543   3.180   4.933  14.854 -0.2093  0.6271 -0.3373
 5043TIP3    H136544   3.271   4.940  14.884 -0.3054 -1.3671  0.5663
 5043TIP3    H236545   3.186   4.944  14.759  0.7637  1.9904 -0.1501
 5044TIP3   OH236546   3.769   1.383  15.341 -0.1235  0.3450  0.0133
 5044TIP3    H136547   3.769   1.356  15.249 -0.1240  3.5009 -1.0365
 5044TIP3    H236548   3.837   1.450  15.346 -0.3775  0.4877  2.2392
 5045TIP3   OH236549   4.386   1.041   5.109  0.1663 -0.1739 -0.0891
 5045TIP3    H136550   4.294   1.026   5.090  0.3402 -1.1682 -0.2292
 5045TIP3    H236551   4.387   1.114   5.171 -0.8848 -1.6316  1.7843
 5046TIP3   OH236552   3.800   5.012  11.212  0.3081 -0.3385  0.7482
 5046TIP3    H136553   3.865   5.049  11.272 -0.1420 -1.2563  1.8280
 5046TIP3    H236554   3.727   4.986  11.268 -0.6934 -0.0029 -0.3573
 5047TIP3   OH236555   6.324   0.411   1.504  0.5466  0.3065 -0.2472
 5047TIP3    H136556   6.253   0.471   1.485  1.1433  1.0919 -0.0254
 5047TIP3    H236557   6.382   0.459   1.563  0.7428 -0.6835  0.4124
 5048TIP3   OH236558   4.403   5.853   1.307 -0.1860 -0.4104 -0.3857
 5048TIP3    H136559   4.478   5.832   1.363 -0.8463 -0.6213  0.4497
 5048TIP3    H236560   4.384   5.945   1.326  0.4390 -0.0917 -1.2990
 5049TIP3   OH236561   1.716   3.626  10.590 -0.0972 -0.4471  0.0914
 5049TIP3    H136562   1.788   3.660  10.537 -0.3947  1.9223  1.1160
 5049TIP3    H236563   1.756   3.556  10.641  0.7019 -1.2889 -1.5777
 5050TIP3   OH236564   4.985   5.842   0.370 -0.1002  0.4233  0.5778
 5050TIP3    H136565   5.070   5.834   0.327 -0.0650 -2.3674  0.9454
 5050TIP3    H236566   4.927   5.879   0.304  0.9045  0.2857 -0.4032
 5051TIP3   OH236567   4.033   0.459   3.152 -0.4774 -0.0026 -0.3697
 5051TIP3    H136568   4.101   0.402   3.117 -1.0497 -1.5978  0.9417
 5051TIP3    H236569   3.955   0.438   3.100 -0.5836 -0.1035 -0.1722
 5052TIP3   OH236570   2.171   4.816  10.913  0.4593  0.7059  0.1454
 5052TIP3    H136571   2.211   4.800  10.827  1.0217 -0.2541  0.5603
 5052TIP3    H236572   2.241   4.856  10.965  0.5622  0.0321  0.5448
 5053TIP3   OH236573   3.224   0.914  12.090  0.1129 -0.1752 -0.1189
 5053TIP3    H136574   3.165   0.923  12.015 -1.7936  0.4623  1.3788
 5053TIP3    H236575   3.168   0.882  12.161  1.8699 -0.8648  1.0363
 5054TIP3   OH236576   2.747   3.519  15.237  0.4248 -0.1414  0.3013
 5054TIP3    H136577   2.715   3.566  15.313 -0.6078  0.3603 -0.4251
 5054TIP3    H236578   2.719   3.572  15.162  2.1939 -0.1383 -0.4136
 5055TIP3   OH236579   6.268   6.673  17.175 -0.1559  0.0564  0.2662
 5055TIP3    H136580   6.324   6.743  17.141 -0.5656 -0.3579 -1.3523
 5055TIP3    H236581   6.235   6.629  17.097  0.4286 -2.2464  1.2241
 5056TIP3   OH236582   4.710   2.803   4.878 -0.0463 -0.1351  0.0519
 5056TIP3    H136583   4.663   2.747   4.940  0.7189 -0.8670 -0.0016
 5056TIP3    H236584   4.712   2.752   4.797 -0.2578  0.4278 -0.3089
 5057TIP3   OH236585   1.152   0.197   1.702  0.0700  0.4403 -0.0588
 5057TIP3    H136586   1.093   0.161   1.636  0.9269 -1.0356 -0.0816
 5057TIP3    H236587   1.149   0.133   1.774  1.0906  0.6844  0.2167
 5058TIP3   OH236588   6.522   1.434  12.405  0.3434  0.9719  0.3619
 5058TIP3    H136589   6.470   1.505  12.443 -0.8657 -1.0474  2.7954
 5058TIP3    H236590   6.462   1.389  12.346  1.5090  2.6414 -2.2743
 5059TIP3   OH236591   3.945   1.319  14.280  0.4884  0.3134 -0.1150
 5059TIP3    H136592   4.003   1.337  14.355 -0.2223  1.2787  0.2140
 5059TIP3    H236593   3.939   1.223  14.278 -1.6253  0.2284  2.7926
 5060TIP3   OH236594   6.662   3.068   0.715  0.2719 -0.1560  0.3338
 5060TIP3    H136595   6.622   2.993   0.671  0.9207 -0.9775  1.1087
 5060TIP3    H236596   6.610   3.143   0.686  0.6069 -0.6520 -1.7806
 5061TIP3   OH236597   3.145   2.067   3.081 -0.6296 -0.0239  0.2691
 5061TIP3    H136598   3.073   2.030   3.031 -1.0493 -0.0579  0.8953
 5061TIP3    H236599   3.110   2.080   3.169  0.2829 -0.5400  0.7229
 5062TIP3   OH236600   0.216   4.350  10.705 -0.1706  0.1320  0.1766
 5062TIP3    H136601   0.249   4.261  10.695 -1.1486 -0.3374  0.9523
 5062TIP3    H236602   0.289   4.406  10.678  1.3628 -0.8289  2.0986
 5063TIP3   OH236603   1.600   5.618  15.630  0.8108  0.2271 -0.9538
 5063TIP3    H136604   1.633   5.644  15.544  1.2098  2.2618 -0.2461
 5063TIP3    H236605   1.553   5.696  15.662 -0.3521 -0.8872  0.1847
 5064TIP3   OH236606   2.590   3.986  12.884  0.4020  0.1727  0.0206
 5064TIP3    H136607   2.682   4.010  12.875  0.4735  0.2334  0.8433
 5064TIP3    H236608   2.575   3.982  12.979 -0.7617  1.4233 -0.0619
 5065TIP3   OH236609   2.112   4.306  11.880 -0.1452 -0.0241  0.0673
 5065TIP3    H136610   2.060   4.298  11.800 -1.1013 -0.5034  0.7197
 5065TIP3    H236611   2.109   4.219  11.919  1.6374 -0.2251 -0.1523
 5066TIP3   OH236612   5.700   3.435  15.615 -0.1720  0.5184  0.3830
 5066TIP3    H136613   5.706   3.529  15.631  1.3132  0.8347 -1.7048
 5066TIP3    H236614   5.619   3.425  15.564 -1.2260  0.3888  1.9989
 5067TIP3   OH236615   4.388   5.187  12.135 -0.3547  0.3662  0.1194
 5067TIP3    H136616   4.358   5.231  12.056 -2.6608  0.3619  0.9290
 5067TIP3    H236617   4.322   5.208  12.201  1.3271  0.1135  1.9824
 5068TIP3   OH236618   5.144   1.906  15.902 -0.3834  0.7177 -0.1517
 5068TIP3    H136619   5.166   1.814  15.891 -0.9689  0.7357 -1.7707
 5068TIP3    H236620   5.188   1.932  15.983  1.1573 -0.5415 -0.5395
 5069TIP3   OH236621   5.078   4.939   1.261 -0.0650  0.3372  0.3763
 5069TIP3    H136622   5.149   4.897   1.211  0.3240  1.4474 -0.0609
 5069TIP3    H236623   5.082   4.899   1.347  0.7901  0.0317  0.2062
 5070TIP3   OH236624   0.382   5.872  17.147 -0.0868 -0.3713 -0.1973
 5070TIP3    H136625   0.350   5.868  17.238  2.8024  2.1932  1.0931
 5070TIP3    H236626   0.303   5.882  17.095 -1.7026  1.6238  2.3845
 5071TIP3   OH236627   4.769   4.244  12.000 -0.1842  0.3241 -0.9848
 5071TIP3    H136628   4.855   4.282  11.980  0.1760 -0.2080 -0.4690
 5071TIP3    H236629   4.734   4.218  11.915  0.6553 -0.4866 -1.0970
 5072TIP3   OH236630   4.891   3.960  14.169 -0.0223 -0.0172 -0.0426
 5072TIP3    H136631   4.822   3.894  14.176  0.7869 -0.8011  0.9234
 5072TIP3    H236632   4.912   3.962  14.076  0.9020 -2.1993  0.0473
 5073TIP3   OH236633   2.115   1.213   5.656  0.0634 -0.1445  0.2651
 5073TIP3    H136634   2.122   1.307   5.634  0.9056 -0.1242  0.6055
 5073TIP3    H236635   2.048   1.210   5.724 -0.7029  0.0902 -0.4596
 5074TIP3   OH236636   1.505   0.911   0.974 -0.0737 -0.4145  0.2391
 5074TIP3    H136637   1.514   0.867   0.890  2.7838  2.1188 -0.9752
 5074TIP3    H236638   1.594   0.920   1.007 -0.8107  1.3797  1.9919
 5075TIP3   OH236639   3.307   4.665   2.841 -0.2177  0.5896  0.4579
 5075TIP3    H136640   3.279   4.723   2.770  0.5119 -0.0508 -0.3744
 5075TIP3    H236641   3.227   4.624   2.872 -0.4314  0.0277 -0.7712
 5076TIP3   OH236642   4.376   3.446  14.869 -0.4128  0.7854  0.5236
 5076TIP3    H136643   4.288   3.425  14.900  0.0091  0.6101  1.6690
 5076TIP3    H236644   4.378   3.414  14.779 -1.3061  0.1676  0.7065
 5077TIP3   OH236645   0.276   4.978  15.676  0.0410  0.7754  0.3334
 5077TIP3    H136646   0.238   5.038  15.611 -0.3668 -1.2186 -1.3946
 5077TIP3    H236647   0.319   4.910  15.623  2.5859  0.7658  2.2003
 5078TIP3   OH236648   4.275   4.030  13.459 -0.1052  0.8631 -0.2397
 5078TIP3    H136649   4.361   4.041  13.419 -0.6732  2.2006 -1.1325
 5078TIP3    H236650   4.271   3.937  13.482  0.9746  0.4546 -1.5845
 5079TIP3   OH236651   2.270   3.197   5.454  0.8648  0.6774 -0.0743
 5079TIP3    H136652   2.233   3.237   5.376 -0.9234  0.1540  0.4444
 5079TIP3    H236653   2.271   3.266   5.520 -1.0644  0.2619  0.4599
 5080TIP3   OH236654   2.302   6.497  14.636  0.1718 -0.6000  0.8748
 5080TIP3    H136655   2.325   6.411  14.600 -0.4857 -0.4338  0.0253
 5080TIP3    H236656   2.232   6.529  14.579  0.6925  0.6808  0.9108
 5081TIP3   OH236657   4.485   2.910  16.901  0.3762 -0.3459 -0.0269
 5081TIP3    H136658   4.521   2.877  16.983 -1.3128 -0.2129  0.8276
 5081TIP3    H236659   4.513   2.847  16.835  2.6081  0.0786  0.4530
 5082TIP3   OH236660   0.308   1.626   2.175  0.6850 -0.7532 -0.3230
 5082TIP3    H136661   0.220   1.593   2.193  0.6484 -1.0770 -1.0366
 5082TIP3    H236662   0.322   1.696   2.238 -1.5095  1.7939 -2.4206
 5083TIP3   OH236663   0.818   0.152  15.947  0.2482 -0.0034  0.4199
 5083TIP3    H136664   0.905   0.134  15.913  0.2959 -0.3370  0.7058
 5083TIP3    H236665   0.784   0.066  15.973  1.0156  0.4149  3.1103
 5084TIP3   OH236666   3.575   1.473  11.571 -0.0712 -0.2192  0.1307
 5084TIP3    H136667   3.655   1.494  11.523 -0.1414  0.8356  0.4556
 5084TIP3    H236668   3.504   1.500  11.513 -0.2395 -2.1127 -0.6009
 5085TIP3   OH236669   2.778   3.423   5.070 -0.0585 -0.4094  0.0808
 5085TIP3    H136670   2.725   3.371   5.129  0.4525 -1.2427 -0.1709
 5085TIP3    H236671   2.780   3.373   4.988  1.1674 -0.4522  0.1097
 5086TIP3   OH236672   1.302   3.457   2.782 -0.4341 -0.6457 -0.4618
 5086TIP3    H136673   1.363   3.449   2.855  0.8873  1.6820 -1.2078
 5086TIP3    H236674   1.357   3.459   2.704 -1.4901  0.6066 -1.2277
 5087TIP3   OH236675   4.399   3.616  14.626 -0.2732 -0.3682  0.6776
 5087TIP3    H136676   4.434   3.529  14.610  1.1677  0.2177  0.5126
 5087TIP3    H236677   4.475   3.674  14.622 -1.5516  1.3091 -2.3033
 5088TIP3   OH236678   4.987   1.018  15.655  0.0447 -0.4966  0.3553
 5088TIP3    H136679   5.005   0.924  15.660 -1.5334 -0.7717  2.0931
 5088TIP3    H236680   4.939   1.028  15.573  1.1366 -1.0057 -0.3699
 5089TIP3   OH236681   0.603   4.425  12.118  0.0607 -0.2895 -0.0477
 5089TIP3    H136682   0.681   4.474  12.145 -0.5575 -0.0270  1.3073
 5089TIP3    H236683   0.547   4.491  12.076  1.2665 -0.8012 -2.6982
 5090TIP3   OH236684   4.198   1.803   4.054 -0.2014  0.0722  0.5268
 5090TIP3    H136685   4.254   1.872   4.090  2.2430 -2.0686  1.1504
 5090TIP3    H236686   4.211   1.810   3.959  1.0604 -0.3025  0.6556
 5091TIP3   OH236687   4.383   3.043  13.643  0.0249 -0.1583  0.1339
 5091TIP3    H136688   4.456   3.083  13.595  1.8867 -0.9004  2.1871
 5091TIP3    H236689   4.397   3.070  13.734 -0.1755 -3.1667  1.1621
 5092TIP3   OH236690   5.617   4.513  16.873  0.5068 -0.2383 -0.2858
 5092TIP3    H136691   5.655   4.468  16.797  1.3378 -3.4126  1.8237
 5092TIP3    H236692   5.691   4.559  16.913  0.7802 -1.2220  0.3526
 5093TIP3   OH236693   1.643   5.568  10.874 -0.0327  0.7927 -0.0276
 5093TIP3    H136694   1.554   5.580  10.841  0.6948 -1.7118 -3.4698
 5093TIP3    H236695   1.680   5.657  10.876 -2.0696  1.6981 -0.1483
 5094TIP3   OH236696   5.015   0.641   4.526 -0.3761 -0.1517  0.0677
 5094TIP3    H136697   4.939   0.695   4.547 -0.7552 -1.1169  1.2792
 5094TIP3    H236698   4.988   0.590   4.449  0.6271  2.5985 -2.2671
 5095TIP3   OH236699   2.700   6.557  13.694  0.2035  0.5327  0.2800
 5095TIP3    H136700   2.619   6.578  13.648  0.6979 -0.9669 -1.3765
 5095TIP3    H236701   2.756   6.633  13.681 -0.1867  0.7120 -0.3975
 5096TIP3   OH236702   5.507   6.334   0.271  0.4139 -0.4843  0.6726
 5096TIP3    H136703   5.567   6.368   0.205 -0.1951  0.6434  0.6634
 5096TIP3    H236704   5.563   6.289   0.334  0.9857 -1.7645 -0.6859
 5097TIP3   OH236705   5.380   4.970   4.950  0.6254  0.4338 -0.2583
 5097TIP3    H136706   5.303   4.975   4.894  0.1077  0.4874  0.4372
 5097TIP3    H236707   5.400   4.876   4.955  0.1124  0.3435  0.1993
 5098TIP3   OH236708   0.579   4.417   5.552 -1.1766 -0.2543 -0.4409
 5098TIP3    H136709   0.588   4.496   5.606 -1.3568 -0.1966 -0.4920
 5098TIP3    H236710   0.615   4.442   5.467  2.0049 -1.2726  0.4651
 5099TIP3   OH236711   4.523   6.226  14.651  0.2800  0.0235  0.3606
 5099TIP3    H136712   4.504   6.159  14.717 -1.8980 -0.3297 -0.5413
 5099TIP3    H236713   4.486   6.306  14.688  2.1413  0.6372  1.0572
 5100TIP3   OH236714   4.581   2.773  16.153  0.2818 -0.0675 -0.3367
 5100TIP3    H136715   4.654   2.792  16.095  0.5637  1.3227  0.4024
 5100TIP3    H236716   4.510   2.830  16.121 -0.1687 -0.6818 -0.4514
 5101TIP3   OH236717   0.900   5.474  10.701  0.3233 -0.8085 -0.2752
 5101TIP3    H136718   0.900   5.568  10.683 -0.3456 -0.7785 -0.1330
 5101TIP3    H236719   0.992   5.453  10.717  0.3219  0.0838  1.0780
 5102TIP3   OH236720   6.709   0.574   3.655 -0.3427  0.1583 -0.0341
 5102TIP3    H136721   6.750   0.619   3.581 -0.3763  0.3474  0.0608
 5102TIP3    H236722   6.652   0.640   3.694 -1.4976 -0.3795 -0.7510
 5103TIP3   OH236723   2.385   3.726  13.039  0.3806  0.1605 -0.2878
 5103TIP3    H136724   2.413   3.720  12.948  0.8652  1.1688 -0.2181
 5103TIP3    H236725   2.463   3.754  13.086 -0.0626  0.3990  0.3160
 5104TIP3   OH236726   3.887   3.770   3.818  0.4385  0.1003 -0.7292
 5104TIP3    H136727   3.902   3.854   3.861  1.8210 -0.5681  0.1555
 5104TIP3    H236728   3.821   3.789   3.751 -0.3047  1.5805  0.3638
 5105TIP3   OH236729   3.238   2.763  15.832 -0.4528 -0.3722 -0.2193
 5105TIP3    H136730   3.317   2.791  15.787  0.0133 -0.4089  0.5538
 5105TIP3    H236731   3.251   2.790  15.923 -0.6196 -1.7988  0.2593
 5106TIP3   OH236732   2.447   3.634   5.294 -0.1339 -0.0729  0.1006
 5106TIP3    H136733   2.366   3.586   5.306  0.4401 -1.0784  0.1126
 5106TIP3    H236734   2.511   3.586   5.346  0.4828  0.6614  0.0419
 5107TIP3   OH236735   4.155   6.071   6.123  0.2548 -0.0685 -0.9519
 5107TIP3    H136736   4.125   5.982   6.107  1.9038 -0.5824 -1.3435
 5107TIP3    H236737   4.242   6.061   6.162  0.0954  1.3570 -0.1288
 5108TIP3   OH236738   3.889   6.685  16.912  0.2578 -0.4075  0.1398
 5108TIP3    H136739   3.808   6.731  16.890  0.9059 -0.0999 -1.7429
 5108TIP3    H236740   3.958   6.750  16.902  1.1238 -1.5801 -2.0277
 5109TIP3   OH236741   2.769   2.047  13.448 -0.1179  0.2909  0.3427
 5109TIP3    H136742   2.763   2.015  13.358  1.9243  2.9897 -0.9080
 5109TIP3    H236743   2.737   2.138  13.444  0.3119  0.5799  2.2771
 5110TIP3   OH236744   1.742   2.927  13.673  0.3922 -0.3764  0.0280
 5110TIP3    H136745   1.757   2.978  13.752 -0.4183  0.3950 -0.2927
 5110TIP3    H236746   1.646   2.922  13.666  0.4479 -1.8428 -0.0253
 5111TIP3   OH236747   3.663   4.307  10.617 -0.3162 -0.1895  0.2133
 5111TIP3    H136748   3.601   4.260  10.561 -2.1043  1.0826  1.0466
 5111TIP3    H236749   3.671   4.253  10.695 -0.2187 -0.4400  0.0329
 5112TIP3   OH236750   2.525   0.864   2.782  0.3462  0.1787 -0.2790
 5112TIP3    H136751   2.478   0.815   2.714  0.5831  1.2383 -1.2409
 5112TIP3    H236752   2.481   0.840   2.864  0.2903 -1.4173 -0.7334
 5113TIP3   OH236753   3.317   3.323   0.388 -0.3335  0.4289 -0.0805
 5113TIP3    H136754   3.350   3.404   0.349  0.2419  0.1352 -0.2157
 5113TIP3    H236755   3.297   3.346   0.478  1.6455  0.2613  0.4377
 5114TIP3   OH236756   1.601   4.591  12.932  0.0154  0.5098 -0.5245
 5114TIP3    H136757   1.595   4.583  12.837 -0.0676  0.9744 -0.5591
 5114TIP3    H236758   1.659   4.666  12.946  0.7742 -0.1223 -0.2082
 5115TIP3   OH236759   0.557   3.174  11.705 -0.1902 -0.1551 -0.4397
 5115TIP3    H136760   0.612   3.171  11.627  0.2065 -2.0093 -0.1405
 5115TIP3    H236761   0.468   3.184  11.671  0.0169 -0.5488 -1.1127
 5116TIP3   OH236762   5.385   6.053  16.622 -0.0319 -0.0364 -0.7982
 5116TIP3    H136763   5.307   6.051  16.677  0.7523  0.2448  0.3440
 5116TIP3    H236764   5.452   6.095  16.676  0.6186  0.7321 -2.1588
 5117TIP3   OH236765   6.782   0.253  16.922  0.3042 -0.3760 -0.3727
 5117TIP3    H136766   6.815   0.330  16.969  1.1514 -1.1304  0.2856
 5117TIP3    H236767   6.752   0.288  16.838 -0.3589  0.8514  0.3308
 5118TIP3   OH236768   5.985   2.645  16.886  0.2271  0.1424  0.0305
 5118TIP3    H136769   6.005   2.628  16.794  1.1992  0.6849  0.1335
 5118TIP3    H236770   6.023   2.731  16.903  0.4754 -0.1642  1.0687
 5119TIP3   OH236771   0.834   5.658  11.275  0.2074 -0.3531 -0.0400
 5119TIP3    H136772   0.845   5.608  11.194 -1.5313 -0.6893 -0.0927
 5119TIP3    H236773   0.901   5.622  11.334 -0.0792 -1.7841 -0.5400
 5120TIP3   OH236774   4.839   0.801   6.086  0.3580 -0.0582  0.4853
 5120TIP3    H136775   4.902   0.733   6.111  2.7377  1.8228  0.0114
 5120TIP3    H236776   4.848   0.808   5.991  0.2022  0.9252  0.5324
 5121TIP3   OH236777   1.050   6.446   0.854  0.7820 -0.4099 -1.1724
 5121TIP3    H136778   1.107   6.392   0.799 -0.4318 -1.1769 -1.7049
 5121TIP3    H236779   0.991   6.489   0.793  0.1130 -0.4379 -0.5606
 5122TIP3   OH236780   4.996   0.330   1.575  0.3717  0.1570 -0.2304
 5122TIP3    H136781   5.019   0.256   1.519  0.5476  1.5040 -2.0294
 5122TIP3    H236782   5.068   0.393   1.562  0.4953  0.4583  1.6563
 5123TIP3   OH236783   2.152   5.836  11.580  0.1554 -0.1886 -0.1221
 5123TIP3    H136784   2.124   5.925  11.560  1.6002  0.6299  1.2404
 5123TIP3    H236785   2.212   5.813  11.510 -0.1255 -0.0493 -0.4110
 5124TIP3   OH236786   3.857   1.499  14.827  0.0250  0.1817  0.3171
 5124TIP3    H136787   3.834   1.422  14.879 -2.8495  0.1506 -0.8045
 5124TIP3    H236788   3.949   1.516  14.848 -0.0973 -1.7255  2.8685
 5125TIP3   OH236789   5.738   5.291   0.335  0.3263 -0.2833 -0.2614
 5125TIP3    H136790   5.663   5.245   0.372  0.5451 -0.1132  0.4078
 5125TIP3    H236791   5.702   5.337   0.259  0.2590 -2.1528 -1.4352
 5126TIP3   OH236792   0.321   2.229  13.529  0.3667 -0.1350  0.1090
 5126TIP3    H136793   0.414   2.248  13.513  0.5901 -1.0220  0.3245
 5126TIP3    H236794   0.312   2.136  13.511 -0.5819  0.0297 -0.3328
 5127TIP3   OH236795   0.224   6.327  10.779  0.0741  0.3402  0.2883
 5127TIP3    H136796   0.230   6.280  10.696  0.0711  0.3602  0.2768
 5127TIP3    H236797   0.315   6.349  10.800  0.0317  0.7052  0.0804
 5128TIP3   OH236798   3.921   3.712   2.828  0.8199 -0.2768  0.0346
 5128TIP3    H136799   3.947   3.787   2.882 -1.7373  0.7438 -0.0134
 5128TIP3    H236800   3.925   3.637   2.888  0.0931  0.4834  1.0524
 5129TIP3   OH236801   5.177   1.410  12.988 -0.1176 -0.1726  0.1050
 5129TIP3    H136802   5.103   1.471  12.986 -0.7888 -0.9799 -0.0458
 5129TIP3    H236803   5.162   1.356  13.065 -0.6587 -1.5167 -0.9059
 5130TIP3   OH236804   1.471   6.687  15.527  0.1893 -0.1600  0.2119
 5130TIP3    H136805   1.446   6.595  15.522  1.7683 -0.6590  0.9861
 5130TIP3    H236806   1.458   6.711  15.619  0.5193  0.1624  0.1804
 5131TIP3   OH236807   2.923   2.459  10.536 -0.5021  0.1135  0.1377
 5131TIP3    H136808   2.942   2.552  10.546 -0.5342 -0.0162  1.7703
 5131TIP3    H236809   3.001   2.415  10.571  0.4083 -0.5465 -2.4578
 5132TIP3   OH236810   1.948   5.492  10.609  0.0269  0.1220 -0.2923
 5132TIP3    H136811   1.925   5.585  10.610 -0.1131  0.1056  1.0792
 5132TIP3    H236812   2.044   5.491  10.612  0.0221  0.2291 -0.0676
 5133TIP3   OH236813   6.039   1.808   1.459  0.1426  0.7080  0.6057
 5133TIP3    H136814   6.008   1.784   1.372 -0.7930  1.6020  0.6639
 5133TIP3    H236815   6.121   1.761   1.470  0.4155  0.7953 -0.8733
 5134TIP3   OH236816   5.463   5.392   0.683  0.1905 -0.1733  0.0812
 5134TIP3    H136817   5.555   5.414   0.694 -0.0236  0.1224  1.4959
 5134TIP3    H236818   5.437   5.436   0.603  1.2600 -0.1999 -0.2885
 5135TIP3   OH236819   0.857   3.248   3.350 -0.0718  0.5272  0.0762
 5135TIP3    H136820   0.811   3.326   3.381  1.3015  1.6148 -0.5347
 5135TIP3    H236821   0.852   3.253   3.255 -0.2011 -0.2913  0.0307
 5136TIP3   OH236822   1.372   1.964  11.215  0.6813 -0.1231  0.0127
 5136TIP3    H136823   1.386   1.893  11.152  0.8496 -0.3394  0.2917
 5136TIP3    H236824   1.423   1.938  11.292 -0.4551 -0.4557  0.6864
 5137TIP3   OH236825   3.346   3.567  15.928  0.3549  0.0215  0.0814
 5137TIP3    H136826   3.377   3.521  16.006 -0.5182  1.6238  1.4231
 5137TIP3    H236827   3.281   3.629  15.960 -0.0953  0.6836 -1.9427
 5138TIP3   OH236828   1.869   3.161  14.012  0.5933  0.0879  0.0835
 5138TIP3    H136829   1.905   3.216  14.081  1.6074  0.0589 -0.3968
 5138TIP3    H236830   1.923   3.181  13.935 -1.3298  1.1263 -1.0981
 5139TIP3   OH236831   1.023   1.116  14.643 -0.0508 -0.1068  0.1062
 5139TIP3    H136832   0.977   1.153  14.718 -0.1622  0.5155 -0.2672
 5139TIP3    H236833   1.049   1.191  14.590  1.8228 -0.3964  0.5317
 5140TIP3   OH236834   5.019   4.109   2.615  0.1737 -0.4404 -0.5608
 5140TIP3    H136835   4.963   4.053   2.668  1.1526  0.0959  1.1118
 5140TIP3    H236836   4.983   4.197   2.625 -0.7594 -0.5723 -2.3655
 5141TIP3   OH236837   1.617   5.911   1.168  0.3698 -0.3925 -0.4001
 5141TIP3    H136838   1.595   5.818   1.160  1.2932 -0.5506 -1.3794
 5141TIP3    H236839   1.559   5.955   1.107 -0.9746 -0.1333  0.9906
 5142TIP3   OH236840   1.191   3.887   5.455 -0.0215  0.3486  0.4254
 5142TIP3    H136841   1.110   3.835   5.456 -1.1441  2.0391  1.0340
 5142TIP3    H236842   1.246   3.846   5.521 -0.8968 -0.0426  0.9288
 5143TIP3   OH236843   1.132   5.403  12.161  0.7841 -0.6609 -0.0274
 5143TIP3    H136844   1.038   5.403  12.142  0.7556 -0.7071  0.1101
 5143TIP3    H236845   1.141   5.348  12.239  0.8602 -0.2399  0.2638
 5144TIP3   OH236846   2.609   2.003   5.113 -0.3855 -0.9598  0.3159
 5144TIP3    H136847   2.587   2.011   5.205  0.1090 -0.2153  0.3734
 5144TIP3    H236848   2.542   1.945   5.077 -1.1458 -0.4627  0.9310
 5145TIP3   OH236849   0.233   1.824  13.741  0.6804  0.0655  0.2335
 5145TIP3    H136850   0.209   1.772  13.665  1.2849  1.9551 -1.3462
 5145TIP3    H236851   0.316   1.786  13.772  0.9428 -0.1137 -0.6806
 5146TIP3   OH236852   0.496   2.999  12.489 -0.0864  0.1761 -0.0360
 5146TIP3    H136853   0.419   2.971  12.439  1.4446 -0.1561 -2.3358
 5146TIP3    H236854   0.479   3.091  12.510 -1.2898 -0.0120 -0.1013
 5147TIP3   OH236855   1.662   6.379  15.285 -0.3126 -0.0455  0.5106
 5147TIP3    H136856   1.660   6.318  15.211  0.8628  1.7955 -1.1386
 5147TIP3    H236857   1.707   6.456  15.251 -1.9235  1.8503  2.4282
 5148TIP3   OH236858   5.433   1.560   2.596  0.0180  0.2154  0.1940
 5148TIP3    H136859   5.460   1.617   2.525  0.0955 -2.0404 -1.7155
 5148TIP3    H236860   5.513   1.516   2.625 -0.2627 -0.1166  0.4927
 5149TIP3   OH236861   1.723   1.962   1.986 -0.0254  0.3125 -0.4620
 5149TIP3    H136862   1.765   1.877   1.995  0.6742  0.3484 -2.8153
 5149TIP3    H236863   1.784   2.023   2.028  0.3188 -0.1286 -0.3136
 5150TIP3   OH236864   0.057   4.293   2.674 -0.1006 -0.3120 -0.1767
 5150TIP3    H136865   0.044   4.388   2.685  0.1150 -0.3484  0.4332
 5150TIP3    H236866  -0.013   4.254   2.727  1.5036 -0.5038  1.9416
 5151TIP3   OH236867   3.809   2.775  13.211 -0.1054  0.1984 -0.1352
 5151TIP3    H136868   3.831   2.706  13.148  1.9295  0.0718  0.6382
 5151TIP3    H236869   3.720   2.754  13.240 -1.0238  0.0954 -2.6980
 5152TIP3   OH236870   4.321   0.551  12.013  0.2967 -0.3570  0.5729
 5152TIP3    H136871   4.374   0.628  11.992  0.0248 -0.4103 -0.3296
 5152TIP3    H236872   4.276   0.529  11.932 -1.2133 -0.2534  1.3402
 5153TIP3   OH236873   1.819   1.040   5.194  0.5700 -0.0431  0.1466
 5153TIP3    H136874   1.845   1.096   5.121 -0.2274 -0.6461 -0.6215
 5153TIP3    H236875   1.820   0.951   5.158  1.3755 -0.4931  1.2227
 5154TIP3   OH236876   1.026   4.044   3.591  0.2758  0.3507  0.2669
 5154TIP3    H136877   1.047   4.045   3.498 -0.6880 -0.4381  0.0177
 5154TIP3    H236878   1.110   4.056   3.635  0.8829 -0.2608 -0.6894
 5155TIP3   OH236879   0.825   6.525  14.442  0.3097 -0.3496 -0.3701
 5155TIP3    H136880   0.823   6.441  14.395  0.8966  0.0921 -1.2194
 5155TIP3    H236881   0.816   6.591  14.373  3.3620  0.4091 -0.2051
 5156TIP3   OH236882   2.288   4.683  13.736  0.7782  0.5716  0.2646
 5156TIP3    H136883   2.367   4.644  13.700 -0.2854 -2.0934  0.5691
 5156TIP3    H236884   2.300   4.680  13.831 -0.0042 -0.6847  0.3463
 5157TIP3   OH236885   3.752   3.533  14.904 -0.3200 -1.0164  0.2909
 5157TIP3    H136886   3.821   3.599  14.894  0.7320 -2.3046 -1.4614
 5157TIP3    H236887   3.681   3.580  14.948  1.0239  0.8011  0.6526
 5158TIP3   OH236888   3.751   2.966   3.700 -0.2172  0.6278 -0.1470
 5158TIP3    H136889   3.729   3.003   3.615 -0.9805  2.5715  0.8172
 5158TIP3    H236890   3.845   2.951   3.696 -0.6849 -2.8045 -2.5222
 5159TIP3   OH236891   1.155   2.603   2.350  0.6888 -0.4914  0.3266
 5159TIP3    H136892   1.077   2.659   2.343  0.8565 -0.0966  1.3471
 5159TIP3    H236893   1.215   2.636   2.284  1.2321  1.3183  1.6420
 5160TIP3   OH236894   0.227   6.282  12.955 -0.4058  0.0689  0.3300
 5160TIP3    H136895   0.267   6.233  12.884  0.2134  1.3454 -0.2421
 5160TIP3    H236896   0.280   6.261  13.032  0.9947  1.2156 -0.2845
 5161TIP3   OH236897   4.668   4.353  12.436 -0.0007  0.2371  0.1315
 5161TIP3    H136898   4.723   4.416  12.483  1.3019 -1.1263  0.5139
 5161TIP3    H236899   4.728   4.311  12.375 -0.7389 -0.9493  0.2115
 5162TIP3   OH236900   3.726   4.033   5.480 -0.6117 -0.0695  0.3551
 5162TIP3    H136901   3.815   4.057   5.452 -1.5069  1.0463 -1.7879
 5162TIP3    H236902   3.733   3.942   5.508  1.5467  0.5376  2.0196
 5163TIP3   OH236903   4.339   1.302   1.623 -0.2631 -0.1795  0.3452
 5163TIP3    H136904   4.252   1.294   1.584 -0.3852 -0.2495  0.6358
 5163TIP3    H236905   4.396   1.252   1.563  0.1399  2.3554 -1.5760
 5164TIP3   OH236906   0.309   5.005   0.095  0.3050 -0.6028  0.5259
 5164TIP3    H136907   0.343   4.968   0.013  1.9809 -0.4680  1.1248
 5164TIP3    H236908   0.253   4.935   0.131 -2.0297  0.0146 -1.5788
 5165TIP3   OH236909   1.614   3.783   4.534  0.2010  0.3621  0.1988
 5165TIP3    H136910   1.651   3.864   4.498  1.6212 -0.0445  0.6752
 5165TIP3    H236911   1.562   3.746   4.462  1.0789  0.7458 -0.6544
 5166TIP3   OH236912   4.411   6.664   0.250  0.0760  0.2377  0.3670
 5166TIP3    H136913   4.411   6.657   0.155 -3.6121 -0.6868  0.2808
 5166TIP3    H236914   4.439   6.754   0.268  1.6276  0.1737 -1.5040
 5167TIP3   OH236915   6.740   3.051  16.944 -0.3350  0.0721  0.1682
 5167TIP3    H136916   6.790   3.015  17.017  0.8516  2.8732  0.8892
 5167TIP3    H236917   6.705   3.133  16.977  0.0690  1.3570 -2.3213
 5168TIP3   OH236918   2.902   5.776  14.471 -0.2080  0.0084 -0.4634
 5168TIP3    H136919   2.945   5.740  14.394  0.1138  0.2431 -0.3951
 5168TIP3    H236920   2.810   5.753  14.459 -0.1966  0.2146 -1.0220
 5169TIP3   OH236921   3.286   2.593   6.550  0.3720  1.0814 -0.1100
 5169TIP3    H136922   3.230   2.668   6.570  2.3961  2.7200 -0.2557
 5169TIP3    H236923   3.357   2.629   6.498  1.9450 -0.7605  0.6387
 5170TIP3   OH236924   4.248   0.421   1.317 -0.1402 -0.5912  0.2921
 5170TIP3    H136925   4.231   0.327   1.328  1.9610 -1.2031 -1.0167
 5170TIP3    H236926   4.256   0.432   1.222  0.9422  0.6499  0.5033
 5171TIP3   OH236927   2.927   4.544   0.052  0.4029  0.1661  0.4635
 5171TIP3    H136928   3.013   4.532   0.092  0.6734 -0.1328 -0.1893
 5171TIP3    H236929   2.944   4.592  -0.028  0.1719 -1.1967 -0.4486
 5172TIP3   OH236930   0.304   3.943   3.015  0.1267  0.1089  0.1551
 5172TIP3    H136931   0.254   4.024   3.012  0.6610  0.4179 -1.7329
 5172TIP3    H236932   0.241   3.877   3.044 -0.7523  0.9042  0.1076
 5173TIP3   OH236933   5.824   1.701   4.525  0.6060  0.1653  0.0365
 5173TIP3    H136934   5.854   1.774   4.579 -2.1108  1.8380 -0.5425
 5173TIP3    H236935   5.848   1.726   4.436  0.3566 -0.0389 -0.0886
 5174TIP3   OH236936   4.803   5.946   0.194  0.0327 -0.2560 -0.1688
 5174TIP3    H136937   4.830   6.025   0.147 -1.2878  0.1979 -0.1950
 5174TIP3    H236938   4.759   5.892   0.128 -1.1213  0.0263  0.3470
 5175TIP3   OH236939   4.259   4.481  16.091  0.2463 -0.2746  0.0979
 5175TIP3    H136940   4.192   4.414  16.076 -0.1466  0.2348 -0.4650
 5175TIP3    H236941   4.331   4.456  16.033 -0.4239  0.4992 -1.1245
 5176TIP3   OH236942   2.640   4.448   0.467 -0.0078  0.1209  0.1534
 5176TIP3    H136943   2.657   4.398   0.387 -1.2432  0.1859 -0.1713
 5176TIP3    H236944   2.664   4.389   0.538 -1.3138 -0.9265 -0.2229
 5177TIP3   OH236945   5.112   1.686   3.386 -0.1574  0.4068 -0.0648
 5177TIP3    H136946   5.081   1.710   3.298 -1.0805 -0.1906  0.0853
 5177TIP3    H236947   5.103   1.767   3.437 -0.9458  0.3897 -0.1707
 5178TIP3   OH236948   2.574   0.636  10.543  0.4407 -0.2012  0.2588
 5178TIP3    H136949   2.624   0.678  10.614  0.4199 -1.2695  0.9283
 5178TIP3    H236950   2.624   0.556  10.523  0.0010 -0.3213 -0.3651
 5179TIP3   OH236951   3.400   2.680   1.997  0.2622 -0.3788 -0.5504
 5179TIP3    H136952   3.469   2.672   2.062 -0.2547 -0.4787 -0.0051
 5179TIP3    H236953   3.399   2.595   1.952 -1.6144 -1.6182  1.6033
 5180TIP3   OH236954   5.515   3.116  13.117 -0.0631  0.6072 -0.1759
 5180TIP3    H136955   5.517   3.047  13.183  1.9159  0.6929 -0.0977
 5180TIP3    H236956   5.450   3.179  13.151 -0.4918 -0.2779  0.6971
 5181TIP3   OH236957   5.028   4.878   0.399  0.1661  0.1702 -0.0098
 5181TIP3    H136958   5.038   4.963   0.443 -1.1100  0.9373 -1.1330
 5181TIP3    H236959   5.021   4.900   0.306 -1.9700 -0.9985 -0.1813
 5182TIP3   OH236960   5.925   5.607   0.831  1.0829 -0.2724  0.2934
 5182TIP3    H136961   5.833   5.621   0.853  0.9493  0.0533 -0.4511
 5182TIP3    H236962   5.971   5.678   0.876  0.9008 -0.0675  0.1586
 5183TIP3   OH236963   3.860   4.619  13.981 -0.3882 -0.2566 -0.1674
 5183TIP3    H136964   3.791   4.659  14.034  0.9231  0.3788  1.1546
 5183TIP3    H236965   3.814   4.559  13.922 -2.1219  0.8464  0.0071
 5184TIP3   OH236966   2.264   5.863   3.838 -0.5930  0.8154  0.0104
 5184TIP3    H136967   2.221   5.796   3.891  1.1179  0.4725  1.0282
 5184TIP3    H236968   2.192   5.903   3.788 -1.7440 -1.2801 -0.1219
 5185TIP3   OH236969   0.293   1.541   1.404  0.1053  1.1670  0.2170
 5185TIP3    H136970   0.247   1.491   1.472  1.1763  0.2831  0.3194
 5185TIP3    H236971   0.327   1.618   1.450  1.4413  0.2160  0.8855
 5186TIP3   OH236972   0.470   4.851   0.902  0.0636 -0.1046  0.2351
 5186TIP3    H136973   0.450   4.863   0.995 -1.1385  1.9530 -0.2298
 5186TIP3    H236974   0.384   4.846   0.860  0.5990 -0.6202 -0.8402
 5187TIP3   OH236975   3.450   5.778   3.480 -0.4110  0.4031 -0.0816
 5187TIP3    H136976   3.512   5.743   3.544  0.4616  0.4687 -0.8705
 5187TIP3    H236977   3.366   5.781   3.527 -0.2185 -1.4039  0.4340
 5188TIP3   OH236978   0.599   3.767   5.216 -0.4817 -0.2481  0.5127
 5188TIP3    H136979   0.658   3.772   5.140 -0.8305  0.3909  0.2740
 5188TIP3    H236980   0.518   3.730   5.181  0.8246 -4.6340  1.5213
 5189TIP3   OH236981   4.795   2.076  14.441 -0.5178  0.2104  0.3133
 5189TIP3    H136982   4.829   1.987  14.433 -1.9536 -0.3720  0.4383
 5189TIP3    H236983   4.716   2.076  14.388 -0.1070  1.6578 -0.3300
 5190TIP3   OH236984   4.767   1.689   0.219 -0.1602  0.1698  0.0830
 5190TIP3    H136985   4.835   1.679   0.152  0.3113  1.3021  0.3735
 5190TIP3    H236986   4.811   1.671   0.302 -0.2058  0.8845  0.2705
 5191TIP3   OH236987   6.443   3.230  11.118 -0.5629  0.9377  0.1193
 5191TIP3    H136988   6.495   3.274  11.051 -0.4057  2.5985  1.2710
 5191TIP3    H236989   6.452   3.137  11.098 -0.0812  1.3549 -1.8215
 5192TIP3   OH236990   1.429   5.515  16.467  0.7467 -0.8694  0.1557
 5192TIP3    H136991   1.374   5.465  16.527  1.0931 -0.2908  0.9801
 5192TIP3    H236992   1.493   5.451  16.434  0.5138 -1.2082  0.3541
 5193TIP3   OH236993   3.936   2.949  16.449  0.0907 -0.8625 -0.1309
 5193TIP3    H136994   3.860   2.908  16.489 -0.2706 -0.0310  0.0616
 5193TIP3    H236995   3.934   3.040  16.480  1.2518 -0.8608  0.0157
 5194TIP3   OH236996   1.038   2.874   2.304 -0.3515 -0.1547 -0.0751
 5194TIP3    H136997   0.984   2.943   2.344 -0.7289 -1.5684  1.9616
 5194TIP3    H236998   1.128   2.900   2.323 -0.4255  0.4613 -0.5242
 5195TIP3   OH236999   3.956   6.677  16.017 -0.0885 -0.4687  0.0429
 5195TIP3    H137000   3.941   6.768  15.992  0.4184 -1.0876 -2.8159
 5195TIP3    H237001   4.022   6.645  15.956 -0.5915 -2.9019  0.6393
 5196TIP3   OH237002   2.295   5.460  13.045  0.0260  0.0329 -0.0593
 5196TIP3    H137003   2.351   5.420  12.978 -0.0206  2.8513 -1.9907
 5196TIP3    H237004   2.207   5.434  13.020  0.1240 -0.3718  0.0010
 5197TIP3   OH237005   5.389   4.992  12.700 -0.4248 -0.3296  0.1109
 5197TIP3    H137006   5.440   5.053  12.753 -0.6262 -0.0596 -0.0023
 5197TIP3    H237007   5.455   4.946  12.647 -0.2400 -0.4809  0.4704
 5198TIP3   OH237008   3.208   3.777  10.912 -0.2980  0.3886 -0.3571
 5198TIP3    H137009   3.134   3.735  10.956  0.0646 -0.1279 -0.2301
 5198TIP3    H237010   3.192   3.871  10.924 -0.8706  0.2833 -0.2357
 5199TIP3   OH237011   3.311   5.851   0.628 -0.1873  0.0773 -0.6649
 5199TIP3    H137012   3.322   5.946   0.622 -0.9669  0.4874  2.5203
 5199TIP3    H237013   3.317   5.832   0.721 -0.5117 -2.9916 -1.1571
 5200TIP3   OH237014   3.431   2.183   0.325 -0.0786  0.1223  0.1605
 5200TIP3    H137015   3.491   2.109   0.316 -1.0039 -0.6085 -0.0725
 5200TIP3    H237016   3.373   2.177   0.249  0.4721  1.6917 -0.4339
 5201TIP3   OH237017   3.276   0.180  12.638 -0.1095  0.0618  0.4375
 5201TIP3    H137018   3.262   0.274  12.632 -0.5866  0.2950  3.4691
 5201TIP3    H237019   3.223   0.143  12.567 -1.9624  1.9702  0.7217
 5202TIP3   OH237020   5.156   4.615   4.281  0.4043  0.6381 -0.2687
 5202TIP3    H137021   5.157   4.711   4.272 -0.9984  0.5114 -2.2364
 5202TIP3    H237022   5.120   4.583   4.199  1.7117 -1.6692 -0.0292
 5203TIP3   OH237023   6.245   4.555  14.069 -0.1550  0.7317 -0.9467
 5203TIP3    H137024   6.233   4.489  14.137  0.1718  0.9606 -0.6648
 5203TIP3    H237025   6.254   4.504  13.988  1.3259  0.3582 -0.5715
 5204TIP3   OH237026   0.343   4.381  14.482 -0.0016 -0.2736 -0.0790
 5204TIP3    H137027   0.374   4.298  14.519  0.5566  0.4403  1.1090
 5204TIP3    H237028   0.255   4.391  14.516 -0.5012 -0.9082 -1.1383
 5205TIP3   OH237029   1.045   5.648   4.871 -0.2219  0.4609 -0.0732
 5205TIP3    H137030   1.019   5.676   4.783 -0.9078  0.8291  0.2394
 5205TIP3    H237031   1.134   5.683   4.882  0.2535 -0.4110 -0.9748
 5206TIP3   OH237032   4.369   4.152   0.551 -0.5189 -0.8446 -0.0315
 5206TIP3    H137033   4.447   4.103   0.524 -0.5716 -1.2600  0.5463
 5206TIP3    H237034   4.399   4.209   0.622  0.0245  1.5714 -2.0760
 5207TIP3   OH237035   4.174   0.873  16.487  0.1222 -0.0803  0.5382
 5207TIP3    H137036   4.239   0.941  16.502 -1.3047  1.0007  2.1325
 5207TIP3    H237037   4.180   0.817  16.564 -1.6493  0.7611  1.3355
 5208TIP3   OH237038   5.310   3.462   6.063  0.0789  0.4416  0.1957
 5208TIP3    H137039   5.273   3.540   6.104 -0.3805  0.8279 -0.9154
 5208TIP3    H237040   5.271   3.389   6.112 -0.7519  0.8817  0.2129
 5209TIP3   OH237041   4.437   1.168  15.417  0.6296  0.3190  0.0948
 5209TIP3    H137042   4.391   1.089  15.388  0.1081  0.7613 -0.3132
 5209TIP3    H237043   4.486   1.140  15.494  0.3696 -0.3798  0.0158
 5210TIP3   OH237044   0.602   4.907   5.487 -0.0747  0.2616  0.0746
 5210TIP3    H137045   0.690   4.920   5.451 -0.7247  1.7863 -1.0736
 5210TIP3    H237046   0.567   4.996   5.495 -0.9874 -0.2258  1.9355
 5211TIP3   OH237047   2.046   1.686   5.085 -0.4192  0.1149 -0.5920
 5211TIP3    H137048   2.082   1.599   5.067 -0.6299 -0.1316  0.1487
 5211TIP3    H237049   2.077   1.740   5.012  3.0207  0.3805  0.8823
 5212TIP3   OH237050   0.202   4.908  14.232 -0.3919  0.4464 -0.3874
 5212TIP3    H137051   0.294   4.918  14.255 -0.5766 -0.3362  0.7712
 5212TIP3    H237052   0.196   4.820  14.197 -0.8924  0.0790  0.5951
 5213TIP3   OH237053   4.998   0.005   1.728  0.5217 -0.6198  0.4109
 5213TIP3    H137054   4.946  -0.036   1.797  1.4572 -1.2066  0.7810
 5213TIP3    H237055   5.088  -0.020   1.748  0.9161  0.1034 -0.4111
 5214TIP3   OH237056   4.062   0.446   3.723 -0.1892  0.1188 -0.2742
 5214TIP3    H137057   4.045   0.430   3.816  0.1633  1.5701  0.0664
 5214TIP3    H237058   3.976   0.437   3.681 -0.3232 -0.7001  0.1542
 5215TIP3   OH237059   0.742   6.709  16.056  0.2735  0.4025  0.4846
 5215TIP3    H137060   0.675   6.647  16.028 -0.9184  2.2252 -0.9065
 5215TIP3    H237061   0.755   6.690  16.149  0.6777 -2.5075 -0.0418
 5216TIP3   OH237062   2.320   5.955  11.114 -0.0463  0.0397  0.2511
 5216TIP3    H137063   2.269   6.034  11.098  0.6702  0.0886 -2.1529
 5216TIP3    H237064   2.289   5.893  11.047  0.8024 -1.0251  0.8217
 5217TIP3   OH237065   3.450   0.212   1.795  0.0585 -0.0353 -0.1256
 5217TIP3    H137066   3.445   0.156   1.718  0.7965 -1.7645  1.0230
 5217TIP3    H237067   3.414   0.296   1.766 -0.9273 -1.0306 -1.9532
 5218TIP3   OH237068   5.439   5.122  16.374  0.1698  0.1101 -0.4467
 5218TIP3    H137069   5.517   5.095  16.325 -0.9866 -1.4654 -1.5599
 5218TIP3    H237070   5.366   5.095  16.318 -1.2149 -0.7566  1.6379
 5219TIP3   OH237071   0.524   1.078   6.743 -0.2868 -0.1119 -0.3269
 5219TIP3    H137072   0.569   1.156   6.773 -0.1438  0.4352 -1.8820
 5219TIP3    H237073   0.432   1.093   6.764 -0.1203  0.0075  0.3166
 5220TIP3   OH237074   2.007   4.809   1.157 -0.4641  0.1084 -0.1567
 5220TIP3    H137075   2.078   4.793   1.095  0.0950  1.0502  0.2234
 5220TIP3    H237076   2.041   4.775   1.241 -0.1763  1.1570  0.1679
 5221TIP3   OH237077   3.644   5.400   2.409  0.1464  0.9091  0.0605
 5221TIP3    H137078   3.693   5.479   2.386  0.9408  0.0982 -1.0991
 5221TIP3    H237079   3.597   5.376   2.329  0.8115 -0.4235  0.0357
 5222TIP3   OH237080   4.099   5.407  12.559  0.3998 -0.0584 -0.3256
 5222TIP3    H137081   4.188   5.442  12.556  0.0879  0.7831 -0.1128
 5222TIP3    H237082   4.050   5.460  12.496  0.6068 -2.2275 -2.4508
 5223TIP3   OH237083   0.706   0.705   4.548 -0.5112 -0.1652  0.2491
 5223TIP3    H137084   0.772   0.774   4.556 -1.4275  0.6284  1.3605
 5223TIP3    H237085   0.680   0.687   4.638 -2.3374  0.0641 -0.2014
 5224TIP3   OH237086   3.711   2.745   6.152 -0.1356 -0.5017  0.6051
 5224TIP3    H137087   3.752   2.703   6.228  0.1291 -1.5598 -0.1034
 5224TIP3    H237088   3.774   2.733   6.081 -0.3487  0.5407  0.2160
 5225TIP3   OH237089   6.442   1.706  15.180  0.6962 -0.3062  0.6177
 5225TIP3    H137090   6.445   1.649  15.256 -0.3910  0.5287  1.3209
 5225TIP3    H237091   6.411   1.650  15.109  2.0016 -1.1637  0.7011
 5226TIP3   OH237092   3.315   2.468   0.200 -0.3959  0.3775 -0.2092
 5226TIP3    H137093   3.262   2.500   0.127  0.0424  0.6664 -0.4056
 5226TIP3    H237094   3.252   2.453   0.271 -0.9035 -0.4613 -0.8225
 5227TIP3   OH237095   4.715   2.472   1.105 -0.1644  0.3256  0.4147
 5227TIP3    H137096   4.657   2.480   1.029 -1.1331  0.7579  1.1767
 5227TIP3    H237097   4.769   2.551   1.102 -0.3904  0.4782  0.3259
 5228TIP3   OH237098   6.726   5.709   1.010 -0.0126 -0.3336  0.1199
 5228TIP3    H137099   6.684   5.624   0.996  1.2142 -1.3826  2.2466
 5228TIP3    H237100   6.675   5.750   1.080 -0.7610  0.8415 -1.0815
 5229TIP3   OH237101   0.216   4.399  13.875 -0.1441 -0.4242 -0.1368
 5229TIP3    H137102   0.310   4.396  13.896 -0.0149 -0.4840 -0.7050
 5229TIP3    H237103   0.206   4.335  13.805 -0.4055  0.4073 -0.8645
 5230TIP3   OH237104   5.442   1.619  13.654 -0.5157  0.1050  0.4477
 5230TIP3    H137105   5.478   1.544  13.701  0.0045  0.8548  1.2649
 5230TIP3    H237106   5.429   1.686  13.721  0.0606  1.1275 -0.4203
 5231TIP3   OH237107   3.973   2.449  11.566  0.2525 -0.6384  0.0327
 5231TIP3    H137108   3.935   2.460  11.478  0.5270  0.5853  0.0454
 5231TIP3    H237109   3.954   2.531  11.610  1.5378 -0.6051  0.5669
 5232TIP3   OH237110   5.187   3.190   0.484  0.2961  0.3839 -0.9198
 5232TIP3    H137111   5.271   3.235   0.481 -0.9931  3.0619 -0.0908
 5232TIP3    H237112   5.190   3.137   0.563  1.2491  0.3595 -0.9677
 5233TIP3   OH237113   1.634   1.184  12.858 -0.4608  0.1831 -0.0524
 5233TIP3    H137114   1.610   1.207  12.948 -2.2094  1.8558 -0.8614
 5233TIP3    H237115   1.560   1.215  12.805  0.2267 -1.3441 -2.0141
 5234TIP3   OH237116   4.384   2.516   4.176  0.5825 -0.2234 -0.3006
 5234TIP3    H137117   4.325   2.456   4.131 -0.0072  1.5206 -1.9705
 5234TIP3    H237118   4.391   2.480   4.265 -3.0893 -0.4812  0.0545
 5235TIP3   OH237119   6.146   3.426  15.934  0.2422  0.4240 -0.2835
 5235TIP3    H137120   6.164   3.431  16.028  0.7254 -1.9859 -0.1741
 5235TIP3    H237121   6.117   3.514  15.910  1.3234  1.4373  1.8556
 5236TIP3   OH237122   5.297   3.707   3.386 -0.2216  0.1937  0.2102
 5236TIP3    H137123   5.284   3.802   3.380 -0.8132  0.1671  0.8935
 5236TIP3    H237124   5.376   3.690   3.335 -0.6884  0.9168 -0.7798
 5237TIP3   OH237125   2.393   3.129   0.638 -0.0019 -0.0965  0.6949
 5237TIP3    H137126   2.328   3.176   0.585 -0.5682 -0.4848  1.0371
 5237TIP3    H237127   2.456   3.197   0.664  1.5950 -0.2627 -2.3407
 5238TIP3   OH237128   0.997   3.436  17.259  0.7472 -0.3478 -0.6695
 5238TIP3    H137129   1.024   3.421  17.350  1.0693  1.4906 -0.4218
 5238TIP3    H237130   1.025   3.526  17.240 -1.6130  0.2420 -1.7260
 5239TIP3   OH237131   5.276   6.490  12.648 -0.0065 -0.5146 -0.4918
 5239TIP3    H137132   5.200   6.527  12.603  0.6348 -0.3398 -1.4612
 5239TIP3    H237133   5.291   6.406  12.603  0.0560 -0.7920  0.0450
 5240TIP3   OH237134   3.992   5.041   3.589  0.1204 -0.4418 -0.2238
 5240TIP3    H137135   3.959   5.118   3.542  2.7944  0.2904 -1.0921
 5240TIP3    H237136   3.989   4.971   3.524 -0.7498 -0.6512  0.0423
 5241TIP3   OH237137   4.218   5.914   5.010 -0.5343  0.1204  0.3876
 5241TIP3    H137138   4.175   5.967   5.077 -0.3456 -0.2316  0.7941
 5241TIP3    H237139   4.269   5.850   5.060 -0.8182 -0.4872 -0.0967
 5242TIP3   OH237140   2.668   5.069  13.150  0.1027  0.4119 -0.5846
 5242TIP3    H137141   2.574   5.071  13.163 -0.4053  3.2782 -3.4934
 5242TIP3    H237142   2.685   4.984  13.110 -1.1518 -0.2234  0.1666
 5243TIP3   OH237143   1.316   2.461   6.249 -0.6650  0.3131 -0.1741
 5243TIP3    H137144   1.304   2.426   6.161  4.0608  0.7642 -1.2228
 5243TIP3    H237145   1.301   2.386   6.307 -1.3733 -0.6172 -1.5062
 5244TIP3   OH237146   3.360   0.403  11.286  0.0695  0.1159 -0.3357
 5244TIP3    H137147   3.369   0.489  11.245 -0.5222  0.5273  0.3867
 5244TIP3    H237148   3.299   0.356  11.230 -0.8159  0.7107  0.1211
 5245TIP3   OH237149   6.479   6.388  13.088  0.3126  0.4633  0.0015
 5245TIP3    H137150   6.566   6.355  13.065 -0.2047 -1.4675  0.5641
 5245TIP3    H237151   6.477   6.385  13.183 -0.5469 -0.0487 -0.0222
 5246TIP3   OH237152   5.524   1.129   0.572 -0.0837  0.4909  0.5531
 5246TIP3    H137153   5.559   1.046   0.602  3.0481  1.7793  0.7741
 5246TIP3    H237154   5.454   1.150   0.634  0.2181 -1.1373  1.4805
 5247TIP3   OH237155   1.613   2.434  15.605 -0.3611 -0.1103 -0.7162
 5247TIP3    H137156   1.647   2.425  15.694 -1.2216  0.9199 -0.2631
 5247TIP3    H237157   1.671   2.379  15.552 -0.2215 -1.2504  0.5572
 5248TIP3   OH237158   6.756   3.043  11.039  0.2401 -0.0922 -0.0596
 5248TIP3    H137159   6.804   2.986  10.979  0.9961 -0.7899  1.1634
 5248TIP3    H237160   6.664   3.032  11.014  0.3919 -1.6730 -0.0178
 5249TIP3   OH237161   3.006   4.781   3.902 -0.1195 -0.5401 -0.0311
 5249TIP3    H137162   3.008   4.685   3.902 -0.2554 -0.6458 -2.7800
 5249TIP3    H237163   3.098   4.807   3.894 -0.2013 -0.5978 -1.6208
 5250TIP3   OH237164   0.179   1.235   0.738  0.1187 -0.1167 -0.2024
 5250TIP3    H137165   0.275   1.233   0.742  0.1766  0.5949 -0.9434
 5250TIP3    H237166   0.153   1.144   0.755  0.8219  0.0194  1.8197
 5251TIP3   OH237167   1.274   2.125   0.495 -0.3225  0.4680 -0.1728
 5251TIP3    H137168   1.288   2.218   0.512  1.1174  0.3170 -0.3393
 5251TIP3    H237169   1.356   2.096   0.454 -0.3442 -1.1042  0.8168
 5252TIP3   OH237170   3.940   4.364   1.602  0.4411 -0.2190  0.4654
 5252TIP3    H137171   3.898   4.421   1.667 -0.0517  0.5210 -0.4751
 5252TIP3    H237172   3.901   4.390   1.518  2.1611 -0.0960 -0.3464
 5253TIP3   OH237173   3.581   0.816   3.329  0.3749  0.4370 -0.2343
 5253TIP3    H137174   3.646   0.793   3.264 -0.6160 -1.5863 -0.5848
 5253TIP3    H237175   3.553   0.904   3.305  1.6758  0.6325 -1.1269
 5254TIP3   OH237176   0.499   6.636  12.485 -0.7383  0.2146 -0.5611
 5254TIP3    H137177   0.466   6.556  12.445 -1.2652 -0.0104  0.2969
 5254TIP3    H237178   0.586   6.612  12.517 -0.2549  0.4345 -1.6514
 5255TIP3   OH237179   2.931   0.309  14.495  0.6055 -0.0940 -0.0137
 5255TIP3    H137180   3.016   0.300  14.539  2.0162  1.5767 -2.1884
 5255TIP3    H237181   2.908   0.401  14.507 -0.4712 -0.3276 -0.2187
 5256TIP3   OH237182   1.874   1.459  16.466 -0.0314  0.0959 -0.2191
 5256TIP3    H137183   1.922   1.443  16.385 -1.0657  2.0112 -1.2776
 5256TIP3    H237184   1.921   1.531  16.508 -1.0863  1.0160 -0.5532
 5257TIP3   OH237185   2.753   0.600  12.664 -0.6328 -0.0543  0.2699
 5257TIP3    H137186   2.828   0.658  12.655 -1.0320  0.4527  0.1331
 5257TIP3    H237187   2.700   0.640  12.733 -1.5222  0.4411 -0.6568
 5258TIP3   OH237188   5.795   2.124  12.226  0.5478  0.5965 -0.3913
 5258TIP3    H137189   5.821   2.189  12.291  1.1815 -0.2024  0.1862
 5258TIP3    H237190   5.876   2.077  12.206 -0.1050 -0.8124  0.1392
 5259TIP3   OH237191   5.754   1.676   2.150 -0.0660 -0.2407 -0.3670
 5259TIP3    H137192   5.674   1.728   2.158 -0.4585 -0.9082  0.1925
 5259TIP3    H237193   5.821   1.740   2.126 -0.7476  0.3429 -0.7729
 5260TIP3   OH237194   6.401   0.394   5.012  0.0037 -0.3017  0.1168
 5260TIP3    H137195   6.311   0.401   5.043 -0.7365 -1.7134 -1.5819
 5260TIP3    H237196   6.428   0.306   5.037  1.3884  0.5004  1.6748
 5261TIP3   OH237197   6.019   3.378   2.673 -0.0127 -0.2041 -0.2352
 5261TIP3    H137198   6.068   3.413   2.748  0.6865  0.9246 -1.1726
 5261TIP3    H237199   5.969   3.452   2.640  0.0270 -0.5699 -1.1461
 5262TIP3   OH237200   3.284   4.762   5.164  1.2071  0.2769  0.2644
 5262TIP3    H137201   3.196   4.784   5.194  1.2132  0.1587  0.3729
 5262TIP3    H237202   3.316   4.699   5.229  1.9157  1.3866  1.0246
 5263TIP3   OH237203   5.028   0.023   1.050 -0.2815 -0.1010 -0.2722
 5263TIP3    H137204   5.106  -0.033   1.050 -1.5858 -2.2570  3.2234
 5263TIP3    H237205   5.019   0.051   1.141 -3.3757  0.3917 -0.6324
 5264TIP3   OH237206   0.846   1.857   3.339 -0.3715 -0.5949  0.0684
 5264TIP3    H137207   0.800   1.941   3.341  0.1801 -0.2662 -0.6815
 5264TIP3    H237208   0.781   1.794   3.307 -0.3300 -0.1380 -0.9607
 5265TIP3   OH237209   2.051   6.449  12.527  0.0754  0.0101 -0.0645
 5265TIP3    H137210   1.975   6.401  12.496 -0.5714 -0.2890  1.8161
 5265TIP3    H237211   2.100   6.386  12.579  1.2798  0.3777 -0.7235
 5266TIP3   OH237212   6.693   0.104  14.310  0.2673  0.0415  0.7190
 5266TIP3    H137213   6.673   0.197  14.317  0.3824  0.5196 -3.1815
 5266TIP3    H237214   6.777   0.100  14.264 -1.0555 -1.9268 -1.7559
 5267TIP3   OH237215   2.384   0.949  16.061 -0.2464  0.3367  0.0260
 5267TIP3    H137216   2.474   0.981  16.050 -0.1120  0.1546  0.5618
 5267TIP3    H237217   2.354   0.990  16.142 -0.7105  0.5349 -0.2463
 5268TIP3   OH237218   3.447   4.503  12.231  0.0978  0.2139  0.2781
 5268TIP3    H137219   3.427   4.467  12.145 -0.7397  0.2765  0.4366
 5268TIP3    H237220   3.522   4.452  12.262  0.8998  0.6995 -0.8044
 5269TIP3   OH237221   2.380   1.901  15.443 -0.4528 -0.4757  0.9573
 5269TIP3    H137222   2.313   1.836  15.424 -0.9763  0.7408 -1.8509
 5269TIP3    H237223   2.463   1.855  15.428 -0.8072 -0.6544 -0.6517
 5270TIP3   OH237224   0.993   4.074  12.867  0.1008 -0.0244 -0.2183
 5270TIP3    H137225   0.904   4.110  12.867 -0.2652 -0.8577  0.8368
 5270TIP3    H237226   0.995   4.016  12.943  1.6949  0.3177  0.0472
 5271TIP3   OH237227   3.894   1.494   6.653 -0.6382  0.3415  0.1914
 5271TIP3    H137228   3.810   1.452   6.672  0.2208 -1.0536  1.1225
 5271TIP3    H237229   3.960   1.432   6.686  0.8079  0.7147 -1.7836
 5272TIP3   OH237230   5.659   4.051   1.026 -0.3249  0.1771 -0.2348
 5272TIP3    H137231   5.729   4.010   0.975  2.1974  1.9348  1.5385
 5272TIP3    H237232   5.651   3.995   1.104 -0.1534  0.5362  0.0416
 5273TIP3   OH237233   4.465   0.694  10.898  0.3920 -0.1296 -0.4489
 5273TIP3    H137234   4.455   0.789  10.897 -3.4964 -0.3387 -3.0759
 5273TIP3    H237235   4.467   0.671  10.991  0.1869  2.4316  0.2449
 5274TIP3   OH237236   2.397   1.182  13.746  0.5940  0.2580  0.1937
 5274TIP3    H137237   2.434   1.222  13.825 -0.3467  1.4054  0.0856
 5274TIP3    H237238   2.310   1.153  13.773  0.1534  0.9122 -0.4700
 5275TIP3   OH237239   3.067   1.668   3.636 -0.4516 -0.0639  0.7216
 5275TIP3    H137240   3.063   1.740   3.698 -0.1764 -0.7045  1.5104
 5275TIP3    H237241   3.148   1.621   3.659  0.4153  0.4804 -1.0261
 5276TIP3   OH237242   0.442   2.334  14.958 -0.4248 -0.0891  0.1180
 5276TIP3    H137243   0.518   2.276  14.949  0.9039  1.7368 -1.3358
 5276TIP3    H237244   0.391   2.297  15.030  0.9246 -2.3717 -0.0122
 5277TIP3   OH237245   0.360   1.685  11.348  0.5110  0.4937 -0.1466
 5277TIP3    H137246   0.416   1.614  11.314 -1.3514  0.5214 -3.8086
 5277TIP3    H237247   0.390   1.763  11.300 -1.5888  0.7871 -1.1092
 5278TIP3   OH237248   2.165   3.655  11.915  0.3240  0.0827 -0.3454
 5278TIP3    H137249   2.162   3.727  11.852 -2.2330  0.8349  0.4864
 5278TIP3    H237250   2.247   3.668  11.962  0.4583  1.7985 -0.9652
 5279TIP3   OH237251   3.700   2.995   5.135  0.2732  0.2570  0.3082
 5279TIP3    H137252   3.758   2.924   5.105 -0.6630  0.2715 -1.6949
 5279TIP3    H237253   3.748   3.075   5.114  1.5622  0.3282  3.0420
 5280TIP3   OH237254   6.163   2.647   5.415 -0.0812  0.1229 -0.3395
 5280TIP3    H137255   6.161   2.741   5.397  0.6815  0.8024  2.6904
 5280TIP3    H237256   6.255   2.626   5.428 -0.0782 -1.4180 -2.2870
 5281TIP3   OH237257   2.564   0.998  10.695  0.0928  0.6486  0.2131
 5281TIP3    H137258   2.534   0.964  10.611 -0.2402  0.4452  0.4121
 5281TIP3    H237259   2.484   1.006  10.747 -0.4753  4.9308 -0.9201
 5282TIP3   OH237260   2.899   4.217   6.211  0.0259  0.0391  0.1801
 5282TIP3    H137261   2.857   4.291   6.255  0.5974 -0.3357  1.3838
 5282TIP3    H237262   2.991   4.225   6.234  0.5941  0.5362 -1.9842
 5283TIP3   OH237263   6.779   0.056  17.101 -0.4045 -0.0011  0.2200
 5283TIP3    H137264   6.781   0.122  17.032 -3.2199  0.6974  0.6646
 5283TIP3    H237265   6.843   0.085  17.165 -0.2200  1.2234 -0.4855
 5284TIP3   OH237266   5.516   6.175   5.283  0.0074 -0.1360 -0.5571
 5284TIP3    H137267   5.563   6.091   5.276  0.4831  0.1735 -1.1882
 5284TIP3    H237268   5.438   6.163   5.229  0.9709  0.4156 -2.1238
 5285TIP3   OH237269   0.458   6.096   6.081 -0.6128 -0.3596  0.0511
 5285TIP3    H137270   0.515   6.125   6.009  1.4968  0.2061  1.8399
 5285TIP3    H237271   0.443   6.176   6.132 -1.3845 -0.9199  0.7164
 5286TIP3   OH237272   4.384   5.649   6.103  0.2233 -0.5210  0.2045
 5286TIP3    H137273   4.433   5.727   6.129  1.2053 -1.1805  0.3501
 5286TIP3    H237274   4.320   5.637   6.173 -0.0207  0.2200  0.1221
 5287TIP3   OH237275   5.562   2.401  13.354 -0.1167 -0.0789  0.9139
 5287TIP3    H137276   5.656   2.406  13.368 -0.3460  0.2466  2.6798
 5287TIP3    H237277   5.525   2.461  13.419 -1.5210  0.3418 -0.2152
 5288TIP3   OH237278   1.757   1.425   5.929 -0.2070 -0.4678 -0.2216
 5288TIP3    H137279   1.665   1.446   5.916 -0.3134 -0.3481  0.6844
 5288TIP3    H237280   1.775   1.449   6.020  1.1840  1.2290 -0.8939
 5289TIP3   OH237281   3.509   2.200   1.807 -0.2779  0.2074  1.0271
 5289TIP3    H137282   3.524   2.174   1.716 -2.3899  0.4848  0.5599
 5289TIP3    H237283   3.545   2.127   1.859  0.9889  0.0632  0.0071
 5290TIP3   OH237284   5.224   0.230   1.757  0.9916 -0.3485  0.3628
 5290TIP3    H137285   5.244   0.137   1.746 -0.7239 -0.8233  0.9416
 5290TIP3    H237286   5.137   0.231   1.797  0.4104  1.5381 -0.8415
 5291TIP3   OH237287   6.494   5.236   1.933  0.0900  0.1913  0.5759
 5291TIP3    H137288   6.405   5.268   1.916 -0.0777 -0.9461 -0.8347
 5291TIP3    H237289   6.537   5.310   1.976 -1.7654  0.4789  2.0681
 5292TIP3   OH237290   2.423   3.113   6.286 -0.4426 -0.0139  0.0778
 5292TIP3    H137291   2.381   3.186   6.239 -0.7084  0.4144  0.9633
 5292TIP3    H237292   2.351   3.055   6.309 -0.3564 -0.0426  0.2705
 5293TIP3   OH237293   6.073   1.484   2.101  0.0242 -0.6041  0.1882
 5293TIP3    H137294   6.026   1.421   2.047 -1.2654  0.3810  0.1111
 5293TIP3    H237295   6.164   1.454   2.099 -0.5262 -2.3756  0.0748
 5294TIP3   OH237296   6.274   4.318   1.478  0.0797 -0.2517  0.2771
 5294TIP3    H137297   6.257   4.273   1.561  0.4532  0.5269  0.7965
 5294TIP3    H237298   6.188   4.338   1.442 -0.1260  0.9052  1.3330
 5295TIP3   OH237299   4.050   1.141  11.770  0.1147 -0.2835 -0.3694
 5295TIP3    H137300   4.112   1.161  11.841 -2.1396  2.2461  1.0760
 5295TIP3    H237301   4.025   1.050  11.786  1.0885 -0.3645  0.9031
 5296TIP3   OH237302   3.761   0.840   4.370  0.1368 -0.3646  0.3336
 5296TIP3    H137303   3.826   0.845   4.300 -1.5151  1.8422 -1.1667
 5296TIP3    H237304   3.810   0.858   4.450  1.6288 -0.4292 -0.5273
 5297TIP3   OH237305   0.421   5.710  16.196 -0.1335 -0.4813 -0.8555
 5297TIP3    H137306   0.407   5.804  16.212 -1.4051 -0.7703 -0.1330
 5297TIP3    H237307   0.450   5.706  16.105  0.9351  0.6821 -0.6013
 5298TIP3   OH237308   1.950   1.500   5.747  0.2305 -0.6574  0.6438
 5298TIP3    H137309   2.028   1.512   5.800  0.2366 -0.6207  0.6265
 5298TIP3    H237310   1.888   1.455   5.805  0.3023 -0.7835  0.6231
 5299TIP3   OH237311   6.088   2.924   4.878  0.0769  0.1493  0.6838
 5299TIP3    H137312   6.124   2.915   4.789  0.5757 -0.3655  0.9302
 5299TIP3    H237313   6.165   2.927   4.935 -0.2000  1.5664  1.0281
 5300TIP3   OH237314   6.299   3.512   6.153  0.2370 -0.4879 -0.4051
 5300TIP3    H137315   6.242   3.454   6.205  0.0240  0.3624  0.3304
 5300TIP3    H237316   6.376   3.458   6.134  0.1900 -0.9207  0.5599
 5301TIP3   OH237317   0.384   5.409   3.991  0.3265 -0.0573 -0.5144
 5301TIP3    H137318   0.347   5.371   3.911  1.0648 -1.7509 -0.0767
 5301TIP3    H237319   0.378   5.340   4.056 -0.5569  1.3980  1.0376
 5302TIP3   OH237320   0.423   4.402  16.673 -0.1068  0.2151  0.3722
 5302TIP3    H137321   0.404   4.331  16.734 -1.2607 -0.8532 -1.1776
 5302TIP3    H237322   0.389   4.372  16.589 -1.7652  3.0550 -0.1254
 5303TIP3   OH237323   6.339   1.883  16.207 -0.3576 -0.0584 -0.4250
 5303TIP3    H137324   6.357   1.798  16.246 -0.8490  0.3929  0.8619
 5303TIP3    H237325   6.244   1.892  16.213 -0.6421 -0.5100 -2.9842
 5304TIP3   OH237326   0.777   2.577   4.487 -0.3887 -0.5259  0.3478
 5304TIP3    H137327   0.806   2.620   4.406  0.2830 -0.8775  0.3907
 5304TIP3    H237328   0.820   2.491   4.484 -0.8700 -0.7816  0.7716
 5305TIP3   OH237329   6.201   4.181   4.641  0.9139  0.2265  0.5609
 5305TIP3    H137330   6.190   4.230   4.560 -0.5527  0.6956  1.0169
 5305TIP3    H237331   6.186   4.245   4.710  2.3646 -0.1103  1.2316
 5306TIP3   OH237332   2.808   3.065   4.994 -0.2355 -0.1861 -0.1816
 5306TIP3    H137333   2.853   3.014   5.061  2.3336  2.3559  0.1853
 5306TIP3    H237334   2.836   3.027   4.911  0.9032  0.0016  0.1045
 5307TIP3   OH237335   1.241   1.998   1.259 -0.0924  0.4237  0.0407
 5307TIP3    H137336   1.210   2.072   1.207  0.3691 -0.3097 -1.3298
 5307TIP3    H237337   1.259   1.929   1.195 -0.9672 -1.0586  1.3193
 5308TIP3   OH237338   2.757   2.975  13.696  0.0190 -0.1358 -0.4437
 5308TIP3    H137339   2.821   2.915  13.659 -0.3696 -0.9475  0.1703
 5308TIP3    H237340   2.682   2.970  13.636  0.7883  1.4410 -1.6310
 5309TIP3   OH237341   5.380   6.249  14.712  0.0167  0.2605  0.0177
 5309TIP3    H137342   5.435   6.317  14.750 -1.2722  0.0300  2.4766
 5309TIP3    H237343   5.299   6.295  14.689 -0.5349 -0.2646  0.8842
 5310TIP3   OH237344   5.220   4.350   3.000  0.7116  0.4032  0.4463
 5310TIP3    H137345   5.147   4.306   2.957  0.1738  1.4140  0.3110
 5310TIP3    H237346   5.293   4.340   2.939  0.2427  0.8700 -0.2038
 5311TIP3   OH237347   1.158   4.086  12.624  0.3774  0.9421 -0.1569
 5311TIP3    H137348   1.107   4.126  12.553 -0.7163  0.4617  0.3418
 5311TIP3    H237349   1.118   4.120  12.704  0.6994  0.3904  0.2425
 5312TIP3   OH237350   6.192   3.252  12.839  0.1787 -0.3165 -0.4252
 5312TIP3    H137351   6.183   3.265  12.745  0.9220  1.5782 -0.2741
 5312TIP3    H237352   6.109   3.280  12.876  0.7062  1.2473 -0.3575
 5313TIP3   OH237353   1.722   1.323  15.596  0.1413  0.1279 -0.0880
 5313TIP3    H137354   1.699   1.327  15.689 -0.7334  1.0053 -0.3189
 5313TIP3    H237355   1.817   1.337  15.595  0.2690 -0.5853  0.7076
 5314TIP3   OH237356   2.877   3.402  15.958 -0.3251  0.7905 -0.0946
 5314TIP3    H137357   2.855   3.401  16.052 -0.7168  1.3431 -0.1764
 5314TIP3    H237358   2.941   3.332  15.948 -1.8979 -0.7457  0.1948
 5315TIP3   OH237359   1.446   1.968   5.232 -0.0393  0.0041  0.3610
 5315TIP3    H137360   1.504   1.984   5.307  0.8887 -0.3514 -0.2674
 5315TIP3    H237361   1.473   1.883   5.198  0.0613  0.4815 -0.8186
 5316TIP3   OH237362   2.225   1.270   4.866  0.2625 -0.1274  0.6500
 5316TIP3    H137363   2.253   1.178   4.860  2.2903  0.4514  0.3199
 5316TIP3    H237364   2.299   1.319   4.831 -1.1244  1.6125 -0.0001
 5317TIP3   OH237365   3.180   3.617   4.550 -0.9056  0.0514 -0.7211
 5317TIP3    H137366   3.259   3.569   4.525 -0.5169  0.2232  0.1366
 5317TIP3    H237367   3.108   3.568   4.510 -0.5770 -1.6392  0.6579
 5318TIP3   OH237368   0.131   4.953  15.373 -0.0114 -0.1332 -0.3375
 5318TIP3    H137369   0.143   5.034  15.423  1.1756 -0.2059 -0.4779
 5318TIP3    H237370   0.102   4.889  15.439  1.9534 -0.3399  0.4028
 5319TIP3   OH237371   2.368   2.410  11.243  0.0604 -0.2108  0.3365
 5319TIP3    H137372   2.417   2.435  11.165 -0.9458 -0.0632 -0.2690
 5319TIP3    H237373   2.300   2.477  11.252 -0.2445 -0.5885  0.9591
 5320TIP3   OH237374   0.390   0.549   5.384  0.9708  0.7870  0.3409
 5320TIP3    H137375   0.408   0.628   5.435 -0.7558  1.0460  0.6052
 5320TIP3    H237376   0.300   0.560   5.354  1.0599 -0.6058 -0.5131
 5321TIP3   OH237377   1.877   4.794  12.480  0.7533 -0.3313  0.2534
 5321TIP3    H137378   1.884   4.872  12.425  1.2676 -0.3412  0.2992
 5321TIP3    H237379   1.784   4.786  12.499  0.4554 -0.7150 -1.1925
 5322TIP3   OH237380   5.839   4.257   4.736 -0.4925 -0.3620 -0.4445
 5322TIP3    H137381   5.750   4.286   4.716 -0.7761  0.0571  1.3045
 5322TIP3    H237382   5.892   4.336   4.728 -0.3290 -0.5271 -1.0726
 5323TIP3   OH237383   3.588   0.074   3.922 -0.5174 -0.1120  0.3323
 5323TIP3    H137384   3.551  -0.014   3.931  1.1076 -0.7838  0.9609
 5323TIP3    H237385   3.590   0.089   3.827 -0.9278 -0.7087  0.2223
 5324TIP3   OH237386   6.020   4.251  11.570 -0.1885  0.1341  0.3229
 5324TIP3    H137387   6.073   4.232  11.648  1.7076 -1.1451 -1.2003
 5324TIP3    H237388   5.975   4.169  11.551  2.6172 -0.9895 -2.2433
 5325TIP3   OH237389   3.307   0.917  13.797  0.2632 -0.1141  0.2147
 5325TIP3    H137390   3.324   1.008  13.820  0.3716 -0.0823  0.0119
 5325TIP3    H237391   3.219   0.917  13.760 -0.5964 -0.4267  2.1282
 5326TIP3   OH237392   5.053   1.891   6.021  0.5171 -0.6476 -0.1767
 5326TIP3    H137393   5.021   1.967   6.069 -0.9145 -0.5477 -1.2453
 5326TIP3    H237394   5.071   1.924   5.933  3.2900 -0.7841  0.2500
 5327TIP3   OH237395   5.695   1.143  15.305  0.0109 -0.1423  0.6246
 5327TIP3    H137396   5.695   1.178  15.394  1.8018  0.7342  0.3464
 5327TIP3    H237397   5.788   1.139  15.282 -0.4510  2.1431 -2.1270
 5328TIP3   OH237398   5.484   4.110  11.085 -0.0957 -0.4964  0.1193
 5328TIP3    H137399   5.530   4.094  11.167 -0.2419  0.4515  0.3934
 5328TIP3    H237400   5.394   4.130  11.111  0.0852  0.8092 -0.1798
 5329TIP3   OH237401   1.999   0.138  12.817 -0.6216  0.0373 -0.0461
 5329TIP3    H137402   2.094   0.142  12.830 -0.5220 -0.6170 -0.5120
 5329TIP3    H237403   1.988   0.088  12.736 -1.3678  0.1210 -0.0031
 5330TIP3   OH237404   5.915   1.734   0.746 -0.0026 -0.4544  0.0203
 5330TIP3    H137405   5.978   1.804   0.764  0.6032 -0.6688 -1.1720
 5330TIP3    H237406   5.876   1.757   0.662 -1.1337 -0.6188  0.4786
 5331TIP3   OH237407   5.147   6.151  14.126 -0.7913 -0.1161 -0.4032
 5331TIP3    H137408   5.195   6.208  14.186  0.7515 -0.5507 -1.1755
 5331TIP3    H237409   5.214   6.096  14.086 -2.1626 -2.1049 -0.1166
 5332TIP3   OH237410   6.773   6.384  14.286 -0.0366 -0.8648  0.5233
 5332TIP3    H137411   6.821   6.456  14.245 -0.0648 -0.6725  0.8186
 5332TIP3    H237412   6.750   6.418  14.373 -0.8212 -0.9074  0.3355
 5333TIP3   OH237413   6.053   0.713   2.199 -0.0455  0.0011  0.1935
 5333TIP3    H137414   6.016   0.742   2.282 -1.9159  0.2713 -0.6704
 5333TIP3    H237415   6.051   0.791   2.142 -1.8202 -0.8893 -1.0575
 5334TIP3   OH237416   5.974   4.969  12.590  0.0425  0.4995  0.0979
 5334TIP3    H137417   5.942   5.057  12.575 -0.7215  0.1809 -0.1908
 5334TIP3    H237418   6.022   4.946  12.510  0.9642  0.9543  0.5068
 5335TIP3   OH237419   2.747   2.422   2.291 -0.2789 -0.4978 -0.0446
 5335TIP3    H137420   2.839   2.421   2.267  0.3687  2.0114  1.8784
 5335TIP3    H237421   2.746   2.417   2.386 -2.0257  0.6411  0.0503
 5336TIP3   OH237422   4.670   6.133  12.725  0.0706  0.4612 -0.6038
 5336TIP3    H137423   4.651   6.080  12.802 -0.3011  1.1011 -0.2454
 5336TIP3    H237424   4.585   6.146  12.683 -0.0705  1.8474  0.0325
 5337TIP3   OH237425   1.034   5.410  14.505  0.3501  0.1291  0.0996
 5337TIP3    H137426   0.974   5.349  14.548  1.8672 -1.6549 -0.1773
 5337TIP3    H237427   1.087   5.447  14.576 -0.4879  1.0629  0.2541
 5338TIP3   OH237428   2.318   4.329  12.551 -0.1135  0.1937  0.5308
 5338TIP3    H137429   2.396   4.321  12.497  0.0212 -0.3036  0.7956
 5338TIP3    H237430   2.250   4.357  12.490 -0.1831 -1.2538 -0.1036
 5339TIP3   OH237431   5.605   3.087   3.390  0.2156  0.1396  0.6613
 5339TIP3    H137432   5.684   3.037   3.409 -0.4448 -1.2876 -0.1643
 5339TIP3    H237433   5.564   3.040   3.317 -0.9247  1.3705  0.4711
 5340TIP3   OH237434   1.305   1.240  15.802  0.1899  0.4663  0.3957
 5340TIP3    H137435   1.346   1.172  15.747  0.2936  1.6594 -1.0748
 5340TIP3    H237436   1.251   1.290  15.741  1.5874  2.8831  0.9831
 5341TIP3   OH237437   6.472   5.431   1.329  0.0310 -0.1308  0.6311
 5341TIP3    H137438   6.421   5.367   1.380  1.2408 -2.0112 -0.4065
 5341TIP3    H237439   6.407   5.495   1.300 -1.1892 -0.6793  1.9907
 5342TIP3   OH237440   4.083   6.188   5.544  0.1011  0.3716  0.1209
 5342TIP3    H137441   4.096   6.227   5.458 -0.4036  0.4500  0.0805
 5342TIP3    H237442   4.020   6.246   5.588  0.2138  0.2311  0.4747
 5343TIP3   OH237443   1.524   5.231   1.783 -0.3077 -0.2152  0.0838
 5343TIP3    H137444   1.539   5.258   1.873  1.8274 -1.8965  0.3181
 5343TIP3    H237445   1.492   5.309   1.739  0.3962  1.1429  1.8875
 5344TIP3   OH237446   2.786   6.523  14.937  0.1817 -0.6276 -0.2226
 5344TIP3    H137447   2.849   6.456  14.962  1.0192 -0.4039 -1.6101
 5344TIP3    H237448   2.840   6.596  14.906 -0.7385  0.1117 -0.1153
 5345TIP3   OH237449   0.041   3.314   1.346 -0.0618 -0.4193 -0.0726
 5345TIP3    H137450   0.113   3.338   1.288 -0.6693  0.6793 -0.3935
 5345TIP3    H237451   0.047   3.219   1.353  0.6388 -0.4702 -1.1247
 5346TIP3   OH237452   3.569   2.735   4.167 -0.4205  0.3269  0.1785
 5346TIP3    H137453   3.553   2.790   4.090  0.1901 -0.7770 -0.7651
 5346TIP3    H237454   3.497   2.756   4.227 -0.4045  1.8717 -0.2941
 5347TIP3   OH237455   4.619   4.571   2.201  0.4494  0.3980  0.6073
 5347TIP3    H137456   4.574   4.637   2.255  0.8077  0.5043  0.7824
 5347TIP3    H237457   4.555   4.546   2.135 -0.3532 -0.4708  1.6899
 5348TIP3   OH237458   5.768   1.194   5.091 -0.2393 -0.0216  0.0077
 5348TIP3    H137459   5.737   1.247   5.018  1.0081  0.7999  0.0463
 5348TIP3    H237460   5.819   1.124   5.050 -0.4824 -0.2158  0.0372
 5349TIP3   OH237461   3.191   3.934   0.669 -0.2114  0.0017 -0.2172
 5349TIP3    H137462   3.255   3.902   0.733 -0.4375  1.2927  0.6982
 5349TIP3    H237463   3.226   4.019   0.641 -1.0399  0.2766 -0.4315
 5350TIP3   OH237464   5.985   6.501  12.148 -0.7974 -0.0237 -0.1164
 5350TIP3    H137465   6.061   6.443  12.141 -0.5405  0.3984 -0.9161
 5350TIP3    H237466   6.005   6.574  12.089 -1.5432  0.4061  0.1534
 5351TIP3   OH237467   2.578   1.676  12.851 -0.3526  0.9012 -0.1469
 5351TIP3    H137468   2.483   1.683  12.861 -0.3751  3.0485 -1.1928
 5351TIP3    H237469   2.609   1.766  12.859  1.3523  0.5117 -1.8104
 5352TIP3   OH237470   0.377   1.119   0.294  0.5373  0.1201  0.2525
 5352TIP3    H137471   0.421   1.034   0.306 -0.5788 -0.5305 -0.0868
 5352TIP3    H237472   0.350   1.144   0.382  0.6849  0.0241  0.3262
 5353TIP3   OH237473   1.194   0.306  11.241 -0.1143 -0.0039 -0.4953
 5353TIP3    H137474   1.243   0.342  11.166  1.6859  1.4584  1.2808
 5353TIP3    H237475   1.147   0.381  11.277  1.4937  0.0840  1.6170
 5354TIP3   OH237476   2.740   2.707  12.010 -0.2420  0.0447 -0.1877
 5354TIP3    H137477   2.705   2.756  12.084 -2.3645 -1.4452 -0.1133
 5354TIP3    H237478   2.718   2.759  11.933 -1.6063 -0.2735 -0.0385
 5355TIP3   OH237479   0.077   1.476   4.836 -0.1462  0.2481 -0.7207
 5355TIP3    H137480   0.042   1.566   4.832 -0.2215  0.2181 -0.7346
 5355TIP3    H237481   0.002   1.423   4.863 -0.4068  0.0241 -1.8386
 5356TIP3   OH237482   0.192   3.867  13.097 -0.4555  0.1850 -0.0108
 5356TIP3    H137483   0.164   3.873  13.188  1.9960  2.5682  0.7292
 5356TIP3    H237484   0.271   3.814  13.099 -0.2939  0.3804 -0.7194
 5357TIP3   OH237485   3.473   2.093  12.382 -0.6017 -0.0073 -0.2804
 5357TIP3    H137486   3.546   2.136  12.426 -0.9484  1.3062 -0.9535
 5357TIP3    H237487   3.498   2.089  12.290 -2.2271  2.4483 -0.9220
 5358TIP3   OH237488   4.365   4.318  14.987 -0.5160  0.0989  0.3379
 5358TIP3    H137489   4.381   4.404  15.025  1.1259  0.0609 -0.2028
 5358TIP3    H237490   4.442   4.266  15.010 -1.0392 -0.9358 -0.1643
 5359TIP3   OH237491   1.672   3.141  12.908  0.3492 -0.5773  0.1526
 5359TIP3    H137492   1.751   3.102  12.946  0.3175 -0.0578  0.7640
 5359TIP3    H237493   1.705   3.201  12.841  0.5030 -0.0810  0.6614
 5360TIP3   OH237494   1.159   2.581  11.869  0.0876 -0.3209 -0.3948
 5360TIP3    H137495   1.155   2.660  11.816  0.6957 -0.0844 -0.0850
 5360TIP3    H237496   1.224   2.526  11.825  0.9943  0.0973  0.3978
 5361TIP3   OH237497   6.455   3.926   1.875 -0.1345 -0.3696 -0.0097
 5361TIP3    H137498   6.447   3.947   1.782  0.6613  0.6026  0.1240
 5361TIP3    H237499   6.482   3.835   1.876 -0.4429 -0.4802 -0.7245
 5362TIP3   OH237500   4.110   5.687  13.273 -0.1589  0.2178  0.0683
 5362TIP3    H137501   4.032   5.680  13.218 -0.3427  0.2339  0.3266
 5362TIP3    H237502   4.097   5.621  13.341 -0.1510  0.5228  0.3648
 5363TIP3   OH237503   2.289   5.903   1.573 -0.0719 -0.1292 -0.0408
 5363TIP3    H137504   2.294   5.836   1.641 -1.3821 -0.5343 -0.3134
 5363TIP3    H237505   2.338   5.978   1.609  0.2951 -0.7659  0.8172
 5364TIP3   OH237506   5.033   3.373  16.604  0.0087 -0.4354  0.1849
 5364TIP3    H137507   5.055   3.409  16.690 -0.7586  0.5920 -0.0347
 5364TIP3    H237508   4.945   3.336  16.616  0.0388 -0.5931 -0.0792
 5365TIP3   OH237509   0.527   0.826  17.044  0.3004 -0.2123 -0.1296
 5365TIP3    H137510   0.618   0.856  17.044  0.8533 -1.6728 -2.0335
 5365TIP3    H237511   0.494   0.849  16.957 -0.8223 -0.6711  0.1479
 5366TIP3   OH237512   6.504   4.288   5.985  0.2442 -0.1532 -0.0831
 5366TIP3    H137513   6.537   4.216   5.931 -0.7229  0.8773 -2.1740
 5366TIP3    H237514   6.568   4.358   5.974 -1.3069  1.0636 -2.3538
 5367TIP3   OH237515   1.776   0.329  14.858  0.1690  0.7464  0.6440
 5367TIP3    H137516   1.870   0.342  14.846  0.2686 -0.6467 -0.2758
 5367TIP3    H237517   1.768   0.291  14.945  0.7613 -1.6028 -0.2493
 5368TIP3   OH237518   4.206   4.247   0.226  0.4579  0.5062 -0.2224
 5368TIP3    H137519   4.257   4.182   0.177  0.2670  1.2279 -1.4122
 5368TIP3    H237520   4.239   4.331   0.194 -0.3210  0.9869  0.2276
 5369TIP3   OH237521   6.460   0.473  12.889 -0.0579  0.2677  0.0774
 5369TIP3    H137522   6.396   0.490  12.820 -1.7153  0.7308  1.6653
 5369TIP3    H237523   6.443   0.383  12.917  1.1977 -0.2335 -0.6619
 5370TIP3   OH237524   1.832   6.089   4.512 -0.1817  0.1289  0.2764
 5370TIP3    H137525   1.799   6.066   4.426  0.0651 -0.2517  0.2841
 5370TIP3    H237526   1.909   6.143   4.495 -0.6109  0.7584  0.2606
 5371TIP3   OH237527   1.441   0.750  17.259  0.3156 -0.2128  0.7644
 5371TIP3    H137528   1.480   0.713  17.339  0.8606 -2.4734 -0.4536
 5371TIP3    H237529   1.515   0.787  17.211  0.4200 -1.1688  0.1611
 5372TIP3   OH237530   4.992   4.202  15.890 -0.0635  0.3492 -0.4807
 5372TIP3    H137531   4.966   4.204  15.983  1.5417 -1.4303  0.0813
 5372TIP3    H237532   4.967   4.288  15.857  0.1857  1.4289  1.8703
 5373TIP3   OH237533   1.531   6.285   5.805  0.0121 -0.0375  0.2718
 5373TIP3    H137534   1.529   6.374   5.770  2.2940  0.1056  0.3956
 5373TIP3    H237535   1.540   6.297   5.900 -0.2189 -0.4172  0.3444
 5374TIP3   OH237536   1.116   1.322   1.681  0.3007  0.2739 -0.2145
 5374TIP3    H137537   1.045   1.287   1.628 -1.1278  0.3574  1.5902
 5374TIP3    H237538   1.099   1.416   1.684  0.7676  0.3591 -0.1476
 5375TIP3   OH237539   6.349   1.551  12.597  0.0065 -0.2596  0.2886
 5375TIP3    H137540   6.360   1.522  12.688  0.8597 -0.0729  0.2512
 5375TIP3    H237541   6.254   1.549  12.583 -0.2532  1.0511  1.6265
 5376TIP3   OH237542   3.638   4.809   4.165 -0.1435 -0.5949 -0.1353
 5376TIP3    H137543   3.722   4.809   4.210 -0.3025 -0.8349  0.1581
 5376TIP3    H237544   3.581   4.753   4.218 -0.4565 -0.5262 -0.3927
 5377TIP3   OH237545   3.244   0.482  13.528 -0.8534 -0.3379  0.2354
 5377TIP3    H137546   3.296   0.510  13.453 -1.2969 -2.4950 -0.9452
 5377TIP3    H237547   3.267   0.544  13.597  0.7947  0.7343 -1.1964
 5378TIP3   OH237548   0.557   1.557  13.454  0.1607  0.4651 -0.1274
 5378TIP3    H137549   0.549   1.638  13.504 -0.6810 -0.4367  1.2520
 5378TIP3    H237550   0.526   1.489  13.513  1.1683 -0.9262 -1.1306
 5379TIP3   OH237551   4.970   1.960  11.812 -0.1730  0.0080  0.4073
 5379TIP3    H137552   5.005   2.008  11.887 -0.9248  1.9071 -0.3740
 5379TIP3    H237553   5.003   2.008  11.736 -0.1499 -1.3383 -0.4646
 5380TIP3   OH237554   5.806   0.805  15.575 -0.0610 -0.4327  0.0622
 5380TIP3    H137555   5.879   0.867  15.579 -0.2279 -0.2466  0.2764
 5380TIP3    H237556   5.839   0.733  15.522  0.0634 -0.0616 -0.3746
 5381TIP3   OH237557   6.183   2.651   1.556 -0.1350 -0.1482  0.3301
 5381TIP3    H137558   6.103   2.598   1.551 -0.2137  0.0156 -0.2497
 5381TIP3    H237559   6.206   2.667   1.464  0.1130  0.4880  0.5022
 5382TIP3   OH237560   2.527   1.006   5.152  0.2364 -0.5008  0.5467
 5382TIP3    H137561   2.477   0.973   5.227  0.1487 -0.5788  0.4534
 5382TIP3    H237562   2.514   0.940   5.084 -1.6084  0.7021 -0.3385
 5383TIP3   OH237563   1.164   2.941   6.024 -0.1251 -0.1721  0.1490
 5383TIP3    H137564   1.242   2.901   5.985  0.8783  0.9181  0.9488
 5383TIP3    H237565   1.147   3.018   5.970  2.3216  2.3603  2.6203
 5384TIP3   OH237566   1.061   5.344  16.816  0.1911 -0.5574  0.4046
 5384TIP3    H137567   1.084   5.435  16.835 -0.1672 -0.1571 -0.9744
 5384TIP3    H237568   1.044   5.305  16.902 -1.5095  1.1844  0.9254
 5385TIP3   OH237569   5.306   0.565   5.215  0.3436  0.0630 -0.2541
 5385TIP3    H137570   5.271   0.604   5.295  1.3393  0.5201 -0.0350
 5385TIP3    H237571   5.401   0.574   5.223  0.4280  1.2951 -2.0697
 5386TIP3   OH237572   0.810   5.598   1.353 -0.2757 -0.0496 -0.0311
 5386TIP3    H137573   0.880   5.632   1.409  0.9581  0.1095 -1.5898
 5386TIP3    H237574   0.732   5.648   1.379 -0.1817 -1.1814  2.6783
 5387TIP3   OH237575   2.658   5.953   2.270 -0.2334 -0.5664 -0.5267
 5387TIP3    H137576   2.662   6.002   2.352 -0.6524  1.9895 -1.9342
 5387TIP3    H237577   2.749   5.926   2.255  0.4563  1.6054 -0.6738
 5388TIP3   OH237578   4.765   6.622   0.644  0.2615  0.1764  0.3038
 5388TIP3    H137579   4.718   6.569   0.708  1.6723  1.7217  2.7781
 5388TIP3    H237580   4.834   6.565   0.611  2.1975  0.4515  3.4329
 5389TIP3   OH237581   0.951   0.468  17.244  0.1327  0.1282 -0.4106
 5389TIP3    H137582   0.982   0.483  17.334  1.4899  1.1898 -1.0301
 5389TIP3    H237583   1.016   0.409  17.206 -1.0342 -1.2200 -0.3932
 5390TIP3   OH237584   6.141   6.253  12.204 -0.0487 -0.0322  0.0146
 5390TIP3    H137585   6.210   6.315  12.182  0.3374 -1.3133 -2.8866
 5390TIP3    H237586   6.185   6.187  12.258  0.2935  0.5874  0.5046
 5391TIP3   OH237587   4.946   3.693   0.811 -0.2690 -0.0092  0.4634
 5391TIP3    H137588   4.974   3.713   0.722 -1.2080 -0.2529  0.1025
 5391TIP3    H237589   5.001   3.620   0.838  1.1818  1.1434  0.7195
 5392TIP3   OH237590   5.672   6.765  12.345  0.3961  0.3187 -0.6853
 5392TIP3    H137591   5.641   6.677  12.366 -0.2877  0.5690 -0.6037
 5392TIP3    H237592   5.709   6.757  12.257 -1.3031  0.3037 -1.4502
 5393TIP3   OH237593   5.358   6.774  12.216 -0.1646 -0.6676  0.1738
 5393TIP3    H137594   5.335   6.780  12.123  2.3080  2.6827 -0.4138
 5393TIP3    H237595   5.431   6.713  12.219 -0.4598 -1.0350 -0.0020
 5394TIP3   OH237596   2.529   2.997  12.455 -0.1993 -0.1866 -0.0400
 5394TIP3    H137597   2.538   2.991  12.550  1.0397 -1.3514 -0.2113
 5394TIP3    H237598   2.434   2.993  12.440 -0.3918 -0.2943  1.1094
 5395TIP3   OH237599   4.847   0.999  11.948 -0.0050 -0.6135 -0.7554
 5395TIP3    H137600   4.897   0.917  11.941  1.1956 -0.5180  3.8381
 5395TIP3    H237601   4.913   1.066  11.964 -1.2763  0.3532  0.6767
 5396TIP3   OH237602   2.657   3.715  14.498 -0.3221 -0.0019  0.3405
 5396TIP3    H137603   2.639   3.626  14.466 -1.3731  1.0992 -2.4809
 5396TIP3    H237604   2.747   3.733  14.471  0.3866 -0.6077  2.1244
 5397TIP3   OH237605   1.183   6.129  15.705  0.3157  0.4619 -0.5891
 5397TIP3    H137606   1.136   6.048  15.691 -1.1159  1.7461 -4.6608
 5397TIP3    H237607   1.115   6.193  15.726  1.1225  1.0876  0.1976
 5398TIP3   OH237608   5.619   5.653  14.034 -0.2426  0.6744  0.0183
 5398TIP3    H137609   5.595   5.743  14.009  1.5230  0.6460 -2.0365
 5398TIP3    H237610   5.610   5.603  13.953  2.5115 -0.1573  0.1465
 5399TIP3   OH237611   5.783   0.713  12.896  0.0525 -0.5132 -0.1623
 5399TIP3    H137612   5.834   0.697  12.816  0.2647  0.7213 -0.3019
 5399TIP3    H237613   5.838   0.678  12.966  1.0070  0.5567 -0.3391
 5400TIP3   OH237614   0.906   1.736   0.321 -0.3503 -0.2229 -0.0371
 5400TIP3    H137615   0.905   1.830   0.337  1.5765 -0.5591  2.6231
 5400TIP3    H237616   0.888   1.696   0.406  0.2807 -2.2675 -0.7927
 5401TIP3   OH237617   3.805   1.587   4.787  0.8209  0.0669  0.8015
 5401TIP3    H137618   3.757   1.667   4.808  0.3574 -0.1312  0.5108
 5401TIP3    H237619   3.836   1.554   4.872  1.3448  0.7549  0.8838
 5402TIP3   OH237620   6.376   3.662   3.935  0.0376 -0.4383 -0.1316
 5402TIP3    H137621   6.389   3.753   3.911 -1.1103 -0.3713 -0.5358
 5402TIP3    H237622   6.453   3.617   3.901  0.1410  0.2264 -0.7957
 5403TIP3   OH237623   2.109   4.748   0.886  0.4507  0.6557  0.0905
 5403TIP3    H137624   2.197   4.729   0.918  1.1658  0.0836 -2.0701
 5403TIP3    H237625   2.108   4.843   0.872 -0.4933  1.2605  3.3249
 5404TIP3   OH237626   0.452   3.890  13.562  0.5207  0.1310  0.1737
 5404TIP3    H137627   0.510   3.815  13.553 -0.3537 -0.5507  0.0439
 5404TIP3    H237628   0.494   3.960  13.512  0.1482 -0.9849 -1.7684
 5405TIP3   OH237629   4.860   6.550  16.063  0.0253  0.4536  0.2809
 5405TIP3    H137630   4.899   6.625  16.017  1.2990 -0.6602 -0.5273
 5405TIP3    H237631   4.926   6.525  16.128 -1.2729  1.2890  2.0003
 5406TIP3   OH237632   1.983   3.054   3.187 -0.1389 -0.3744 -0.0836
 5406TIP3    H137633   2.046   3.011   3.130  1.0202  0.9558  0.1433
 5406TIP3    H237634   2.036   3.089   3.259 -0.8352  2.2625 -0.7490
 5407TIP3   OH237635   4.748   1.159  16.896 -0.3994  0.2746 -0.1943
 5407TIP3    H137636   4.672   1.118  16.937  0.6663  0.5271  2.1755
 5407TIP3    H237637   4.823   1.127  16.946  0.9784  0.9123 -1.7452
 5408TIP3   OH237638   0.055   0.988  15.558  0.2009 -0.6862 -0.3432
 5408TIP3    H137639  -0.019   1.035  15.520  0.8047  1.1101  0.5404
 5408TIP3    H237640   0.054   1.014  15.651  2.1227 -0.2810 -0.3916
 5409TIP3   OH237641   6.660   5.778  13.178 -0.3855 -0.4916  0.2509
 5409TIP3    H137642   6.695   5.692  13.199 -0.0939 -0.1773  1.0865
 5409TIP3    H237643   6.635   5.772  13.086 -0.6877 -1.5707  0.3962
 5410TIP3   OH237644   1.037   5.599  11.436  0.3724 -0.1234  0.0100
 5410TIP3    H137645   0.997   5.514  11.453 -0.6757  0.0425 -1.4387
 5410TIP3    H237646   1.120   5.596  11.483 -0.5309 -1.1678  1.6140
 5411TIP3   OH237647   6.261   3.065   1.159  0.3511  0.2655 -0.0149
 5411TIP3    H137648   6.239   3.076   1.066 -0.4354  0.8714  0.2315
 5411TIP3    H237649   6.304   2.980   1.164 -0.0005  0.0311 -0.8660
 5412TIP3   OH237650   6.429   1.844   3.168  0.2503 -0.1344 -0.1212
 5412TIP3    H137651   6.503   1.787   3.147 -0.2665 -0.1027 -2.2173
 5412TIP3    H237652   6.463   1.904   3.235  1.8214 -0.7144 -0.3567
 5413TIP3   OH237653   2.922   3.002   0.673 -0.0876  0.3225 -0.2661
 5413TIP3    H137654   2.998   3.029   0.725 -0.2455 -0.9975  0.7078
 5413TIP3    H237655   2.894   2.920   0.712 -0.2866 -0.7018 -2.4067
 5414TIP3   OH237656   4.909   3.565   2.668  0.1251 -0.2059 -0.5758
 5414TIP3    H137657   4.855   3.493   2.635  0.1814  0.1852 -1.5701
 5414TIP3    H237658   4.846   3.633   2.693  0.0851 -0.4756  0.0628
 5415TIP3   OH237659   4.364   4.939   1.376  0.0998  0.0264 -0.0395
 5415TIP3    H137660   4.395   4.853   1.403 -2.7835 -1.5469 -1.2407
 5415TIP3    H237661   4.311   4.970   1.449 -2.0802 -1.1080 -1.0476
 5416TIP3   OH237662   4.077   2.733   5.218 -1.4606  0.3420  0.3406
 5416TIP3    H137663   4.106   2.733   5.127 -0.0962  0.4794  0.7605
 5416TIP3    H237664   3.990   2.692   5.215 -0.1428 -2.6503 -0.6388
 5417TIP3   OH237665   2.435   6.007   5.210  0.3711 -0.1973 -0.7141
 5417TIP3    H137666   2.511   6.046   5.253 -1.1347  0.6942  1.3242
 5417TIP3    H237667   2.428   5.919   5.249 -0.1022  0.0400 -0.2429
 5418TIP3   OH237668   0.275   0.881  13.672  0.8399  0.5657 -0.7141
 5418TIP3    H137669   0.343   0.945  13.653  0.9786  0.1772 -1.5808
 5418TIP3    H237670   0.194   0.923  13.642  0.8567  0.5443 -0.7888
 5419TIP3   OH237671   1.572   5.988  11.547  0.4901  0.2951  0.4095
 5419TIP3    H137672   1.583   6.064  11.490  0.4478  0.2886  0.3918
 5419TIP3    H237673   1.477   5.976  11.552  0.4291  1.1124  1.5545
 5420TIP3   OH237674   3.578   2.830   3.883  0.0922  0.0569  0.7015
 5420TIP3    H137675   3.593   2.898   3.949 -1.7664  0.4483  0.7800
 5420TIP3    H237676   3.609   2.869   3.801  1.8452 -0.1988  1.1947
 5421TIP3   OH237677   3.029   2.221  13.347  0.3269  0.4566  0.0137
 5421TIP3    H137678   3.024   2.140  13.399 -0.3718  1.5504  1.7340
 5421TIP3    H237679   3.099   2.205  13.284  0.6568 -1.2342  0.7561
 5422TIP3   OH237680   2.343   5.579  16.876 -0.5997  0.4759 -0.2797
 5422TIP3    H137681   2.292   5.528  16.939  0.6197 -0.3407  0.0830
 5422TIP3    H237682   2.352   5.522  16.800  1.8391 -0.4451  0.6011
 5423TIP3   OH237683   3.572   5.320   2.803  0.2350  0.6406 -0.1291
 5423TIP3    H137684   3.533   5.233   2.799 -0.2293  0.8510 -0.1641
 5423TIP3    H237685   3.529   5.362   2.878  0.2415  0.9488 -0.2980
 5424TIP3   OH237686   3.040   5.423  11.723 -0.1572  0.4989  0.4780
 5424TIP3    H137687   3.088   5.367  11.662 -2.1224 -0.6034 -0.1786
 5424TIP3    H237688   2.999   5.489  11.667 -1.0725  0.1519  0.7120
 5425TIP3   OH237689   1.715   2.890   6.556 -0.0794 -0.1695  0.0075
 5425TIP3    H137690   1.778   2.825   6.526 -0.1377  0.1261 -0.7826
 5425TIP3    H237691   1.768   2.967   6.576 -0.1992  0.1231 -0.7860
 5426TIP3   OH237692   2.380   0.748   0.095  0.1380 -0.8771 -0.1952
 5426TIP3    H137693   2.293   0.716   0.074 -1.1728  1.4689  1.1823
 5426TIP3    H237694   2.366   0.809   0.168  2.9506 -0.5082  0.1462
 5427TIP3   OH237695   0.176   6.589  11.590  0.7314 -0.2279 -0.5673
 5427TIP3    H137696   0.093   6.543  11.575 -0.0657 -0.4545  3.3307
 5427TIP3    H237697   0.236   6.522  11.622  0.3030  0.7972  2.8182
 5428TIP3   OH237698   1.845   1.755  14.231 -0.4450 -0.0249  0.3978
 5428TIP3    H137699   1.858   1.737  14.324  0.6478  0.5378  0.3783
 5428TIP3    H237700   1.922   1.716  14.189  0.1034  1.4496 -0.0294
 5429TIP3   OH237701   2.386   4.495   5.494 -0.5661 -0.2373 -0.0215
 5429TIP3    H137702   2.343   4.410   5.487  2.5111 -1.9106 -0.8632
 5429TIP3    H237703   2.344   4.538   5.568 -0.9047 -3.3806  1.7639
 5430TIP3   OH237704   5.943   6.090   1.085  0.6712  0.1890 -0.4072
 5430TIP3    H137705   6.024   6.133   1.056  0.6634  0.4897  0.0133
 5430TIP3    H237706   5.928   6.021   1.020  1.5973 -0.2680 -0.1522
 5431TIP3   OH237707   2.763   6.765   3.092  0.0905 -0.2099  0.1257
 5431TIP3    H137708   2.707   6.843   3.096  0.8794  0.3221  1.2242
 5431TIP3    H237709   2.852   6.799   3.098  0.4508 -1.1873  0.4859
 5432TIP3   OH237710   0.165   1.750  11.511  0.0253 -0.4655  0.3321
 5432TIP3    H137711   0.242   1.717  11.463 -1.6004 -0.2601 -2.6753
 5432TIP3    H237712   0.174   1.845  11.508 -0.6393 -0.4220 -0.6180
 5433TIP3   OH237713   1.757   0.313   1.500  0.5645 -0.6779 -0.1684
 5433TIP3    H137714   1.716   0.357   1.425 -1.4645  1.1549  1.8864
 5433TIP3    H237715   1.847   0.299   1.472  0.8998  3.1973 -1.7397
 5434TIP3   OH237716   3.708   4.870  13.149  0.5116  0.7068 -0.0413
 5434TIP3    H137717   3.654   4.948  13.161  1.2441  1.0895  0.8769
 5434TIP3    H237718   3.798   4.899  13.167  0.7908 -0.3542  0.3907
 5435TIP3   OH237719   0.694   1.031  16.573 -0.0587 -0.0521  0.5473
 5435TIP3    H137720   0.783   1.064  16.561 -0.1021 -0.0095  0.3453
 5435TIP3    H237721   0.655   1.090  16.638 -0.8114  1.5777 -1.2976
 5436TIP3   OH237722   2.341   2.042  16.785 -0.3058 -0.3305  0.6153
 5436TIP3    H137723   2.286   2.022  16.709  1.1170 -2.9247  0.1497
 5436TIP3    H237724   2.406   2.104  16.751 -0.9821  0.2175  0.3012
 5437TIP3   OH237725   4.060   2.306  16.228 -0.4560  0.0932 -0.5442
 5437TIP3    H137726   4.056   2.398  16.252 -0.5096  0.3195 -1.3815
 5437TIP3    H237727   4.136   2.299  16.171  1.8909 -1.1301  2.4790
 5438TIP3   OH237728   6.578   3.527  11.024  0.4188 -0.0067  0.2315
 5438TIP3    H137729   6.639   3.454  11.013  1.3505  1.0459 -2.2078
 5438TIP3    H237730   6.494   3.492  10.996  0.3113 -0.8219  1.4835
 5439TIP3   OH237731   4.975   1.001   6.215  0.1032  0.2076  0.2109
 5439TIP3    H137732   4.926   0.945   6.154  2.6760  0.8117 -2.6322
 5439TIP3    H237733   5.037   0.942   6.257  1.5977  0.5401 -1.4469
 5440TIP3   OH237734   5.092   5.557  13.900 -0.2142 -0.3211 -0.1368
 5440TIP3    H137735   5.044   5.618  13.957 -1.1659 -1.1222 -0.0664
 5440TIP3    H237736   5.083   5.472  13.943 -2.1178 -1.2116 -2.1246
 5441TIP3   OH237737   0.994   2.765   6.322  0.6594  0.1431  0.1878
 5441TIP3    H137738   0.957   2.685   6.360  1.6971 -0.4293  0.0559
 5441TIP3    H237739   1.088   2.748   6.320  0.6741 -0.0045 -2.8779
 5442TIP3   OH237740   2.822   1.987  12.076  0.1078 -0.0070 -0.2008
 5442TIP3    H137741   2.766   1.919  12.039  0.9057 -0.3388 -0.8381
 5442TIP3    H237742   2.909   1.969  12.040  1.1501 -0.8760  2.5515
 5443TIP3   OH237743   5.622   2.013   6.952  0.6499  0.0942  0.3768
 5443TIP3    H137744   5.533   2.000   6.986 -0.8112  0.2154 -3.0427
 5443TIP3    H237745   5.660   2.079   7.011 -1.8336  0.6760  1.4624
 5444TIP3   OH237746   0.988   4.567   5.799  0.2564 -0.4025  0.0704
 5444TIP3    H137747   1.026   4.655   5.808  0.8661 -0.5541 -0.8955
 5444TIP3    H237748   0.894   4.581   5.810  0.2113  0.5773 -1.2961
 5445TIP3   OH237749   5.743   1.066  16.568  0.0929 -0.3830  0.5697
 5445TIP3    H137750   5.661   1.091  16.526  0.2153 -0.8181  0.0596
 5445TIP3    H237751   5.810   1.086  16.503  0.1137 -2.9408 -0.2990
 5446TIP3   OH237752   3.896   5.086  16.292 -0.3573 -0.7769 -0.1262
 5446TIP3    H137753   3.852   5.023  16.349  0.5792  0.5053  2.1356
 5446TIP3    H237754   3.973   5.040  16.260 -0.1702 -1.0947  0.7680
 5447TIP3   OH237755   5.410   6.306  10.608 -0.4822 -0.1674 -0.7135
 5447TIP3    H137756   5.330   6.263  10.638  0.3154 -1.4377 -0.3491
 5447TIP3    H237757   5.440   6.358  10.683  0.1048 -1.2781 -0.1667
 5448TIP3   OH237758   2.497   5.414  12.463  0.4979 -0.1161 -0.1826
 5448TIP3    H137759   2.460   5.465  12.535 -0.4311 -0.1525 -0.6167
 5448TIP3    H237760   2.586   5.447  12.453  0.0649  1.0758 -0.1461
 5449TIP3   OH237761   6.020   2.699  16.261  0.2135  0.3458 -0.4144
 5449TIP3    H137762   5.944   2.737  16.218  1.0584  1.7240 -0.7540
 5449TIP3    H237763   6.001   2.605  16.265 -1.1790  0.5741 -1.1221
 5450TIP3   OH237764   4.626   1.157  12.628  0.3870 -0.1546  0.0784
 5450TIP3    H137765   4.639   1.063  12.620 -1.2807 -0.3671 -0.4096
 5450TIP3    H237766   4.701   1.187  12.680  1.8687 -1.4641 -1.2299
 5451TIP3   OH237767   5.683   4.227  12.730 -0.4182  0.0702 -0.5740
 5451TIP3    H137768   5.703   4.194  12.642  0.6268  0.9076 -0.6600
 5451TIP3    H237769   5.727   4.311  12.735 -0.3189 -0.0473  0.8282
 5452TIP3   OH237770   1.364   3.550  16.518  0.5449  0.0188  0.1826
 5452TIP3    H137771   1.360   3.580  16.428  1.4091  0.2035  0.1957
 5452TIP3    H237772   1.397   3.625  16.567 -1.6999  0.5555  0.9847
 5453TIP3   OH237773   5.278   5.655  11.802  0.1573 -0.5594 -0.4654
 5453TIP3    H137774   5.238   5.723  11.747  0.4879  0.4273  0.4743
 5453TIP3    H237775   5.287   5.696  11.888  2.6987 -0.8857 -0.4845
 5454TIP3   OH237776   4.680   4.252   0.232 -0.4822  0.5900 -0.1936
 5454TIP3    H137777   4.660   4.167   0.271  0.4316  0.0036 -0.9594
 5454TIP3    H237778   4.769   4.272   0.262 -1.1869  1.9430  1.0993
 5455TIP3   OH237779   3.481   5.076  16.492 -0.1740  0.4216  0.0062
 5455TIP3    H137780   3.540   5.008  16.457  0.0380  0.5631  0.0878
 5455TIP3    H237781   3.473   5.055  16.585 -2.5167 -1.2935 -0.4889
 5456TIP3   OH237782   2.491   1.143  11.379 -0.1590 -0.1331 -0.6456
 5456TIP3    H137783   2.398   1.162  11.385  0.3090  2.5044 -0.5608
 5456TIP3    H237784   2.528   1.216  11.329  1.6458 -2.0376 -2.3107
 5457TIP3   OH237785   0.618   6.207   4.271  0.3453 -0.0412  0.0260
 5457TIP3    H137786   0.653   6.143   4.333  0.8634  0.2780  0.0676
 5457TIP3    H237787   0.588   6.279   4.327  1.0363  0.3527 -0.1050
 5458TIP3   OH237788   0.349   5.035  13.937  0.3453  0.7434 -0.2925
 5458TIP3    H137789   0.409   5.104  13.965  0.0476  1.1546 -0.6539
 5458TIP3    H237790   0.404   4.958  13.925  0.4561  0.4994  1.5826
 5459TIP3   OH237791   6.525   3.463   5.076 -0.1136  0.5955 -0.1603
 5459TIP3    H137792   6.458   3.500   5.019  1.2055  2.0705 -0.8328
 5459TIP3    H237793   6.605   3.462   5.023  0.0799 -2.8629 -0.0063
 5460TIP3   OH237794   1.533   6.446   0.690  0.2967 -0.0218  0.2515
 5460TIP3    H137795   1.592   6.408   0.624  1.9634  0.0511  1.6306
 5460TIP3    H237796   1.513   6.373   0.748  0.7053  0.4187  0.9549
 5461TIP3   OH237797   5.698   2.424  16.640 -0.2444 -0.0959 -0.6639
 5461TIP3    H137798   5.633   2.480  16.682 -1.9726 -0.8322 -2.2243
 5461TIP3    H237799   5.781   2.446  16.683 -1.3931  1.3858  0.8908
 5462TIP3   OH237800   5.326   4.998   1.844 -0.2343  0.2642 -0.1150
 5462TIP3    H137801   5.375   4.922   1.876  1.5464  1.4347  0.0941
 5462TIP3    H237802   5.355   5.009   1.753 -0.9538  0.3323 -0.3399
 5463TIP3   OH237803   4.928   4.013  16.389 -0.3186 -0.5272  0.8137
 5463TIP3    H137804   4.918   3.931  16.437 -1.8559 -0.3254  0.8995
 5463TIP3    H237805   4.922   4.081  16.456  1.3247 -0.3278  0.7924
 5464TIP3   OH237806   4.671   6.692   6.015 -0.6070 -0.3563  1.2532
 5464TIP3    H137807   4.760   6.677   6.045 -0.5793 -0.6284  1.0340
 5464TIP3    H237808   4.641   6.607   5.982  0.0637  0.3378 -1.3732
 5465TIP3   OH237809   6.441   2.833   0.710 -0.2876 -0.3938  0.1525
 5465TIP3    H137810   6.370   2.816   0.648  0.7723 -1.4409 -0.8249
 5465TIP3    H237811   6.521   2.807   0.663  0.6116 -0.6076  1.7315
 5466TIP3   OH237812   1.010   0.856  13.401 -0.0718 -0.5522 -0.2591
 5466TIP3    H137813   1.102   0.858  13.375 -0.1714  0.2475 -0.5619
 5466TIP3    H237814   1.001   0.927  13.465 -0.4142 -0.8177 -0.0058
 5467TIP3   OH237815   0.256   0.016   3.820  0.3310 -0.2263  0.8517
 5467TIP3    H137816   0.254  -0.054   3.885  1.3205 -1.3454 -0.2631
 5467TIP3    H237817   0.241  -0.029   3.736 -0.0351  1.0533  0.2024
 5468TIP3   OH237818   3.105   2.008   1.982 -0.1915  0.4635 -0.1156
 5468TIP3    H137819   3.166   1.942   2.014 -0.9849 -1.0874 -1.6691
 5468TIP3    H237820   3.042   2.018   2.053  0.2814  0.0267  0.3762
 5469TIP3   OH237821   3.395   5.555   5.834  0.5826  0.3240 -0.0430
 5469TIP3    H137822   3.353   5.484   5.884  2.7394 -0.4367  0.8323
 5469TIP3    H237823   3.351   5.554   5.749 -0.9391 -0.5884  0.7051
 5470TIP3   OH237824   1.250   6.495  17.190  0.0163  0.0059 -0.7844
 5470TIP3    H137825   1.306   6.560  17.149 -1.5285  1.6598 -0.4225
 5470TIP3    H237826   1.249   6.519  17.283  0.3388 -1.2673 -0.4370
 5471TIP3   OH237827   6.039   2.743  11.911  0.4200  0.6326  0.2384
 5471TIP3    H137828   6.020   2.834  11.936  0.8310  1.4239 -2.0568
 5471TIP3    H237829   6.120   2.749  11.861  0.0645 -0.8980 -0.5551
 5472TIP3   OH237830   1.492   4.849  13.124 -0.0068 -1.3370 -0.6597
 5472TIP3    H137831   1.443   4.767  13.123  0.7250 -1.7826 -1.2277
 5472TIP3    H237832   1.470   4.890  13.208 -1.4931 -1.4177 -0.9881
 5473TIP3   OH237833   4.675   5.960   3.426  0.2788 -0.8095 -0.3813
 5473TIP3    H137834   4.622   6.034   3.456  1.0043 -0.5601  0.3222
 5473TIP3    H237835   4.678   5.900   3.500 -0.6217 -1.7531 -1.0699
 5474TIP3   OH237836   6.655   3.047   6.037  0.1733 -0.3867  0.0359
 5474TIP3    H137837   6.599   3.088   5.971  0.6475 -0.7336 -0.6065
 5474TIP3    H237838   6.690   3.120   6.088  0.9414  0.0390 -1.0365
 5475TIP3   OH237839   2.533   3.065  15.360 -0.2795  0.1684 -0.0939
 5475TIP3    H137840   2.521   3.126  15.288  0.9751  1.0268  0.3786
 5475TIP3    H237841   2.464   3.087  15.423 -0.4979  0.3673 -0.4031
 5476TIP3   OH237842   2.909   3.577  16.335  0.1582 -0.4533 -0.0080
 5476TIP3    H137843   2.966   3.559  16.261 -0.9593  0.6015 -1.1527
 5476TIP3    H237844   2.966   3.616  16.401  0.8677  0.0755 -0.9198
 5477TIP3   OH237845   1.715   2.528   6.198 -0.1327 -0.1757 -0.0486
 5477TIP3    H137846   1.659   2.476   6.255 -0.9799  0.8419  0.0833
 5477TIP3    H237847   1.708   2.487   6.112  0.4390 -1.1826  0.3770
 5478TIP3   OH237848   0.094   4.884  12.240 -0.6224  0.2934 -0.2623
 5478TIP3    H137849   0.009   4.928  12.235  0.2395  2.1800  0.8460
 5478TIP3    H237850   0.156   4.953  12.260  0.7524 -1.4987  2.1590
 5479TIP3   OH237851   3.486   0.801   4.499  0.1616 -0.8664 -0.4833
 5479TIP3    H137852   3.556   0.801   4.433  1.4785  0.5409  0.8431
 5479TIP3    H237853   3.524   0.754   4.573 -0.6876 -0.9420 -0.0833
 5480TIP3   OH237854   2.959   0.491  15.846  0.1135  0.0835 -0.4408
 5480TIP3    H137855   2.966   0.585  15.826 -1.5677  0.3126 -0.1313
 5480TIP3    H237856   2.927   0.489  15.936  0.8950 -0.8143 -0.1764
 5481TIP3   OH237857   6.728   5.719  14.217 -0.4494 -0.5392 -0.6351
 5481TIP3    H137858   6.728   5.711  14.313 -1.2070  0.5464 -0.5356
 5481TIP3    H237859   6.816   5.750  14.196 -1.4841  3.5461  0.1582
 5482TIP3   OH237860   2.957   2.192  16.225  0.1671 -0.4788  0.4345
 5482TIP3    H137861   3.045   2.227  16.209 -0.5366  1.2693  0.2933
 5482TIP3    H237862   2.898   2.254  16.183 -1.2209 -0.9209  1.6761
 5483TIP3   OH237863   2.644   0.916   0.463  0.5407 -0.1018 -0.1982
 5483TIP3    H137864   2.720   0.971   0.479  1.0162 -1.1732  1.5908
 5483TIP3    H237865   2.575   0.953   0.518  0.2270 -0.0471 -0.6216
 5484TIP3   OH237866   2.768   3.997   5.006 -0.7339  0.5177 -0.8104
 5484TIP3    H137867   2.853   3.954   5.008  0.1699  2.2202 -0.5997
 5484TIP3    H237868   2.712   3.943   5.062  0.6715  0.2943  0.4131
 5485TIP3   OH237869   4.421   1.041   3.018 -0.1090 -0.4206  0.6773
 5485TIP3    H137870   4.498   1.055   3.072  0.8255 -1.2214 -0.3958
 5485TIP3    H237871   4.448   1.068   2.930 -0.7460 -1.5553  0.1066
 5486TIP3   OH237872   3.654   5.040  17.165 -0.3751  0.0870 -0.1138
 5486TIP3    H137873   3.584   5.071  17.222  2.1167  1.2880  2.5538
 5486TIP3    H237874   3.636   5.081  17.080 -1.5098  2.4268  1.1818
 5487TIP3   OH237875   3.191   3.927  16.578 -0.2917 -0.0497  0.2169
 5487TIP3    H137876   3.226   3.866  16.513  2.7097  0.4189  1.2006
 5487TIP3    H237877   3.162   4.003  16.527  1.8830  0.2593 -0.6958
 5488TIP3   OH237878   6.417   3.625   5.878  0.0207  0.2319 -0.3753
 5488TIP3    H137879   6.386   3.705   5.920  1.0246 -0.3329  1.5478
 5488TIP3    H237880   6.344   3.563   5.886  0.5779 -0.2456  1.7171
 5489TIP3   OH237881   3.122   4.421  10.689 -0.4415 -0.1834  0.1479
 5489TIP3    H137882   3.035   4.430  10.728 -0.7681 -0.4428 -0.5216
 5489TIP3    H237883   3.108   4.376  10.606  0.1377  1.1944 -0.7284
 5490TIP3   OH237884   1.260   3.364  10.500 -0.2074  0.1719  0.2641
 5490TIP3    H137885   1.339   3.312  10.485 -0.8827 -1.0557  0.7995
 5490TIP3    H237886   1.292   3.444  10.543  1.4832  2.6343 -4.7668
 5491TIP3   OH237887   6.763   4.609   0.221 -0.1794 -0.4217  0.3402
 5491TIP3    H137888   6.696   4.542   0.205 -0.9083  0.2584  0.4752
 5491TIP3    H237889   6.742   4.643   0.308 -2.3608  2.7957 -1.2505
 5492TIP3   OH237890   5.233   4.161  11.025  0.0468 -0.4078  0.2975
 5492TIP3    H137891   5.152   4.124  11.058 -1.1282  2.5336  0.9984
 5492TIP3    H237892   5.232   4.141  10.931 -2.5918  1.2510 -0.1391
 5493TIP3   OH237893   5.106   2.600  16.236 -0.1919  0.2848 -0.3975
 5493TIP3    H137894   5.052   2.617  16.159  0.6351 -1.1423 -1.3428
 5493TIP3    H237895   5.070   2.657  16.304 -3.8062 -1.5111 -0.5295
 5494TIP3   OH237896   6.001   1.698  15.184  0.1691 -0.1508  0.2974
 5494TIP3    H137897   6.039   1.776  15.143 -0.7506  0.3164  0.3068
 5494TIP3    H237898   6.026   1.626  15.127  0.9417  0.1645  0.2271
 5495TIP3   OH237899   4.884   4.535  16.959  0.4282 -0.8250 -0.6695
 5495TIP3    H137900   4.909   4.502  17.045  0.9358  1.7163  0.2473
 5495TIP3    H237901   4.966   4.565  16.920 -0.1998  1.1657 -0.5621
 5496TIP3   OH237902   0.664   0.648   1.140 -0.2451  0.7374 -0.8691
 5496TIP3    H137903   0.634   0.739   1.135 -1.2799  0.4316 -0.4716
 5496TIP3    H237904   0.598   0.599   1.091  0.3510  0.2030 -1.1441
 5497TIP3   OH237905   0.232   1.820   4.944  0.1000 -0.2456  0.2157
 5497TIP3    H137906   0.209   1.800   5.035  1.6151  2.5319  1.3285
 5497TIP3    H237907   0.300   1.887   4.951  1.1203 -0.7946 -2.9935
 5498TIP3   OH237908   1.695   5.686  15.947  0.5360 -0.2657 -0.0574
 5498TIP3    H137909   1.727   5.613  15.895  4.4274  1.0479  0.1807
 5498TIP3    H237910   1.703   5.657  16.038 -1.0289 -0.6216 -0.0078
 5499TIP3   OH237911   5.957   2.481   5.364 -0.3644 -0.5221 -0.4570
 5499TIP3    H137912   5.952   2.451   5.273  1.0513 -0.9912 -0.4098
 5499TIP3    H237913   6.022   2.552   5.362 -0.9824  0.0797  0.0593
 5500TIP3   OH237914   3.663   6.677   6.020  0.5774  0.2136 -0.3186
 5500TIP3    H137915   3.699   6.698   5.934 -1.1171  0.1105 -1.0994
 5500TIP3    H237916   3.630   6.761   6.052 -0.9216 -0.1401 -0.8488
 5501TIP3   OH237917   2.293   3.493   3.977 -0.2777 -0.1616 -0.2314
 5501TIP3    H137918   2.252   3.570   4.017 -2.0485 -0.9419 -0.4087
 5501TIP3    H237919   2.234   3.421   4.001 -0.2117 -1.0024 -2.3855
 5502TIP3   OH237920   0.562   3.384  13.041 -0.1314  0.3063  0.2329
 5502TIP3    H137921   0.529   3.399  12.953  1.5173 -1.4123 -0.7388
 5502TIP3    H237922   0.601   3.468  13.067 -1.9226  1.2571 -0.0323
 5503TIP3   OH237923   5.189   1.160   2.203 -0.4099 -0.3370  0.2347
 5503TIP3    H137924   5.238   1.106   2.266  1.8199 -0.8084 -1.7755
 5503TIP3    H237925   5.248   1.231   2.180 -1.2429 -0.0564 -1.1707
 5504TIP3   OH237926   5.261   0.113  14.005  0.1579 -0.3498 -0.1323
 5504TIP3    H137927   5.207   0.104  14.084  1.6152 -0.8991  0.8492
 5504TIP3    H237928   5.261   0.025  13.966  0.4369 -0.3829 -0.0597
 5505TIP3   OH237929   2.689   3.717  16.270  0.6586 -0.3980 -0.3609
 5505TIP3    H137930   2.768   3.675  16.306 -1.4469 -3.4667  1.1693
 5505TIP3    H237931   2.663   3.781  16.336  0.7138 -0.9318  0.1853
 5506TIP3   OH237932   2.497   5.751   5.279  0.1079 -0.2735  0.4016
 5506TIP3    H137933   2.493   5.778   5.371 -1.4985 -1.5282  0.7421
 5506TIP3    H237934   2.565   5.683   5.277 -0.1782 -0.5749  0.7665
 5507TIP3   OH237935   3.064   2.429   0.815 -0.0421 -0.4497  0.0161
 5507TIP3    H137936   3.018   2.444   0.897 -1.3426  0.9683 -0.9235
 5507TIP3    H237937   3.113   2.348   0.830  1.4551  0.8483  2.8712
 5508TIP3   OH237938   5.184   0.610   5.974 -0.2873 -0.1781 -0.6994
 5508TIP3    H137939   5.139   0.620   6.058 -0.3662 -0.6653 -0.6799
 5508TIP3    H237940   5.266   0.565   5.997 -0.5691 -0.8315 -0.9527
 5509TIP3   OH237941   0.649   5.861  17.263 -0.6570  0.3178 -0.3232
 5509TIP3    H137942   0.570   5.891  17.219  1.0297  2.5473 -2.0844
 5509TIP3    H237943   0.660   5.921  17.337  0.6165  1.6568 -1.5323
 5510TIP3   OH237944   5.234   5.602   0.238  0.0738  0.1694  0.0725
 5510TIP3    H137945   5.278   5.531   0.191  0.1190 -1.1681  2.0362
 5510TIP3    H237946   5.156   5.561   0.275 -0.2299  1.3189  0.7386
 5511TIP3   OH237947   3.117   0.796   6.374  0.5657  0.4101  0.0162
 5511TIP3    H137948   3.203   0.829   6.399  0.2374  0.2055  1.4705
 5511TIP3    H237949   3.059   0.825   6.444 -0.1202 -1.4101  0.2416
 5512TIP3   OH237950   5.481   1.951   5.027  0.4248  0.0919 -0.5628
 5512TIP3    H137951   5.517   1.876   5.075  0.8599  0.5744 -0.1191
 5512TIP3    H237952   5.391   1.959   5.060  0.7974  0.5752  0.3868
 5513TIP3   OH237953   5.379   1.876  16.391  0.0364 -0.0805 -0.2889
 5513TIP3    H137954   5.362   1.968  16.413  1.3198  0.3307 -0.9219
 5513TIP3    H237955   5.364   1.829  16.473 -1.2713  0.5865 -0.1028
 5514TIP3   OH237956   2.930   6.709   2.762 -0.2568  0.1651 -0.1207
 5514TIP3    H137957   2.991   6.704   2.835 -0.7094 -0.5549  0.2257
 5514TIP3    H237958   2.957   6.637   2.704  0.4854  1.1101 -0.9848
 5515TIP3   OH237959   2.080   5.255   3.142 -0.3168 -0.5115  0.1144
 5515TIP3    H137960   2.116   5.333   3.183 -1.3669 -0.3823  0.8238
 5515TIP3    H237961   2.032   5.210   3.212 -0.9650 -1.0124 -0.6284
 5516TIP3   OH237962   3.631   4.673  11.525  0.6051  0.7420 -0.2844
 5516TIP3    H137963   3.724   4.690  11.539  0.8948 -0.9348  0.0091
 5516TIP3    H237964   3.588   4.719  11.597  1.0714  2.6199 -1.1561
 5517TIP3   OH237965   6.105   2.199  13.834 -0.2025  0.3054 -0.7053
 5517TIP3    H137966   6.057   2.262  13.888 -0.5306  0.3808 -1.0780
 5517TIP3    H237967   6.192   2.238  13.823  0.8682 -1.0112  2.1110
 5518TIP3   OH237968   2.443   4.192   2.825 -0.0986  0.4205  0.1263
 5518TIP3    H137969   2.407   4.209   2.737  0.3261  0.6948  0.0005
 5518TIP3    H237970   2.377   4.226   2.884 -0.5469 -0.0813 -0.0797
 5519TIP3   OH237971   6.679   0.253  16.610 -0.3223  0.3192 -0.5343
 5519TIP3    H137972   6.713   0.201  16.537  1.5205  1.3303 -0.4611
 5519TIP3    H237973   6.707   0.343  16.591 -2.7774  1.2314 -0.2864
 5520TIP3   OH237974   5.249   2.603  14.293  0.1787 -0.5927 -0.4249
 5520TIP3    H137975   5.168   2.581  14.338 -1.6725  1.1641 -2.6513
 5520TIP3    H237976   5.234   2.578  14.202  0.4578  3.3782 -1.7321
 5521TIP3   OH237977   3.191   6.329   5.267 -0.3050  0.0302  0.3459
 5521TIP3    H137978   3.247   6.407   5.273 -1.4015  0.7858  1.3232
 5521TIP3    H237979   3.238   6.262   5.317  0.7781 -0.0440 -0.7279
 5522TIP3   OH237980   0.389   5.560   4.755  0.0135  0.2621 -0.4277
 5522TIP3    H137981   0.341   5.486   4.793  1.5679 -0.2463  0.6841
 5522TIP3    H237982   0.430   5.524   4.676  1.1286 -0.2434  0.3470
 5523TIP3   OH237983   6.402   6.503  16.677  0.9561  0.0589 -0.5913
 5523TIP3    H137984   6.415   6.432  16.740 -1.0279 -0.1586 -0.3835
 5523TIP3    H237985   6.491   6.525  16.648  1.8393 -0.6078  1.4131
 5524TIP3   OH237986   0.156   2.181  16.507 -0.2680 -0.2298  0.0264
 5524TIP3    H137987   0.234   2.219  16.466  0.2222 -0.5392  0.6529
 5524TIP3    H237988   0.141   2.100  16.457  1.5430 -1.6699  1.6831
 5525TIP3   OH237989   5.283   6.154   5.128 -0.0692 -0.5405 -0.4165
 5525TIP3    H137990   5.212   6.107   5.083 -0.8757  0.3832 -0.1443
 5525TIP3    H237991   5.258   6.246   5.123  0.9511 -0.2250 -0.0103
 5526TIP3   OH237992   5.897   1.786  11.986  0.3333  0.7543  0.5791
 5526TIP3    H137993   5.812   1.805  12.025  1.0404  0.9953  2.0882
 5526TIP3    H237994   5.906   1.850  11.916 -0.6927  0.7706  0.4460
 5527TIP3   OH237995   1.834   5.742  14.926 -0.5408 -0.2295 -0.0521
 5527TIP3    H137996   1.802   5.831  14.912 -0.8438 -0.3666 -0.2483
 5527TIP3    H237997   1.861   5.713  14.839 -0.2116 -0.2424  0.0540
 5528TIP3   OH237998   6.466   0.770  15.524 -0.3901  0.1076  0.2272
 5528TIP3    H137999   6.461   0.746  15.432  0.4103 -1.6297  0.5900
 5528TIP3    H238000   6.397   0.719  15.566  1.6922 -2.2289  1.0946
 5529TIP3   OH238001   5.854   4.596  11.983 -0.1992  0.1571  0.7763
 5529TIP3    H138002   5.883   4.671  11.930  0.2209 -0.0755  0.6675
 5529TIP3    H238003   5.842   4.526  11.919 -0.5515  0.1175  0.8832
 5530TIP3   OH238004   5.416   3.979   0.889  0.7430 -0.0827 -0.2752
 5530TIP3    H138005   5.400   3.885   0.879  0.2384 -0.1670  1.0744
 5530TIP3    H238006   5.486   3.984   0.955 -0.3516  0.4898  0.8906
 5531TIP3   OH238007   5.831   3.991   5.515  0.1293 -0.1228  0.0204
 5531TIP3    H138008   5.826   4.084   5.536 -0.5362  0.5346 -2.6491
 5531TIP3    H238009   5.740   3.962   5.512  0.3609 -1.1476  1.7518
 5532TIP3   OH238010   6.578   1.733  13.461  0.7452 -0.2361 -0.6444
 5532TIP3    H138011   6.563   1.645  13.495 -1.6237  0.4147  0.1220
 5532TIP3    H238012   6.546   1.730  13.371  0.3269 -0.0810 -0.5042
 5533TIP3   OH238013   5.056   4.707   4.864 -0.1318 -1.2456  0.3040
 5533TIP3    H138014   4.962   4.696   4.856 -0.2466 -0.7134  0.8253
 5533TIP3    H238015   5.075   4.695   4.957  0.5116 -2.6766  0.0174
 5534TIP3   OH238016   6.030   0.394  15.705 -1.1877  0.8510 -0.3000
 5534TIP3    H138017   5.935   0.393  15.713 -1.1568  1.0560  0.1566
 5534TIP3    H238018   6.059   0.451  15.777 -0.7887  1.7404 -1.1467
 5535TIP3   OH238019   5.389   2.716   6.474  0.1156  0.6480  0.3246
 5535TIP3    H138020   5.364   2.642   6.418  0.4189  0.2298  0.7360
 5535TIP3    H238021   5.308   2.766   6.485  0.0013  0.6202 -0.3059
 5536TIP3   OH238022   0.147   1.695  13.525 -0.2053  0.2488  0.2971
 5536TIP3    H138023   0.123   1.650  13.444  0.8586 -1.1795  0.7358
 5536TIP3    H238024   0.104   1.645  13.594 -0.1118  0.7240  0.7090
 5537TIP3   OH238025   1.910   5.344  12.783  0.1927  0.4422 -0.2061
 5537TIP3    H138026   1.887   5.300  12.701 -1.4022  1.5658 -0.3980
 5537TIP3    H238027   1.829   5.343  12.834  0.4644  2.0018  0.3028
 5538TIP3   OH238028   5.129   4.614   1.483 -0.0539  0.3114 -1.0313
 5538TIP3    H138029   5.215   4.592   1.520  0.0448  0.4279 -1.1907
 5538TIP3    H238030   5.121   4.559   1.405  0.0049  0.5196 -1.1847
 5539TIP3   OH238031   3.647   6.475   2.956 -0.3602  0.2372 -0.6319
 5539TIP3    H138032   3.662   6.568   2.939 -1.2513  0.6080  0.4599
 5539TIP3    H238033   3.648   6.434   2.870  1.0898  1.0816 -1.0526
 5540TIP3   OH238034   0.880   2.633  16.184  0.0572  0.4089  0.1741
 5540TIP3    H138035   0.900   2.589  16.101  0.0498 -0.1969  0.4872
 5540TIP3    H238036   0.916   2.575  16.251 -0.2822  0.6986  0.6118
 5541TIP3   OH238037   3.817   1.243   1.612 -0.0189  0.1482  0.6178
 5541TIP3    H138038   3.749   1.272   1.551  1.1038  0.5773 -0.4554
 5541TIP3    H238039   3.791   1.153   1.635  0.4826 -0.7132 -1.9239
 5542TIP3   OH238040   6.225   5.200  11.832 -0.0100 -0.3781 -0.2329
 5542TIP3    H138041   6.164   5.274  11.830  1.3450  0.8836  1.5860
 5542TIP3    H238042   6.268   5.202  11.747  1.1140  1.9961  0.2970
 5543TIP3   OH238043   0.857   2.001  11.887 -0.2662 -0.0050 -0.1289
 5543TIP3    H138044   0.769   2.018  11.853 -0.0898  1.1778 -0.0033
 5543TIP3    H238045   0.869   2.064  11.958  0.7769  0.0214 -0.3128
 5544TIP3   OH238046   2.474   3.622   4.788  0.4502 -0.0211 -0.0641
 5544TIP3    H138047   2.467   3.711   4.754  1.2442  0.3936  0.8122
 5544TIP3    H238048   2.567   3.612   4.811  0.5251 -1.3271 -0.8204
 5545TIP3   OH238049   5.038   0.145  15.791  0.4456 -0.2344  0.0011
 5545TIP3    H138050   5.123   0.143  15.748  1.3788  1.3309  1.6217
 5545TIP3    H238051   5.058   0.162  15.883 -1.6615  2.2988  0.1139
 5546TIP3   OH238052   5.876   5.620  12.906  0.5209 -0.6175  0.0815
 5546TIP3    H138053   5.934   5.669  12.847  0.2205  0.0938  0.3601
 5546TIP3    H238054   5.787   5.646  12.879  0.2662 -2.3355 -0.9000
 5547TIP3   OH238055   6.605   3.682   6.223  0.5092 -0.5505 -0.2552
 5547TIP3    H138056   6.586   3.740   6.149 -2.2017  0.8085  1.3372
 5547TIP3    H238057   6.635   3.601   6.183  1.2654  0.8317 -2.7243
 5548TIP3   OH238058   6.012   5.421  15.335 -0.3910  0.4510 -0.7453
 5548TIP3    H138059   6.093   5.414  15.286  1.1317  0.1096  1.6740
 5548TIP3    H238060   6.011   5.511  15.368 -0.9107  0.4087 -0.6299
 5549TIP3   OH238061   0.233   3.668  12.126 -0.0332  0.2590 -0.1879
 5549TIP3    H138062   0.298   3.705  12.066  0.2775 -1.8433 -1.2528
 5549TIP3    H238063   0.155   3.657  12.073 -0.6941  1.0345  0.5935
 5550TIP3   OH238064   0.252   0.584   1.288 -0.1173  0.3107 -0.6954
 5550TIP3    H138065   0.290   0.643   1.223 -0.0560  1.2248  0.1549
 5550TIP3    H238066   0.225   0.641   1.360  0.9833 -0.8049  0.6634
 5551TIP3   OH238067   2.349   1.036   4.887 -0.3080 -0.2171 -0.2243
 5551TIP3    H138068   2.315   0.956   4.847 -2.0433  1.1654 -1.6897
 5551TIP3    H238069   2.439   1.042   4.855 -0.4784 -1.0705 -0.9153
 5552TIP3   OH238070   6.751   5.839   5.036 -0.0230  0.2066  0.6421
 5552TIP3    H138071   6.700   5.880   4.965  0.4204 -0.3149  0.0107
 5552TIP3    H238072   6.841   5.840   5.004  0.4914  1.6426  1.9849
 5553TIP3   OH238073   5.059   4.967  14.334 -0.0320  0.0739 -0.2912
 5553TIP3    H138074   4.999   4.990  14.263  0.5696  2.1484 -0.1773
 5553TIP3    H238075   5.068   5.047  14.385  0.2517 -1.1287  1.6468
 5554TIP3   OH238076   0.197   0.777   5.380  0.7121 -0.0974 -0.5897
 5554TIP3    H138077   0.119   0.722   5.388  0.1363  0.8148  0.2800
 5554TIP3    H238078   0.237   0.774   5.467 -0.0014  1.8026 -0.1439
 5555TIP3   OH238079   4.718   4.328   3.667  0.5645  0.0949  0.3625
 5555TIP3    H138080   4.732   4.410   3.620 -3.2127  0.8852  0.2589
 5555TIP3    H238081   4.719   4.354   3.760 -2.2597  0.7600  0.3055
 5556TIP3   OH238082   6.238   1.878   2.124  0.2893 -1.3323  0.0404
 5556TIP3    H138083   6.254   1.908   2.213  1.2411 -1.4115 -0.0940
 5556TIP3    H238084   6.144   1.863   2.120  0.0834 -0.2580  0.6953
 5557TIP3   OH238085   1.093   3.863   0.655 -0.0332 -0.0185  0.0242
 5557TIP3    H138086   1.029   3.807   0.698 -0.0664  0.4247  0.5718
 5557TIP3    H238087   1.074   3.951   0.688  0.3416  0.2371 -0.4285
 5558TIP3   OH238088   6.556   3.858   3.593 -0.2686  0.2747 -0.6121
 5558TIP3    H138089   6.499   3.783   3.574 -0.5341  0.7498 -1.7741
 5558TIP3    H238090   6.560   3.861   3.689 -1.0382 -0.6330 -0.5327
 5559TIP3   OH238091   5.715   4.995  12.232 -0.6628  0.0768  0.1197
 5559TIP3    H138092   5.652   5.067  12.225 -1.0932 -0.3383 -0.3631
 5559TIP3    H238093   5.800   5.036  12.218 -0.9851  0.3452 -1.1557
 5560TIP3   OH238094   4.295   4.856  14.102 -0.1535  0.1303 -0.4314
 5560TIP3    H138095   4.273   4.790  14.167 -1.1445  1.0982  0.2599
 5560TIP3    H238096   4.247   4.934  14.129  0.8475  1.1045 -1.3059
 5561TIP3   OH238097   0.925   0.474   6.278 -0.3908 -0.4904 -0.2806
 5561TIP3    H138098   0.943   0.547   6.338  0.7583 -0.9630 -0.0347
 5561TIP3    H238099   0.833   0.452   6.294  0.1699 -1.3689  2.1708
 5562TIP3   OH238100   4.168   6.403  16.338  0.4574  0.2063 -0.1436
 5562TIP3    H138101   4.153   6.489  16.299 -0.6790  0.7078  1.3417
 5562TIP3    H238102   4.173   6.344  16.262 -0.2720  1.3478 -1.1265
 5563TIP3   OH238103   6.555   3.279  12.165  0.5136  0.5895 -0.2356
 5563TIP3    H138104   6.547   3.356  12.221  0.3523  0.4266 -0.0294
 5563TIP3    H238105   6.609   3.218  12.216 -1.6782 -0.5534  0.8777
 5564TIP3   OH238106   6.504   1.322   6.294  0.3889  1.0769 -0.2498
 5564TIP3    H138107   6.545   1.261   6.356 -0.2860  0.2779 -0.5715
 5564TIP3    H238108   6.453   1.381   6.349  0.8225  1.1895  0.0440
 5565TIP3   OH238109   1.390   1.835   1.099  0.1007 -0.7599  0.3759
 5565TIP3    H138110   1.440   1.755   1.084  0.9640 -0.3039  0.7457
 5565TIP3    H238111   1.453   1.896   1.137 -0.3888  0.2880 -0.4222
 5566TIP3   OH238112   5.667   0.800  16.263  0.0445 -0.7870 -0.6264
 5566TIP3    H138113   5.613   0.830  16.190 -2.1837 -3.1227 -0.0667
 5566TIP3    H238114   5.639   0.854  16.337 -1.0671 -1.5358 -0.4897
 5567TIP3   OH238115   0.737   3.030  12.155  0.2423  0.0887 -0.0243
 5567TIP3    H138116   0.788   3.013  12.076  0.0781 -0.6812  0.0311
 5567TIP3    H238117   0.796   3.083  12.210  1.0101 -0.8164  0.0532
 5568TIP3   OH238118   2.161   5.143  17.178 -0.3212  0.1480 -0.1827
 5568TIP3    H138119   2.249   5.132  17.142 -0.3926 -0.6989 -0.1229
 5568TIP3    H238120   2.103   5.129  17.104 -0.4129  0.7810 -0.2371
 5569TIP3   OH238121   5.793   5.937  12.284  0.3455 -0.1680  0.1705
 5569TIP3    H138122   5.809   5.910  12.194  2.4319  1.9220 -0.1711
 5569TIP3    H238123   5.697   5.940  12.291  0.1235 -0.1506 -2.0615
 5570TIP3   OH238124   3.042   4.813  13.835  0.6151 -0.0624  0.2106
 5570TIP3    H138125   3.041   4.882  13.769 -2.6778 -0.4731 -0.3425
 5570TIP3    H238126   3.074   4.736  13.788 -0.7091 -0.1029 -0.6805
 5571TIP3   OH238127   3.086   4.549   4.366  0.2749  0.5126 -0.4760
 5571TIP3    H138128   3.035   4.505   4.433 -0.7987  4.5682  1.7429
 5571TIP3    H238129   3.167   4.575   4.410  0.8752  0.7842 -1.6685
 5572TIP3   OH238130   0.752   0.244  11.894 -0.5402  0.1077 -0.5584
 5572TIP3    H138131   0.767   0.328  11.939 -0.4823  1.0037 -2.1770
 5572TIP3    H238132   0.834   0.226  11.849 -0.7988 -0.4511 -0.8079
 5573TIP3   OH238133   5.826   2.322   3.691 -0.0340  0.4822  0.2722
 5573TIP3    H138134   5.818   2.413   3.663  1.3416  0.9581  1.2674
 5573TIP3    H238135   5.851   2.274   3.612  1.2297  1.3308  0.1325
 5574TIP3   OH238136   1.921   0.849  15.197 -0.2263 -0.7229 -0.5479
 5574TIP3    H138137   1.850   0.904  15.164  0.3548  0.0183 -0.5749
 5574TIP3    H238138   1.986   0.910  15.230  0.9804 -1.3215 -1.6858
 5575TIP3   OH238139   4.285   4.806  16.048 -0.1384  0.2390 -0.2726
 5575TIP3    H138140   4.346   4.751  16.098  0.4030  2.7574  2.0015
 5575TIP3    H238141   4.332   4.822  15.965 -1.0090 -3.8838 -1.8506
 5576TIP3   OH238142   2.943   3.040   2.001  0.1224  0.0745 -0.3398
 5576TIP3    H138143   3.014   2.981   1.975  0.3623 -0.1483  0.7669
 5576TIP3    H238144   2.905   3.000   2.078 -1.4514  0.0351 -1.1038
 5577TIP3   OH238145   1.571   5.020   1.293  0.1128 -0.9657  0.1757
 5577TIP3    H138146   1.656   4.983   1.316 -0.2475 -1.4120  0.8393
 5577TIP3    H238147   1.543   4.970   1.216  1.0196  0.0721 -0.8744
 5578TIP3   OH238148   2.101   2.919  14.948 -0.0763  0.1882  0.0829
 5578TIP3    H138149   2.197   2.929  14.947 -0.2569  2.7280  0.3714
 5578TIP3    H238150   2.079   2.891  14.860  1.0010 -1.6461  0.3521
 5579TIP3   OH238151   4.690   1.226  10.731 -0.2415  0.2995 -0.1601
 5579TIP3    H138152   4.725   1.295  10.788 -0.0975 -0.8679  1.2056
 5579TIP3    H238153   4.712   1.255  10.643  3.3409  0.1345  0.5363
 5580TIP3   OH238154   2.078   2.726  14.278 -0.0543  0.6209  0.1167
 5580TIP3    H138155   1.983   2.726  14.290 -0.5065 -2.9835 -2.0880
 5580TIP3    H238156   2.111   2.666  14.345  0.4860  0.6828 -0.0902
 5581TIP3   OH238157   4.030   6.055   1.166 -0.7751 -0.1163 -0.2223
 5581TIP3    H138158   4.021   6.145   1.137 -1.0761 -0.2727 -0.6330
 5581TIP3    H238159   4.098   6.018   1.110 -0.8593 -0.2242 -0.2550
 5582TIP3   OH238160   5.590   5.077   2.880  0.0669  0.0675 -0.4999
 5582TIP3    H138161   5.501   5.104   2.855  0.0408  0.8520  0.3766
 5582TIP3    H238162   5.623   5.150   2.932  1.0542 -0.4304 -0.4094
 5583TIP3   OH238163   4.916   1.020  14.602 -0.3088 -0.5750 -0.4091
 5583TIP3    H138164   4.961   0.960  14.543  1.2822 -1.2977  1.4066
 5583TIP3    H238165   4.839   0.972  14.632 -0.0383 -1.0008 -0.3896
 5584TIP3   OH238166   1.393   4.331  16.240  0.4554 -0.3918 -0.3084
 5584TIP3    H138167   1.380   4.243  16.204 -0.5246 -0.6715  0.6750
 5584TIP3    H238168   1.486   4.349  16.224  0.3631 -1.0469 -1.7155
 5585TIP3   OH238169   2.200   5.092  11.426  0.6288 -0.2351  0.2236
 5585TIP3    H138170   2.151   5.161  11.381  0.9645 -0.1392  0.0025
 5585TIP3    H238171   2.222   5.029  11.356 -0.0428 -0.7836  0.4947
 5586TIP3   OH238172   1.460   0.959  16.352 -0.0558 -0.1350  0.7429
 5586TIP3    H138173   1.520   0.936  16.423  0.8783  1.1766  0.4276
 5586TIP3    H238174   1.422   1.043  16.378 -1.3767 -0.6856  0.6795
 5587TIP3   OH238175   1.252   3.483   6.313 -0.3453 -0.2606  0.1047
 5587TIP3    H138176   1.217   3.403   6.352  0.3250 -1.0239 -0.8113
 5587TIP3    H238177   1.223   3.553   6.372  0.5101 -1.3361  1.8973
 5588TIP3   OH238178   1.062   4.975   1.634  0.7340  0.1489  0.5470
 5588TIP3    H138179   1.133   4.911   1.634  2.1690  1.6618 -1.3910
 5588TIP3    H238180   1.070   5.020   1.718  1.0041 -0.8003  1.0404
 5589TIP3   OH238181   5.257   2.088   1.202 -0.4376  0.2644  0.4459
 5589TIP3    H138182   5.228   2.142   1.276 -1.0000 -0.1089  0.5080
 5589TIP3    H238183   5.199   2.012   1.204  0.2313 -0.2619  0.2541
 5590TIP3   OH238184   6.474   0.826  11.947  0.1945  0.0340 -0.0688
 5590TIP3    H138185   6.431   0.909  11.931  2.4332  1.0486 -1.3979
 5590TIP3    H238186   6.405   0.767  11.976 -1.7692  1.8614 -0.8430
 5591TIP3   OH238187   5.687   3.218  12.201  0.4174  0.9328 -0.0306
 5591TIP3    H138188   5.674   3.218  12.106  0.3388 -2.6096 -0.1380
 5591TIP3    H238189   5.604   3.185  12.236  1.1578  0.2454  1.1139
 5592TIP3   OH238190   5.394   6.047   2.464  0.0479  0.1560  0.8874
 5592TIP3    H138191   5.302   6.030   2.486 -0.1435  0.0039 -0.0036
 5592TIP3    H238192   5.438   6.051   2.549 -0.5533 -1.0753  1.2783
 5593TIP3   OH238193   1.596   6.699  12.064  0.6815 -0.1565  0.1238
 5593TIP3    H138194   1.562   6.784  12.090  2.3061  0.1465  1.4380
 5593TIP3    H238195   1.679   6.718  12.020 -0.0093 -0.9552 -1.6185
 5594TIP3   OH238196   6.122   4.050  16.061  0.5079 -0.5716 -0.2713
 5594TIP3    H138197   6.151   4.027  15.973  0.7022 -2.1527  0.1730
 5594TIP3    H238198   6.044   3.997  16.075 -0.1649  0.4961  0.1103
 5595TIP3   OH238199   4.959   3.055  12.171  0.0745 -0.3606 -0.0946
 5595TIP3    H138200   4.909   2.975  12.186  0.0282 -0.4328 -0.6054
 5595TIP3    H238201   5.005   3.039  12.088  2.2059 -0.9448  1.1416
 5596TIP3   OH238202   0.002   1.850  12.364  0.0087 -0.2225 -0.1900
 5596TIP3    H138203  -0.009   1.783  12.296  2.2967 -1.1263  0.2409
 5596TIP3    H238204  -0.083   1.852  12.409 -0.3373 -2.4432 -0.5973
 5597TIP3   OH238205   2.619   6.155   2.457  0.3796  0.1874 -0.1368
 5597TIP3    H138206   2.529   6.128   2.443  0.2906 -0.9640  2.1119
 5597TIP3    H238207   2.615   6.213   2.533  1.6931 -1.6174  1.4230
 5598TIP3   OH238208   3.948   0.735   4.100 -0.3321  0.1972  0.2391
 5598TIP3    H138209   4.043   0.745   4.102 -0.3157 -0.0020  0.8867
 5598TIP3    H238210   3.933   0.657   4.047 -0.1676  0.5554 -0.3383
 5599TIP3   OH238211   4.104   5.331  13.869  0.3761  0.1785  0.2216
 5599TIP3    H138212   4.114   5.412  13.819 -0.7381  0.5766  0.6203
 5599TIP3    H238213   4.167   5.338  13.940  1.8027 -0.2773 -0.9392
 5600TIP3   OH238214   1.333   1.848   0.411 -0.1904  0.4078  0.5197
 5600TIP3    H138215   1.361   1.877   0.324  0.3334  0.4678  0.7023
 5600TIP3    H238216   1.265   1.910   0.437  1.3372  1.8877  1.1633
 5601TIP3   OH238217   5.252   0.660  13.242  0.3765  0.0285 -0.5135
 5601TIP3    H138218   5.170   0.690  13.201 -0.7131 -1.9306  0.1176
 5601TIP3    H238219   5.317   0.667  13.173 -0.3381  1.4751 -1.0897
 5602TIP3   OH238220   5.407   3.797  14.711 -0.0071  0.1482  0.2199
 5602TIP3    H138221   5.441   3.828  14.795 -1.4212  0.2242  0.7941
 5602TIP3    H238222   5.312   3.798  14.722 -0.1898 -1.0556 -0.9505
 5603TIP3   OH238223   6.281   0.563  14.128 -0.5600  0.3155 -0.0981
 5603TIP3    H138224   6.265   0.553  14.222  0.5158 -1.8835 -0.0708
 5603TIP3    H238225   6.222   0.499  14.087 -0.0472  0.2859 -0.8044
 5604TIP3   OH238226   5.709   2.491  15.223 -0.3719 -0.3699 -0.4630
 5604TIP3    H138227   5.762   2.532  15.154  0.5419 -1.2854 -0.3459
 5604TIP3    H238228   5.623   2.479  15.183 -0.9061  2.2397 -0.2644
 5605TIP3   OH238229   2.805   6.008   1.448  0.0205  0.2339 -0.7927
 5605TIP3    H138230   2.783   6.041   1.536  1.2878  0.8843 -0.6875
 5605TIP3    H238231   2.722   5.977   1.412 -0.4977 -0.2146  0.7044
 5606TIP3   OH238232   4.994   1.636  14.957  0.7559 -0.3151 -0.0909
 5606TIP3    H138233   4.994   1.670  14.868  0.9646 -0.2540 -0.0685
 5606TIP3    H238234   5.032   1.549  14.950 -1.8099 -1.4808 -0.4955
 5607TIP3   OH238235   5.986   0.947  12.857 -0.7692  1.0473 -0.7993
 5607TIP3    H138236   5.927   0.993  12.797 -0.3689  3.2295  0.3719
 5607TIP3    H238237   5.940   0.948  12.941 -0.1426  0.4939 -0.4449
 5608TIP3   OH238238   5.485   5.308   1.561  0.3474 -0.3456 -0.2477
 5608TIP3    H138239   5.559   5.304   1.499  0.5335 -0.2087 -0.0367
 5608TIP3    H238240   5.410   5.277   1.510  0.8549 -2.1230  0.0367
 5609TIP3   OH238241   3.770   3.617  14.400  0.1142  0.0780 -0.3561
 5609TIP3    H138242   3.677   3.599  14.409 -0.2317  1.4753 -0.8815
 5609TIP3    H238243   3.776   3.712  14.395  1.8706  0.3263  3.2226
 5610TIP3   OH238244   5.581   3.880   1.844 -0.0305  0.2204 -0.1588
 5610TIP3    H138245   5.577   3.917   1.932 -3.0223  0.4525 -0.2847
 5610TIP3    H238246   5.592   3.786   1.857  2.2143  0.5101  0.3248
 5611TIP3   OH238247   3.750   2.176  13.550  0.2396 -0.2906  0.6152
 5611TIP3    H138248   3.813   2.130  13.604  1.7524  1.5053  0.4992
 5611TIP3    H238249   3.722   2.112  13.484  3.4976 -0.6601 -0.5865
 5612TIP3   OH238250   2.931   5.277  13.504  0.0288  0.0631 -0.0404
 5612TIP3    H138251   2.842   5.311  13.516 -0.4065 -1.1746  0.4850
 5612TIP3    H238252   2.922   5.214  13.432  0.6445  0.4465 -0.4598
 5613TIP3   OH238253   1.715   4.902  13.997 -0.5314  0.2658 -0.0627
 5613TIP3    H138254   1.621   4.914  14.013 -0.4781 -0.0201  0.5073
 5613TIP3    H238255   1.735   4.961  13.924 -2.1080 -3.1129 -3.5477
 5614TIP3   OH238256   4.726   0.686  16.448  0.3231  0.0366  0.5510
 5614TIP3    H138257   4.680   0.687  16.532 -1.7782  0.7600 -0.5591
 5614TIP3    H238258   4.724   0.777  16.418  0.9738 -0.2275 -0.3336
 5615TIP3   OH238259   0.051   6.620   4.962 -0.2754 -0.3745  0.1743
 5615TIP3    H138260  -0.004   6.563   5.016  1.3060 -1.3571  0.8287
 5615TIP3    H238261   0.133   6.571   4.952  0.5791  1.1477 -0.5356
 5616TIP3   OH238262   3.216   0.631  15.593  0.3462  0.0967  0.7660
 5616TIP3    H138263   3.259   0.679  15.523  1.4185 -1.7914  0.0513
 5616TIP3    H238264   3.128   0.667  15.596  0.2875  0.3089 -1.5085
 5617TIP3   OH238265   2.438   6.334   0.595  0.5096  0.3573 -0.0406
 5617TIP3    H138266   2.402   6.310   0.510 -0.5360 -0.9709  0.7412
 5617TIP3    H238267   2.477   6.253   0.628  1.3130  0.9707  0.5563
 5618TIP3   OH238268   1.071   6.071   4.961 -0.7284  0.0633 -0.0709
 5618TIP3    H138269   1.072   6.147   5.019 -1.4771  0.6543 -0.8085
 5618TIP3    H238270   1.149   6.081   4.906  0.3263 -0.8258  1.2169
 5619TIP3   OH238271   2.519   5.459   0.383  0.1875  0.5426 -0.4865
 5619TIP3    H138272   2.439   5.470   0.332  0.9183  0.8542 -1.5936
 5619TIP3    H238273   2.565   5.386   0.341  1.1471  1.2801 -0.7422
 5620TIP3   OH238274   0.025   4.932  17.105  0.5179 -0.1738 -0.7860
 5620TIP3    H138275  -0.004   4.853  17.151  0.7113 -0.0610 -0.4696
 5620TIP3    H238276   0.069   4.900  17.026  1.1961 -0.4025 -0.3175
 5621TIP3   OH238277   0.019   1.674  13.235 -0.2938  0.8867  0.4713
 5621TIP3    H138278  -0.031   1.682  13.154  0.6430  0.4629 -0.1643
 5621TIP3    H238279   0.034   1.764  13.263  0.1792  1.0734 -0.3417
 5622TIP3   OH238280   4.170   1.581  16.507  0.0820 -0.5375 -0.2179
 5622TIP3    H138281   4.105   1.644  16.539 -1.1143 -2.1720  0.7478
 5622TIP3    H238282   4.254   1.621  16.527 -0.6426  0.5022  0.9009
 5623TIP3   OH238283   3.357   5.437   0.438 -0.4430 -0.1004 -0.4827
 5623TIP3    H138284   3.396   5.486   0.365 -0.1196 -2.4309 -1.9827
 5623TIP3    H238285   3.265   5.464   0.438 -0.6942 -0.7665 -2.4734
 5624TIP3   OH238286   0.527   0.816  15.169  0.4150 -0.0856  0.7597
 5624TIP3    H138287   0.515   0.729  15.206 -0.1906 -0.3072  0.0632
 5624TIP3    H238288   0.482   0.875  15.230  0.9910 -0.2323  1.3308
 5625TIP3   OH238289   0.551   5.970   3.444  0.1958  0.3625 -0.1622
 5625TIP3    H138290   0.487   5.991   3.375 -1.2755 -1.2465  0.6386
 5625TIP3    H238291   0.618   6.037   3.435 -0.3461  0.6852 -2.6471
 5626TIP3   OH238292   3.188   2.935  13.933 -0.4994  0.6526  0.0835
 5626TIP3    H138293   3.167   2.889  13.852  0.1577  0.9341 -0.2558
 5626TIP3    H238294   3.179   2.869  14.002 -0.0485  0.1373 -0.3383
 5627TIP3   OH238295   1.140   5.389   4.930  0.2722  0.6262  0.4561
 5627TIP3    H138296   1.077   5.458   4.946  0.1803  0.7450 -0.3429
 5627TIP3    H238297   1.101   5.336   4.860  0.6869  0.2239  0.5187
 5628TIP3   OH238298   0.971   0.431  11.880  0.5046  0.4719 -0.5808
 5628TIP3    H138299   1.017   0.515  11.880  0.5157  0.4658 -0.2351
 5628TIP3    H238300   0.900   0.442  11.942 -0.1437  0.5737 -1.3263
 5629TIP3   OH238301   0.037   6.465  16.006 -0.4113 -0.4973 -0.3021
 5629TIP3    H138302   0.018   6.497  16.094  2.4214  1.6753 -0.3107
 5629TIP3    H238303  -0.019   6.518  15.949  1.1904  1.6630 -0.0108
 5630TIP3   OH238304   4.827   6.268   0.377  0.2691  0.3550 -0.0287
 5630TIP3    H138305   4.798   6.291   0.466  0.0445  1.7767 -0.4347
 5630TIP3    H238306   4.888   6.196   0.390  1.6210  1.6775  1.4736
 5631TIP3   OH238307   3.594   0.800  14.235 -0.0771  0.1354  0.0439
 5631TIP3    H138308   3.622   0.856  14.307 -1.2220  2.0200 -0.9001
 5631TIP3    H238309   3.501   0.782  14.254 -0.4604  0.8603 -1.0475
 5632TIP3   OH238310   1.902   2.452   2.885  0.2532 -0.3330 -0.3116
 5632TIP3    H138311   1.954   2.439   2.805  0.7131 -0.8885  0.0682
 5632TIP3    H238312   1.832   2.512   2.859  0.5401 -0.3190 -1.0711
 5633TIP3   OH238313   3.171   5.686   4.651  0.1567  0.5886 -0.1761
 5633TIP3    H138314   3.155   5.748   4.722  0.9125  1.8517 -1.0602
 5633TIP3    H238315   3.232   5.622   4.689 -0.4178  0.5308  0.6704
 5634TIP3   OH238316   3.945   5.303   0.189  0.2242  0.1039  0.4826
 5634TIP3    H138317   3.874   5.310   0.125 -0.0845 -0.6537  0.7243
 5634TIP3    H238318   3.942   5.211   0.217  0.5138  0.3653  1.3956
 5635TIP3   OH238319   2.206   5.503   6.083 -0.6213 -0.0865 -0.2347
 5635TIP3    H138320   2.162   5.557   6.017  0.9092  0.7191 -0.6542
 5635TIP3    H238321   2.256   5.439   6.033 -0.9305 -0.6841  0.2124
 5636TIP3   OH238322   4.998   5.856   1.009  0.0042  0.6021 -0.6076
 5636TIP3    H138323   4.940   5.830   1.081 -0.2118 -0.5530 -1.1670
 5636TIP3    H238324   4.984   5.788   0.943  2.1820  0.1385 -0.6528
 5637TIP3   OH238325   1.115   6.635  11.650 -0.4076  0.3856  0.4729
 5637TIP3    H138326   1.164   6.713  11.673 -0.2458  0.1000  1.1468
 5637TIP3    H238327   1.105   6.588  11.733 -0.3931 -0.3656  0.0641
 5638TIP3   OH238328   1.784   5.469  12.531 -0.4397  0.1588  0.0441
 5638TIP3    H138329   1.783   5.565  12.525 -0.6001  0.2886  1.7469
 5638TIP3    H238330   1.873   5.444  12.507 -0.1103  0.8252  0.5324
 5639TIP3   OH238331   6.320   0.085   0.877  0.1812 -0.0492 -0.5424
 5639TIP3    H138332   6.339   0.029   0.953 -0.9682 -0.3188 -0.4352
 5639TIP3    H238333   6.398   0.139   0.867  0.2074  0.2418  1.0514
 5640TIP3   OH238334   2.390   2.345  13.434  0.4836 -0.1796 -0.3325
 5640TIP3    H138335   2.382   2.399  13.355  0.4661 -0.5378 -0.5784
 5640TIP3    H238336   2.381   2.407  13.506  0.5824  0.1659 -0.6117
 5641TIP3   OH238337   1.279   1.078   4.726  0.1306  0.0723  0.0580
 5641TIP3    H138338   1.213   1.144   4.705 -0.3889 -0.7046 -0.8483
 5641TIP3    H238339   1.361   1.127   4.730 -0.3495  0.8929  0.1820
 5642TIP3   OH238340   0.161   2.262  16.769 -0.0282 -0.6397 -0.1460
 5642TIP3    H138341   0.090   2.324  16.753  0.6997  0.3714  0.4091
 5642TIP3    H238342   0.180   2.224  16.683  1.4168  2.0425 -1.1282
 5643TIP3   OH238343   5.611   2.855  14.764  0.1306 -0.7160 -0.0947
 5643TIP3    H138344   5.542   2.812  14.815 -0.4976 -0.2948 -0.5769
 5643TIP3    H238345   5.592   2.949  14.771 -0.1923 -0.6626 -1.4048
 5644TIP3   OH238346   6.025   1.960  13.987  0.1130  0.0322  0.4549
 5644TIP3    H138347   5.968   2.010  14.045 -0.6616 -0.7611  0.4093
 5644TIP3    H238348   6.041   2.018  13.913 -0.9387  0.1613  0.3018
 5645TIP3   OH238349   3.591   3.075   4.348  0.4918 -0.3410 -0.3040
 5645TIP3    H138350   3.531   3.069   4.274 -2.0989  0.1776  1.6004
 5645TIP3    H238351   3.607   3.169   4.358 -0.9192 -0.1829  0.9764
 5646TIP3   OH238352   5.672   6.334   1.718 -0.0754 -0.3626  0.4336
 5646TIP3    H138353   5.657   6.337   1.623 -1.2480  0.0682  0.6168
 5646TIP3    H238354   5.730   6.408   1.735 -2.7435  1.8900  0.4875
 5647TIP3   OH238355   4.195   5.302  12.846  0.0921  0.4175 -0.0400
 5647TIP3    H138356   4.290   5.313  12.849  0.2496  0.3215 -2.5158
 5647TIP3    H238357   4.183   5.215  12.806 -1.0397  0.4406  0.2306
 5648TIP3   OH238358   6.458   2.582  13.276 -0.1535  0.2081  0.3335
 5648TIP3    H138359   6.512   2.504  13.285 -0.9320 -0.1457  2.2255
 5648TIP3    H238360   6.494   2.644  13.341 -0.6896  0.7508  0.1240
 5649TIP3   OH238361   0.251   3.715   0.744 -0.5180  0.1158  0.5089
 5649TIP3    H138362   0.207   3.630   0.741  0.0177 -0.1440 -1.0935
 5649TIP3    H238363   0.197   3.772   0.688  0.0017  0.3900  0.2836
 5650TIP3   OH238364   1.344   5.101   3.561 -0.2621 -0.0918  0.0075
 5650TIP3    H138365   1.347   5.196   3.574 -0.9365 -0.1211  0.4661
 5650TIP3    H238366   1.400   5.085   3.485  0.7375  0.5430  0.5858
 5651TIP3   OH238367   6.488   5.821  13.376  0.4150 -0.2498  0.5279
 5651TIP3    H138368   6.554   5.801  13.310  0.7133 -0.0385  0.7551
 5651TIP3    H238369   6.539   5.848  13.453  0.0945 -0.9285  0.9947
 5652TIP3   OH238370   2.323   2.983   4.662  0.4157 -0.2247 -1.1061
 5652TIP3    H138371   2.376   2.904   4.675  1.5656  0.3640 -2.0332
 5652TIP3    H238372   2.341   3.009   4.572  1.4979  2.1231 -0.2772
 5653TIP3   OH238373   1.129   1.880  11.279  0.0605 -0.3352  0.0013
 5653TIP3    H138374   1.096   1.854  11.193 -0.6058  0.7416 -0.0910
 5653TIP3    H238375   1.214   1.920  11.261  0.3892 -1.0367 -0.0297
 5654TIP3   OH238376   2.991   5.623  16.945  0.2692 -0.0172  0.0734
 5654TIP3    H138377   2.952   5.609  16.859 -1.4198  1.2601  0.5803
 5654TIP3    H238378   2.947   5.560  17.002  0.5888 -0.1030  0.2314
 5655TIP3   OH238379   6.230   0.040  13.322  0.5046  0.5051  0.1152
 5655TIP3    H138380   6.288  -0.030  13.353 -2.2552 -2.5629 -1.0025
 5655TIP3    H238381   6.240   0.039  13.227  0.4685  1.7338  0.0896
 5656TIP3   OH238382   3.751   5.651  16.562  0.1884 -0.5200 -0.2268
 5656TIP3    H138383   3.752   5.703  16.482 -1.8134 -3.0289 -2.0487
 5656TIP3    H238384   3.744   5.715  16.633  0.2667  1.7290 -2.1352
 5657TIP3   OH238385   2.970   0.353   5.235 -0.1778  0.7931 -0.0378
 5657TIP3    H138386   2.957   0.348   5.329  0.2587 -0.3006 -0.0234
 5657TIP3    H238387   3.043   0.294   5.217  0.4978  1.8587 -0.9266
 5658TIP3   OH238388   1.250   0.168   2.170  0.0834 -0.3578 -0.1660
 5658TIP3    H138389   1.198   0.227   2.224 -0.1302 -1.9712  1.4999
 5658TIP3    H238390   1.186   0.126   2.112  0.2891  1.2448 -1.6453
 5659TIP3   OH238391   4.600   2.808   4.292  0.0127 -0.1104 -0.7408
 5659TIP3    H138392   4.608   2.738   4.227  0.5649  0.1594 -0.9698
 5659TIP3    H238393   4.583   2.887   4.240  0.0217  0.0358 -0.5246
 5660TIP3   OH238394   0.042   0.161   1.367 -0.1908  0.0860  0.5212
 5660TIP3    H138395   0.105   0.232   1.361  0.7184 -0.7014  0.5497
 5660TIP3    H238396  -0.042   0.202   1.349  0.2893  1.2048  0.7642
 5661TIP3   OH238397   2.311   4.445   2.595 -0.2338  0.5180  0.1328
 5661TIP3    H138398   2.265   4.497   2.661  1.1225  0.1676  1.4065
 5661TIP3    H238399   2.363   4.508   2.545 -0.3130  0.6456  0.2139
 5662TIP3   OH238400   1.631   0.542  16.789  0.1720 -0.0005  0.0310
 5662TIP3    H138401   1.693   0.615  16.785  0.2782  0.0484  1.9676
 5662TIP3    H238402   1.576   0.559  16.865 -1.4622 -0.6822 -0.9234
 5663TIP3   OH238403   6.098   2.372   1.328  0.3149 -0.6616 -0.3118
 5663TIP3    H138404   6.024   2.347   1.383  0.3514  0.4950  0.2846
 5663TIP3    H238405   6.174   2.365   1.385  0.4754 -0.3873 -0.4868
 5664TIP3   OH238406   4.376   1.082  15.053  0.0585  0.0566 -0.0692
 5664TIP3    H138407   4.402   1.000  15.094 -0.5515 -0.2117 -0.2113
 5664TIP3    H238408   4.459   1.122  15.026  0.5264  0.5346  1.9342
 5665TIP3   OH238409   3.983   4.807   3.846 -0.1660  0.0228 -0.0441
 5665TIP3    H138410   4.053   4.782   3.784  0.3066  0.8750  0.1329
 5665TIP3    H238411   4.030   4.849   3.918 -0.8905  0.8820 -0.0656
 5666TIP3   OH238412   4.780   2.294  13.655 -0.5765  0.0623 -0.4482
 5666TIP3    H138413   4.771   2.359  13.724  1.3163 -0.0349 -0.0543
 5666TIP3    H238414   4.692   2.284  13.619 -1.5491  0.3218  1.7449
 5667TIP3   OH238415   0.431   4.948  11.108  0.4735 -0.1382 -0.5543
 5667TIP3    H138416   0.398   5.036  11.087  0.4311  0.3084  1.1857
 5667TIP3    H238417   0.522   4.962  11.132 -0.3708  0.0899  3.1188
 5668TIP3   OH238418   3.837   5.042   0.285 -0.6829 -0.0230  0.1461
 5668TIP3    H138419   3.797   5.110   0.339 -1.8171 -1.1696  0.8021
 5668TIP3    H238420   3.796   4.961   0.314  1.6523 -1.2084  0.3998
 5669TIP3   OH238421   1.432   1.884  14.084 -0.1939 -0.1882 -0.5508
 5669TIP3    H138422   1.471   1.834  14.012 -0.9953  0.6472 -1.5865
 5669TIP3    H238423   1.507   1.920  14.131  0.3368 -0.5078 -1.1320
 5670TIP3   OH238424   3.334   5.447  12.862  0.3187 -0.2169 -0.4000
 5670TIP3    H138425   3.240   5.460  12.875  0.2781 -0.7262 -0.1353
 5670TIP3    H238426   3.367   5.421  12.948  0.8985  1.0102 -0.2253
 5671TIP3   OH238427   3.572   2.613   5.001  0.0043  0.0066 -0.6966
 5671TIP3    H138428   3.501   2.567   4.955  1.7405 -0.7186 -2.8098
 5671TIP3    H238429   3.548   2.705   4.995 -0.9267 -0.2431 -1.0751
 5672TIP3   OH238430   4.502   4.544  11.377 -0.7373  0.4302  0.1466
 5672TIP3    H138431   4.591   4.511  11.382 -1.0060 -0.1589  2.1019
 5672TIP3    H238432   4.447   4.465  11.377 -1.2828  0.7711  1.2881
 5673TIP3   OH238433   3.054   0.924   1.060  0.3331 -0.5112  0.4937
 5673TIP3    H138434   2.984   0.866   1.090  1.7895 -2.4241  0.4538
 5673TIP3    H238435   3.053   0.997   1.121 -3.3613  0.9717 -1.0441
 5674TIP3   OH238436   1.473   3.795  10.966 -0.0933  0.5628 -0.7565
 5674TIP3    H138437   1.454   3.702  10.975  1.8964  0.0876 -0.9520
 5674TIP3    H238438   1.494   3.807  10.874  0.1120  1.1019 -0.6444
 5675TIP3   OH238439   1.169   0.709  13.614  0.6739 -0.2679  0.1945
 5675TIP3    H138440   1.199   0.719  13.524 -0.2813 -1.4690 -0.2858
 5675TIP3    H238441   1.095   0.769  13.622 -0.2447 -1.2999 -0.3324
 5676TIP3   OH238442   3.106   6.629   5.386  0.2663  0.1677  0.1144
 5676TIP3    H138443   3.125   6.608   5.477 -0.8738  2.0632  0.8530
 5676TIP3    H238444   3.060   6.552   5.352  0.7841 -0.5886  1.0821
 5677TIP3   OH238445   5.883   1.382  12.793  0.5221 -0.2286 -0.1186
 5677TIP3    H138446   5.931   1.358  12.873  3.8819  0.3106 -1.8080
 5677TIP3    H238447   5.890   1.478  12.790 -0.0401 -0.2086 -0.7839
 5678TIP3   OH238448   5.923   4.890  17.114  0.0778  0.0747 -0.0641
 5678TIP3    H138449   5.989   4.821  17.125 -1.1339 -1.3252 -1.1351
 5678TIP3    H238450   5.839   4.843  17.113 -0.7376  1.4562 -1.6151
 5679TIP3   OH238451   1.093   3.765   6.272  0.0114 -0.1492  0.0763
 5679TIP3    H138452   1.187   3.755   6.285  0.0584 -2.2759 -1.3494
 5679TIP3    H238453   1.063   3.815   6.347  1.9880 -1.1703  1.6290
 5680TIP3   OH238454   2.207   5.224  16.021  0.7395 -0.2322  0.0413
 5680TIP3    H138455   2.225   5.212  15.928 -0.3235  2.9965 -0.6983
 5680TIP3    H238456   2.289   5.256  16.057  0.4900  0.9279 -0.3674
 5681TIP3   OH238457   1.439   3.472  10.683 -1.3334  0.0114 -0.2849
 5681TIP3    H138458   1.497   3.413  10.636 -0.6627 -0.5559  1.1961
 5681TIP3    H238459   1.479   3.559  10.672 -0.5121 -0.2938  0.2371
 5682TIP3   OH238460   5.828   0.186  15.501  0.3955 -0.6906  0.1836
 5682TIP3    H138461   5.799   0.189  15.592  0.0783  0.9982  0.0486
 5682TIP3    H238462   5.923   0.199  15.506  0.2134  0.8156  0.2215
 5683TIP3   OH238463   6.488   0.821  12.912 -0.0283  0.0608 -0.3132
 5683TIP3    H138464   6.405   0.869  12.914 -0.5114 -0.7698  0.1933
 5683TIP3    H238465   6.477   0.753  12.979  0.1696 -1.5138 -1.8183
 5684TIP3   OH238466   1.519   2.578  16.579 -0.4110  0.1827  0.0646
 5684TIP3    H138467   1.585   2.509  16.572 -1.2815 -0.5535 -1.2411
 5684TIP3    H238468   1.570   2.659  16.579  0.6462 -0.4004  1.8663
 5685TIP3   OH238469   0.585   4.463   3.947 -0.2036 -0.0767  0.8063
 5685TIP3    H138470   0.526   4.529   3.983 -0.4354  0.4107 -0.4210
 5685TIP3    H238471   0.568   4.464   3.853  1.2467 -0.4296  0.5068
 5686TIP3   OH238472   5.380   0.830   0.425 -0.8196 -0.8497 -0.1429
 5686TIP3    H138473   5.320   0.799   0.357 -1.5267  0.0850  0.0310
 5686TIP3    H238474   5.326   0.887   0.480 -0.0568 -0.9623  0.7325
 5687TIP3   OH238475   0.656   1.851   1.825  0.4781 -0.3022 -0.8862
 5687TIP3    H138476   0.662   1.843   1.730 -2.1140 -2.6210 -0.9732
 5687TIP3    H238477   0.688   1.768   1.859 -0.7729 -0.4190  0.1005
 5688TIP3   OH238478   5.145   5.180  15.338  0.5301  0.4186  0.2546
 5688TIP3    H138479   5.172   5.110  15.397  1.4344  0.1994 -0.4054
 5688TIP3    H238480   5.096   5.135  15.268  2.2511  0.2393 -0.8865
 5689TIP3   OH238481   4.024   6.094   0.796  0.3743 -0.1905 -0.0498
 5689TIP3    H138482   4.015   6.186   0.774 -0.4136  0.4236  2.4580
 5689TIP3    H238483   3.950   6.051   0.753  0.5188  0.4037 -0.9037
 5690TIP3   OH238484   0.383   5.847  12.064 -0.0489  0.0495 -0.1914
 5690TIP3    H138485   0.313   5.786  12.088 -0.3918  0.8228  0.8212
 5690TIP3    H238486   0.431   5.862  12.145  0.1870  0.9341 -0.4845
 5691TIP3   OH238487   1.161   0.709   3.637  0.1497 -0.1030 -0.2384
 5691TIP3    H138488   1.108   0.643   3.592  1.6025 -0.5308 -1.4198
 5691TIP3    H238489   1.177   0.672   3.724 -2.0164  0.3605  0.4315
 5692TIP3   OH238490   5.531   4.868  15.444 -0.1697 -0.4996 -0.2297
 5692TIP3    H138491   5.566   4.788  15.484  0.4435  0.2399  0.7505
 5692TIP3    H238492   5.528   4.848  15.350 -0.5699 -1.8736  0.0470
 5693TIP3   OH238493   5.496   6.499  14.815 -0.8415  0.5715  0.4434
 5693TIP3    H138494   5.573   6.519  14.762 -1.3207 -1.4123 -1.0818
 5693TIP3    H238495   5.531   6.472  14.900  0.2474 -1.4736 -0.6088
 5694TIP3   OH238496   3.866   3.786   1.815  0.2038  0.8734  0.6101
 5694TIP3    H138497   3.800   3.823   1.874 -0.2786  1.1756 -0.0918
 5694TIP3    H238498   3.917   3.727   1.869 -0.3093  1.0464  1.2965
 5695TIP3   OH238499   6.567   6.761  13.631  0.1620 -0.0552 -0.0209
 5695TIP3    H138500   6.595   6.809  13.709 -0.4405 -2.3428  1.7439
 5695TIP3    H238501   6.590   6.818  13.558 -0.0793  2.6295  1.8423
 5696TIP3   OH238502   3.152   4.041   3.758  0.3043  0.0039 -0.0616
 5696TIP3    H138503   3.206   3.967   3.731  0.5959 -0.7931  2.4019
 5696TIP3    H238504   3.125   4.083   3.677  2.8986 -0.8160 -1.4404
 5697TIP3   OH238505   6.069   0.415  17.206  0.5183  0.4329  0.2504
 5697TIP3    H138506   6.143   0.385  17.259 -0.9248 -1.8930  1.0579
 5697TIP3    H238507   6.069   0.510  17.219  1.1465  0.1448  3.2568
 5698TIP3   OH238508   4.104   5.689  12.368  0.4315 -0.0582  0.1586
 5698TIP3    H138509   4.123   5.738  12.448  0.9163  0.4070 -0.2411
 5698TIP3    H238510   4.024   5.728  12.334 -0.0352 -0.5600  0.6558
 5699TIP3   OH238511   2.937   5.813   4.809 -0.0282  0.1545 -0.2387
 5699TIP3    H138512   2.883   5.782   4.736  0.2882 -1.4081  0.1344
 5699TIP3    H238513   2.911   5.904   4.822  0.5354  0.7613 -2.8518
 5700TIP3   OH238514   1.525   1.073  12.454  0.3703  0.5415 -0.0014
 5700TIP3    H138515   1.516   0.983  12.425  0.5334  0.2680  0.7734
 5700TIP3    H238516   1.610   1.077  12.498  0.5163  1.1560 -0.3206
 5701TIP3   OH238517   0.675   3.667  13.098  0.3163  0.2171 -0.2756
 5701TIP3    H138518   0.717   3.734  13.045  0.1454  1.3195  0.9332
 5701TIP3    H238519   0.746   3.628  13.149  0.1937  0.6609  0.2522
 5702TIP3   OH238520   6.556   1.610   1.290 -0.5755  0.1895 -0.0969
 5702TIP3    H138521   6.486   1.663   1.253  1.0402  2.0229 -0.6945
 5702TIP3    H238522   6.634   1.666   1.287  0.5242 -1.0105  2.4183
 5703TIP3   OH238523   3.327   3.863   4.233  0.0977 -0.1255  0.3703
 5703TIP3    H138524   3.284   3.797   4.179 -0.7845 -1.5641  2.6864
 5703TIP3    H238525   3.419   3.859   4.206 -0.5870  0.7546 -2.4334
 5704TIP3   OH238526   2.946   0.062  11.426  0.4154  0.1805  0.1043
 5704TIP3    H138527   2.937   0.123  11.499 -0.9171  0.5682 -0.3526
 5704TIP3    H238528   2.926   0.114  11.349 -0.1449 -0.6822 -0.3471
 5705TIP3   OH238529   2.503   0.345   2.956  0.5874  0.2080  0.0001
 5705TIP3    H138530   2.441   0.418   2.954 -1.2877 -1.2571  1.2766
 5705TIP3    H238531   2.488   0.299   2.874 -2.4910 -1.9626  1.5990
 5706TIP3   OH238532   2.349   3.032   2.567 -0.8998 -0.0204  0.2680
 5706TIP3    H138533   2.432   3.070   2.596 -1.5708  0.9832  0.9593
 5706TIP3    H238534   2.291   3.107   2.558 -1.5433 -0.6432 -0.8833
 5707TIP3   OH238535   4.333   2.513  16.325  0.9254 -0.1919  1.0409
 5707TIP3    H138536   4.341   2.567  16.403  1.4403 -0.2429  1.0282
 5707TIP3    H238537   4.249   2.539  16.286  1.2742  0.7871  0.8960
 5708TIP3   OH238538   5.888   3.927  12.416 -0.4961 -0.2405 -0.3344
 5708TIP3    H138539   5.870   3.871  12.492 -1.0268  1.9050  1.2045
 5708TIP3    H238540   5.824   3.998  12.423  2.8148  2.9240  0.2931
 5709TIP3   OH238541   4.268   1.528   5.292  0.0131  0.6993 -0.2040
 5709TIP3    H138542   4.300   1.552   5.205 -1.7678  0.7426 -0.8711
 5709TIP3    H238543   4.197   1.589   5.310  0.6560  1.0138  1.5284
 5710TIP3   OH238544   2.502   5.831   0.814  0.1045  0.5065  0.3170
 5710TIP3    H138545   2.427   5.798   0.765 -0.5133 -0.4145  1.8056
 5710TIP3    H238546   2.577   5.814   0.757 -0.8318  2.0221 -1.4635
 5711TIP3   OH238547   0.862   5.671  11.722 -0.1255 -0.1835 -0.1806
 5711TIP3    H138548   0.839   5.660  11.630 -0.8828  2.4214 -0.3998
 5711TIP3    H238549   0.883   5.583  11.753  0.2083 -1.1191 -2.8331
 5712TIP3   OH238550   0.584   2.669  11.564 -0.8584 -0.4057  0.0523
 5712TIP3    H138551   0.525   2.727  11.612  0.0122 -1.0449  1.9754
 5712TIP3    H238552   0.666   2.718  11.557 -0.6478 -0.7365  0.1867
 5713TIP3   OH238553   0.692   5.445   3.371 -0.1409  0.2258  0.4480
 5713TIP3    H138554   0.635   5.421   3.444 -0.6486  1.2086  0.3797
 5713TIP3    H238555   0.698   5.540   3.375  1.0412  0.1833  0.1056
 5714TIP3   OH238556   3.613   0.940   4.823  0.2223 -0.4189 -0.0968
 5714TIP3    H138557   3.691   0.931   4.769 -0.2623 -1.1123 -0.6956
 5714TIP3    H238558   3.638   0.903   4.908  0.2675 -1.5390 -0.5738
 5715TIP3   OH238559   3.465   3.086   1.379  0.3571 -0.4432 -0.4935
 5715TIP3    H138560   3.487   3.168   1.335  1.4420 -0.1626  0.4913
 5715TIP3    H238561   3.437   3.113   1.467  1.0971 -1.1332 -0.0276
 5716TIP3   OH238562   4.095   0.931  14.081  0.3036  0.3587 -0.3139
 5716TIP3    H138563   4.017   0.975  14.114 -0.2585 -1.4027  0.8590
 5716TIP3    H238564   4.065   0.882  14.004  0.6106  0.9015 -0.7849
 5717TIP3   OH238565   5.323   4.870  14.261  0.1848  0.1008 -0.2763
 5717TIP3    H138566   5.326   4.861  14.166 -0.1164 -1.2846 -0.1642
 5717TIP3    H238567   5.230   4.878  14.282  0.0187 -2.2680  0.1049
 5718TIP3   OH238568   4.588   3.463  15.047 -0.3391  0.0963  0.3227
 5718TIP3    H138569   4.583   3.559  15.051 -1.6303  0.0169  1.5760
 5718TIP3    H238570   4.514   3.438  14.991  0.6029 -0.1535 -0.8542
 5719TIP3   OH238571   5.304   0.115  12.474  0.3207 -0.2168  0.1089
 5719TIP3    H138572   5.331   0.057  12.403 -1.0565 -0.7018 -0.0530
 5719TIP3    H238573   5.231   0.165  12.437  1.4157  1.5902  0.2739
 5720TIP3   OH238574   0.737   3.343   1.389  0.4141  0.3798  0.3905
 5720TIP3    H138575   0.766   3.273   1.332  0.8159  0.9483 -0.1075
 5720TIP3    H238576   0.648   3.317   1.416 -0.2352  0.6502 -1.3950
 5721TIP3   OH238577   4.752   2.104   1.393  0.0447 -0.0645 -0.6850
 5721TIP3    H138578   4.726   2.036   1.331  1.7363 -0.3251 -1.1865
 5721TIP3    H238579   4.814   2.060   1.452  0.9317  0.9400 -0.8327
 5722TIP3   OH238580   3.063   3.349   2.337  0.0607 -0.4419 -0.7301
 5722TIP3    H138581   3.122   3.424   2.338 -1.4933  0.8642  1.2010
 5722TIP3    H238582   3.049   3.330   2.244 -0.5982  2.6032 -1.3637
 5723TIP3   OH238583   6.434   2.889  11.457  0.1556 -0.3081  0.3725
 5723TIP3    H138584   6.448   2.843  11.374  0.2315  1.4568 -0.6442
 5723TIP3    H238585   6.510   2.947  11.466 -0.0592 -0.1691  1.4761
 5724TIP3   OH238586   3.405   2.692   2.392 -0.0049  0.0567 -0.1272
 5724TIP3    H138587   3.408   2.671   2.485  0.0466 -2.1379 -0.5641
 5724TIP3    H238588   3.483   2.745   2.376 -0.4800  1.2252  1.2058
 5725TIP3   OH238589   4.310   4.578   2.499 -0.2680  0.7150  0.0039
 5725TIP3    H138590   4.304   4.493   2.456 -0.6008  1.4487 -1.4676
 5725TIP3    H238591   4.380   4.624   2.452  1.6522  0.4154  2.3749
 5726TIP3   OH238592   3.492   2.966   3.201 -0.1650 -0.0484  0.1989
 5726TIP3    H138593   3.411   2.956   3.151 -0.6876 -1.3677  1.2569
 5726TIP3    H238594   3.467   2.946   3.291  0.8178  1.9422  0.9826
 5727TIP3   OH238595   0.332   4.594   2.567 -0.2570  0.2545  0.4915
 5727TIP3    H138596   0.333   4.553   2.480  1.1572 -1.9949  1.4632
 5727TIP3    H238597   0.251   4.562   2.608  0.5751 -1.2095  1.0504
 5728TIP3   OH238598   0.174   2.543   6.003  0.4106 -0.1414 -0.0536
 5728TIP3    H138599   0.162   2.568   5.912  0.2381  1.4169  0.3655
 5728TIP3    H238600   0.090   2.503   6.028 -0.2002  1.0331 -0.1173
 5729TIP3   OH238601   4.677   0.672   3.463 -0.2106  0.1893 -0.3318
 5729TIP3    H138602   4.594   0.709   3.431 -0.2915  0.9862  0.7691
 5729TIP3    H238603   4.728   0.747   3.490  0.5177 -0.3659 -0.1406
 5730TIP3   OH238604   0.734   5.625  15.259 -0.5547 -0.0755  0.0911
 5730TIP3    H138605   0.669   5.616  15.189 -0.2479  0.4693 -0.2683
 5730TIP3    H238606   0.728   5.718  15.284  1.8765  0.6548 -1.7077
 5731TIP3   OH238607   1.254   1.348   4.340  0.2090 -0.2234 -0.0733
 5731TIP3    H138608   1.237   1.290   4.265  1.4034  1.2107 -1.5277
 5731TIP3    H238609   1.232   1.436   4.308  3.7846  0.8875  0.0831
 5732TIP3   OH238610   3.445   5.536  12.020  0.2774  0.2830 -0.0959
 5732TIP3    H138611   3.451   5.501  11.931 -0.8499  2.0025 -0.9201
 5732TIP3    H238612   3.409   5.465  12.072 -0.6216 -0.2531 -1.3837
 5733TIP3   OH238613   2.312   4.152   3.707  0.0169  0.0530 -0.3290
 5733TIP3    H138614   2.315   4.116   3.796  1.0726  0.1386 -0.3193
 5733TIP3    H238615   2.285   4.243   3.719  3.3519  1.1083  0.2975
 5734TIP3   OH238616   4.557   2.544   0.892 -0.1247 -0.4130  0.4093
 5734TIP3    H138617   4.463   2.558   0.892  0.0514  1.1082  2.0272
 5734TIP3    H238618   4.588   2.588   0.813 -0.6947 -0.2277  0.2883
 5735TIP3   OH238619   5.148   6.559  14.356 -0.1784  0.6003  0.3168
 5735TIP3    H138620   5.071   6.506  14.331 -0.3146  0.7120  0.5003
 5735TIP3    H238621   5.223   6.507  14.327 -0.2644 -0.3509  1.7378
 5736TIP3   OH238622   2.584   1.995   5.398  0.0676 -0.5026  0.2599
 5736TIP3    H138623   2.664   1.977   5.448  0.3142 -1.5996 -0.4992
 5736TIP3    H238624   2.549   1.908   5.377 -0.3607 -0.0524 -0.9554
 5737TIP3   OH238625   3.897   4.183  11.967 -0.1259  0.3354  0.3387
 5737TIP3    H138626   3.868   4.268  11.934  0.3608 -0.3205 -1.9654
 5737TIP3    H238627   3.818   4.143  12.002 -0.1676  2.1089  2.4499
 5738TIP3   OH238628   0.258   3.284  17.193 -0.0306 -0.5275 -0.0360
 5738TIP3    H138629   0.256   3.188  17.193 -1.2377 -0.5408 -1.3340
 5738TIP3    H238630   0.240   3.308  17.284 -1.9479 -1.5544 -0.0885
 5739TIP3   OH238631   0.792   5.692   2.499  0.0156 -0.5234 -0.7743
 5739TIP3    H138632   0.753   5.749   2.434  0.5065  0.9601  0.1831
 5739TIP3    H238633   0.853   5.748   2.547 -0.0713 -1.6494  0.7209
 5740TIP3   OH238634   1.172   0.938  14.470  0.5813  0.1826 -0.3340
 5740TIP3    H138635   1.083   0.938  14.503  0.9546 -2.8502  0.9895
 5740TIP3    H238636   1.163   0.927  14.375 -0.4736 -0.6728 -0.1491
 5741TIP3   OH238637   1.355   5.796   2.161  0.1678 -0.1418 -0.5632
 5741TIP3    H138638   1.370   5.801   2.256  0.5618 -0.1636 -0.6219
 5741TIP3    H238639   1.438   5.825   2.123  0.4168 -1.2566 -0.9026
 5742TIP3   OH238640   4.371   1.186   3.365 -0.2808 -0.9535  0.1605
 5742TIP3    H138641   4.299   1.165   3.424  1.1418 -2.1084  1.5863
 5742TIP3    H238642   4.350   1.141   3.283 -1.8621 -0.0356  0.0177
 5743TIP3   OH238643   1.889   3.183  11.414 -0.1150 -0.4479 -0.0110
 5743TIP3    H138644   1.841   3.221  11.340 -1.5771 -2.3359 -0.1049
 5743TIP3    H238645   1.832   3.113  11.446  0.2448  0.5562  3.2212
 5744TIP3   OH238646   6.681   4.039  14.910 -0.2674  0.1796 -0.0359
 5744TIP3    H138647   6.722   4.050  14.825 -1.5574  0.5617 -0.6312
 5744TIP3    H238648   6.599   3.993  14.892  1.2190 -3.4529  1.4783
 5745TIP3   OH238649   5.646   6.536   4.514 -0.0613 -0.0224  0.6666
 5745TIP3    H138650   5.700   6.573   4.444  0.3027 -2.0938 -0.2224
 5745TIP3    H238651   5.641   6.606   4.579  0.5017  1.5926 -0.9172
 5746TIP3   OH238652   3.448   0.407   3.833 -0.5178  0.0317  0.0327
 5746TIP3    H138653   3.361   0.417   3.870  0.6307  1.7226  2.6001
 5746TIP3    H238654   3.507   0.408   3.908  1.7984 -0.4111 -1.6305
 5747TIP3   OH238655   1.594   3.271  15.596 -0.2200 -0.6239  0.1369
 5747TIP3    H138656   1.674   3.227  15.568 -0.4203 -1.1553  0.4049
 5747TIP3    H238657   1.546   3.206  15.646 -1.2230 -0.5801 -0.7280
 5748TIP3   OH238658   1.130   2.359   5.329  0.2323  0.2092 -0.7378
 5748TIP3    H138659   1.183   2.280   5.345 -0.3919 -0.1504 -0.4350
 5748TIP3    H238660   1.174   2.427   5.379  1.0002  0.1526 -1.3043
 5749TIP3   OH238661   0.502   0.079   2.840 -0.3059  0.7718  1.1016
 5749TIP3    H138662   0.494  -0.011   2.809  0.7254 -0.2896  3.7181
 5749TIP3    H238663   0.452   0.130   2.776  2.2196 -1.0664 -2.6785
 5750TIP3   OH238664   4.221   2.976   1.338  0.0558  0.2164 -0.0971
 5750TIP3    H138665   4.148   2.921   1.308  1.3260 -1.2662 -0.5807
 5750TIP3    H238666   4.294   2.952   1.282  1.0858  1.2991  0.7263
 5751TIP3   OH238667   3.035   0.305   0.783  0.0483 -0.0453  0.1524
 5751TIP3    H138668   3.117   0.353   0.793  0.4887 -0.6624 -0.4096
 5751TIP3    H238669   3.006   0.289   0.873 -1.1468  2.9372  0.4184
 5752TIP3   OH238670   0.762   4.616   4.170  0.1345 -0.0394  0.3175
 5752TIP3    H138671   0.685   4.603   4.224 -0.8827 -2.0819 -1.4442
 5752TIP3    H238672   0.834   4.575   4.219 -0.4510 -0.5116  0.7919
 5753TIP3   OH238673   4.095   1.030   1.079 -0.3459  0.1702 -0.1796
 5753TIP3    H138674   4.021   1.022   1.140  0.3327 -0.4404  0.5822
 5753TIP3    H238675   4.063   0.991   0.998 -0.7140 -0.5145  0.2840
 5754TIP3   OH238676   0.331   5.227  13.194  0.1831 -0.0560  0.5478
 5754TIP3    H138677   0.322   5.230  13.099 -0.3736  0.2583  0.6027
 5754TIP3    H238678   0.368   5.312  13.218  1.2265 -0.4955  0.5328
 5755TIP3   OH238679   4.484   3.517   2.648 -0.1882  0.0983  0.2030
 5755TIP3    H138680   4.531   3.434   2.658  0.8071  0.8276  1.9929
 5755TIP3    H238681   4.443   3.511   2.561  0.1172 -2.1119  0.1488
 5756TIP3   OH238682   4.608   5.437   5.991  0.4248  0.2795 -0.4146
 5756TIP3    H138683   4.649   5.354   6.013  2.7917  1.5392  0.3188
 5756TIP3    H238684   4.542   5.450   6.059  1.6072  0.0187  0.8283
 5757TIP3   OH238685   0.120   5.068   2.854 -0.1294 -0.6723 -0.7080
 5757TIP3    H138686   0.101   5.069   2.760 -1.2280  0.4885 -0.5010
 5757TIP3    H238687   0.049   5.017   2.893 -0.1399 -0.4375 -0.4169
 5758TIP3   OH238688   4.725   2.087   0.853 -0.3516 -0.1706  0.1319
 5758TIP3    H138689   4.781   2.044   0.788 -0.3668 -2.9017  1.7441
 5758TIP3    H238690   4.637   2.082   0.816 -0.0927  0.3260 -0.5750
 5759TIP3   OH238691   1.556   0.967   1.297  0.5449 -0.1001 -0.1856
 5759TIP3    H138692   1.581   0.881   1.264  0.9118 -0.4812  1.0342
 5759TIP3    H238693   1.603   1.029   1.241 -0.0172 -0.6663 -1.3105
 5760TIP3   OH238694   5.194   2.183  13.508 -0.4258 -0.0019 -0.5381
 5760TIP3    H138695   5.249   2.188  13.430  0.5339 -0.9701  0.0378
 5760TIP3    H238696   5.117   2.236  13.487  0.0970  0.2678 -1.8911
 5761TIP3   OH238697   1.694   3.611  11.414  0.0866 -0.1033 -0.4897
 5761TIP3    H138698   1.776   3.632  11.369 -1.3392  1.8818 -2.3757
 5761TIP3    H238699   1.714   3.622  11.507  2.2884 -1.0491 -0.7982
 5762TIP3   OH238700   5.752   0.302   5.683 -0.3761 -0.2031 -0.1684
 5762TIP3    H138701   5.811   0.345   5.746  1.2565  0.7132 -2.1816
 5762TIP3    H238702   5.684   0.367   5.667  0.0989  0.2222 -0.5179
 5763TIP3   OH238703   0.897   6.367   3.498 -1.2210 -0.5880 -0.8258
 5763TIP3    H138704   0.852   6.429   3.556 -1.0862 -1.9616  0.8309
 5763TIP3    H238705   0.945   6.422   3.436 -0.9206  0.9832  0.7211
 5764TIP3   OH238706   0.304   1.240   6.770 -0.0335  0.4153 -0.4133
 5764TIP3    H138707   0.317   1.271   6.681 -0.2504  0.3146 -0.4816
 5764TIP3    H238708   0.293   1.320   6.822 -2.6481  0.4625 -0.9007
 5765TIP3   OH238709   1.534   4.909   5.779  0.3043  0.3208  0.3082
 5765TIP3    H138710   1.570   4.821   5.792 -0.1785  0.3016  1.6515
 5765TIP3    H238711   1.542   4.925   5.685 -0.1314 -1.3826 -0.0431
 5766TIP3   OH238712   4.937   4.445  17.231 -0.4970  0.0511  0.3569
 5766TIP3    H138713   4.972   4.508  17.294 -1.2782  0.5320  0.3310
 5766TIP3    H238714   4.948   4.360  17.274 -1.2771  0.3951  1.2919
 5767TIP3   OH238715   6.508   6.772  11.983  0.8199  0.4007 -0.1402
 5767TIP3    H138716   6.599   6.799  11.977  1.5697 -1.7071  0.9669
 5767TIP3    H238717   6.505   6.685  11.945 -0.6157  0.2123  0.3208
 5768TIP3   OH238718   6.538   3.292  16.292  0.4402 -0.3685  0.0396
 5768TIP3    H138719   6.475   3.220  16.295 -0.7916  0.5141 -2.3341
 5768TIP3    H238720   6.542   3.324  16.382 -1.3460 -1.4171  0.5346
 5769TIP3   OH238721   6.536   3.352   6.117 -0.1540  0.4738 -0.0371
 5769TIP3    H138722   6.588   3.317   6.044 -0.7210 -0.1623 -0.1451
 5769TIP3    H238723   6.553   3.293   6.190 -0.2277  0.6333  0.1110
 5770TIP3   OH238724   4.394   1.944   6.362  0.1303  0.4747 -0.1485
 5770TIP3    H138725   4.459   1.940   6.433  0.0643 -3.3181 -0.0488
 5770TIP3    H238726   4.441   1.980   6.288  1.6988  0.0208  0.5717
 5771TIP3   OH238727   0.105   1.764  15.829  0.2006  0.0314 -0.0345
 5771TIP3    H138728   0.048   1.841  15.822 -0.0594  0.0342  1.6603
 5771TIP3    H238729   0.077   1.721  15.910  1.0564 -1.2700 -0.4011
 5772TIP3   OH238730   5.047   5.822   5.276 -0.7509 -0.1047  0.0715
 5772TIP3    H138731   5.016   5.849   5.190 -1.1183  0.3327  0.3361
 5772TIP3    H238732   5.026   5.729   5.281  1.3771 -0.7284 -1.2263
 5773TIP3   OH238733   1.393   6.731  11.740  0.1690 -0.6484  0.3020
 5773TIP3    H138734   1.362   6.730  11.831  1.3916  0.7679  0.7804
 5773TIP3    H238735   1.487   6.714  11.746  0.0805 -1.6777 -0.8216
 5774TIP3   OH238736   2.602   0.835  16.980  0.0027 -0.2155  0.1905
 5774TIP3    H138737   2.637   0.894  17.047 -1.3843 -0.8773  1.5607
 5774TIP3    H238738   2.512   0.865  16.967 -0.1452 -0.9095 -0.4192
 5775TIP3   OH238739   6.079   2.954   5.960  0.0093  0.4734  0.6439
 5775TIP3    H138740   6.041   2.972   5.874 -1.3311 -0.9312  0.9032
 5775TIP3    H238741   6.120   2.868   5.951 -2.5574 -1.0301  2.0664
 5776TIP3   OH238742   4.732   0.633   1.990  0.2470  0.1586  0.3687
 5776TIP3    H138743   4.739   0.643   1.894  0.1644  0.4140  0.3868
 5776TIP3    H238744   4.822   0.640   2.021  0.4578 -1.3943  0.1873
 5777TIP3   OH238745   1.129   1.202  10.367  0.5581  0.5253 -0.3375
 5777TIP3    H138746   1.069   1.148  10.418 -1.7033  1.4100 -1.9364
 5777TIP3    H238747   1.207   1.147  10.358 -0.2814 -1.0129  1.0874
 5778TIP3   OH238748   5.730   1.382  16.488 -0.0027  0.2410  0.2830
 5778TIP3    H138749   5.641   1.359  16.513 -0.4444  1.0688 -0.4870
 5778TIP3    H238750   5.723   1.415  16.399  1.0143  0.7203  0.3616
 5779TIP3   OH238751   2.332   6.574  15.903  0.5843 -0.1693  0.0426
 5779TIP3    H138752   2.366   6.501  15.851 -0.9053  0.8735 -2.5767
 5779TIP3    H238753   2.248   6.595  15.862 -0.1530  1.4904  2.2295
 5780TIP3   OH238754   2.527   3.293  14.171  0.0558  0.0689  0.5370
 5780TIP3    H138755   2.587   3.298  14.246 -0.1553  0.2246  0.6948
 5780TIP3    H238756   2.440   3.292  14.210 -0.0245 -1.1756  0.3581
 5781TIP3   OH238757   0.304   2.851   0.175  0.0311  0.8252  0.1283
 5781TIP3    H138758   0.257   2.824   0.254  1.7827  0.9225  1.2619
 5781TIP3    H238759   0.266   2.936   0.153 -0.6159  0.7106  0.7395
 5782TIP3   OH238760   4.552   5.472  14.821 -0.0448 -0.2643  0.0082
 5782TIP3    H138761   4.462   5.457  14.851  0.0911  0.0031  0.5662
 5782TIP3    H238762   4.573   5.560  14.852  0.2559 -0.1512 -0.5123
 5783TIP3   OH238763   2.215   3.259  13.154  0.2186  0.2244 -0.4116
 5783TIP3    H138764   2.131   3.290  13.121 -0.3273 -0.4310  0.3153
 5783TIP3    H238765   2.273   3.259  13.078 -0.7482 -0.3758 -1.1690
 5784TIP3   OH238766   6.676   4.087   1.968  0.5364  0.5992  0.2763
 5784TIP3    H138767   6.598   4.047   1.930  0.5934  1.7784 -1.1714
 5784TIP3    H238768   6.665   4.078   2.062 -0.1262 -1.5038  0.0457
 5785TIP3   OH238769   5.408   4.289  16.549 -0.2188 -0.0438  0.0227
 5785TIP3    H138770   5.343   4.358  16.551 -0.1978  0.0124 -0.8616
 5785TIP3    H238771   5.374   4.221  16.606  1.2185  1.9364  3.5381
 5786TIP3   OH238772   6.465   3.732   5.627 -0.1215 -0.2483 -0.3265
 5786TIP3    H138773   6.443   3.696   5.713 -0.8745 -1.1711 -0.8842
 5786TIP3    H238774   6.559   3.750   5.632 -0.0511 -0.7800  0.5115
 5787TIP3   OH238775   4.936   0.426   2.702 -0.2967 -0.0038 -0.0479
 5787TIP3    H138776   4.883   0.373   2.763  0.4946  0.5167  1.1280
 5787TIP3    H238777   4.872   0.464   2.642 -1.1785 -0.0840  0.8087
 5788TIP3   OH238778   3.215   6.088   1.114  0.1262 -0.2365 -0.5968
 5788TIP3    H138779   3.220   6.093   1.018 -1.3878  0.6949 -0.6568
 5788TIP3    H238780   3.300   6.053   1.140  0.0437 -1.9968 -2.3771
 5789TIP3   OH238781   1.251   0.654   0.825  0.4754 -0.0294  0.4804
 5789TIP3    H138782   1.157   0.641   0.819  0.0855  2.1094  0.9077
 5789TIP3    H238783   1.288   0.566   0.833 -1.2933 -1.0360 -1.6418
 5790TIP3   OH238784   4.840   2.195  11.540  0.3047 -0.0718 -0.8062
 5790TIP3    H138785   4.904   2.139  11.498 -0.5194 -0.8562 -1.0527
 5790TIP3    H238786   4.826   2.268  11.479 -0.4260 -0.8817 -1.6330
 5791TIP3   OH238787   0.446   1.505   1.960 -0.0592 -0.2205  0.6542
 5791TIP3    H138788   0.403   1.558   2.027 -0.0640  0.1991  0.3235
 5791TIP3    H238789   0.466   1.422   2.004 -0.4568 -0.1124  1.0471
 5792TIP3   OH238790   4.063   2.268  13.825  0.3447  0.7740 -0.8954
 5792TIP3    H138791   4.080   2.359  13.850 -0.5813  0.7033  0.1056
 5792TIP3    H238792   4.089   2.262  13.734 -0.4587  2.3004 -1.2582
 5793TIP3   OH238793   1.938   6.580   3.731 -0.3854 -0.0257  0.1827
 5793TIP3    H138794   2.006   6.642   3.702 -1.4114  0.7102 -0.7836
 5793TIP3    H238795   1.892   6.626   3.801 -0.4113 -0.1748  0.2634
 5794TIP3   OH238796   0.927   4.676   2.137 -0.1887  0.1064 -0.3391
 5794TIP3    H138797   0.851   4.728   2.112 -0.5866 -0.9991 -1.5643
 5794TIP3    H238798   1.001   4.719   2.093 -0.0571  1.2601  0.9618
 5795TIP3   OH238799   6.626   4.308  11.605  0.1282  0.4272 -0.0458
 5795TIP3    H138800   6.576   4.227  11.592  0.6929 -0.0227  0.5309
 5795TIP3    H238801   6.644   4.311  11.698  1.1352  0.6097 -0.2376
 5796TIP3   OH238802   6.189   3.375   4.546  0.1352  0.5065 -0.4212
 5796TIP3    H138803   6.138   3.390   4.467 -2.3198  1.0670  1.1375
 5796TIP3    H238804   6.131   3.326   4.604  2.7278 -2.1405  0.2044
 5797TIP3   OH238805   2.873   2.963  12.726  0.4280 -0.0369  0.0150
 5797TIP3    H138806   2.779   2.971  12.745  0.4532 -0.9587  0.6463
 5797TIP3    H238807   2.882   2.875  12.689  1.3967 -1.1402  2.6237
 5798TIP3   OH238808   6.462   0.911   3.948 -0.5326 -0.3712 -0.0434
 5798TIP3    H138809   6.554   0.907   3.975 -0.7535 -0.5117  0.7028
 5798TIP3    H238810   6.449   0.831   3.897 -0.4858 -0.8301  0.6529
 5799TIP3   OH238811   2.384   6.519  14.907 -0.6686  0.5418 -0.6665
 5799TIP3    H138812   2.375   6.523  14.812 -1.2092  0.9747 -0.5985
 5799TIP3    H238813   2.403   6.427  14.926 -1.9265  0.1876 -1.0742
 5800TIP3   OH238814   5.679   6.333  14.503 -0.5495  0.3226  0.3716
 5800TIP3    H138815   5.720   6.334  14.417  0.2403 -0.4596  0.7285
 5800TIP3    H238816   5.598   6.284  14.491 -1.3281  1.7169 -0.2977
 5801TIP3   OH238817   0.276   0.746   1.061  0.8532  0.2535  0.2678
 5801TIP3    H138818   0.322   0.748   0.977  0.3723  0.2222 -0.0002
 5801TIP3    H238819   0.278   0.836   1.091  0.3716  0.4043 -0.1406
 5802TIP3   OH238820   4.479   2.052   1.734  0.2034  0.0080 -0.0168
 5802TIP3    H138821   4.531   2.119   1.688  1.4796 -1.1266 -0.2891
 5802TIP3    H238822   4.411   2.102   1.780  1.6962  1.5896  0.5827
 5803TIP3   OH238823   2.519   4.686   1.740  0.5316  0.6710  0.1579
 5803TIP3    H138824   2.470   4.766   1.755  0.2778  0.7944 -1.2620
 5803TIP3    H238825   2.511   4.669   1.646 -0.1239 -1.4725  0.5463
 5804TIP3   OH238826   1.589   1.270   0.138 -0.5913 -0.0493 -0.5050
 5804TIP3    H138827   1.548   1.187   0.113 -0.7049  0.6680 -2.9231
 5804TIP3    H238828   1.572   1.329   0.065  3.3894  0.7546 -1.0555
 5805TIP3   OH238829   4.393   6.126   0.959  0.0844 -0.1941  0.1444
 5805TIP3    H138830   4.318   6.070   0.978 -1.0293  1.3804  0.5916
 5805TIP3    H238831   4.457   6.105   1.028  0.4096 -2.0934 -0.6903
 5806TIP3   OH238832   5.354   3.259   4.569 -0.0825 -0.3355 -0.4058
 5806TIP3    H138833   5.413   3.332   4.589 -0.6028  0.0947 -0.4167
 5806TIP3    H238834   5.285   3.298   4.516  1.3175 -1.4425 -3.2692
 5807TIP3   OH238835   3.692   0.410  11.984  0.1104 -0.2334 -0.2352
 5807TIP3    H138836   3.703   0.481  12.047  2.6054 -0.2266 -0.5975
 5807TIP3    H238837   3.638   0.346  12.030  0.7448  0.3659  1.4267
 5808TIP3   OH238838   5.738   6.562  14.665  0.1189 -0.1331 -0.1584
 5808TIP3    H138839   5.792   6.486  14.643 -1.7295 -1.4837 -0.2737
 5808TIP3    H238840   5.679   6.572  14.591  0.5196  1.6497 -0.2834
 5809TIP3   OH238841   6.039   3.389  16.660  0.1872  0.3208  0.2802
 5809TIP3    H138842   6.081   3.415  16.579  0.9451 -0.1251  0.5155
 5809TIP3    H238843   6.109   3.395  16.726 -0.0030 -0.8091  0.6066
 5810TIP3   OH238844   6.360   6.316  11.505  0.1519 -0.2030 -0.5082
 5810TIP3    H138845   6.413   6.259  11.450  0.2945  0.9056 -1.5478
 5810TIP3    H238846   6.271   6.308  11.470  0.0801 -0.1867 -0.3313
 5811TIP3   OH238847   6.664   3.280  12.718  0.4215 -0.0066 -0.3751
 5811TIP3    H138848   6.679   3.297  12.811  0.5129 -0.8391 -0.2285
 5811TIP3    H238849   6.749   3.250  12.685  0.3878  0.2789 -0.7289
 5812TIP3   OH238850   2.577   2.087   0.319 -0.1032 -0.1513  0.8495
 5812TIP3    H138851   2.587   2.169   0.271  0.3760 -1.3741 -1.2465
 5812TIP3    H238852   2.637   2.095   0.394 -0.4246  1.5654  0.9603
 5813TIP3   OH238853   6.671   5.502  15.379 -0.4368  0.2285 -0.1000
 5813TIP3    H138854   6.584   5.462  15.380 -1.2565  1.9298  0.1296
 5813TIP3    H238855   6.701   5.492  15.289 -1.2874  0.4792 -0.4230
 5814TIP3   OH238856   3.858   0.873   5.834  0.0729 -0.8078  0.1255
 5814TIP3    H138857   3.874   0.899   5.925  1.8770 -1.2937 -0.0193
 5814TIP3    H238858   3.790   0.806   5.839  1.4203 -2.1498  1.3223
 5815TIP3   OH238859   3.775   4.899  13.422  0.0684  0.4871 -0.4750
 5815TIP3    H138860   3.806   4.813  13.449 -0.7830  0.0618 -0.8002
 5815TIP3    H238861   3.758   4.890  13.328 -2.0791  0.3367 -0.1368
 5816TIP3   OH238862   5.673   5.667   0.329  0.3943 -0.3303 -0.0021
 5816TIP3    H138863   5.581   5.693   0.327  0.2885 -0.7100 -0.2740
 5816TIP3    H238864   5.694   5.661   0.422  0.5480  1.1352  0.0789
 5817TIP3   OH238865   5.587   6.129   3.436  0.5309  0.0964  0.0378
 5817TIP3    H138866   5.637   6.198   3.392 -0.9917  1.6673  0.6761
 5817TIP3    H238867   5.619   6.130   3.527  0.9744 -0.5136 -0.1060
 5818TIP3   OH238868   4.105   6.146   2.367 -0.0961 -0.4659  0.0738
 5818TIP3    H138869   4.136   6.064   2.328 -1.0406 -0.9560  0.3035
 5818TIP3    H238870   4.148   6.150   2.452 -0.9376 -1.3402  0.5604
 5819TIP3   OH238871   3.372   4.937   4.854 -0.1041 -0.2277  0.0984
 5819TIP3    H138872   3.277   4.928   4.865 -0.0463 -0.3560  0.5085
 5819TIP3    H238873   3.399   4.994   4.925  0.2526 -0.8985  0.5111
 5820TIP3   OH238874   6.155   3.193  15.310  0.2839  1.1381  0.1394
 5820TIP3    H138875   6.131   3.280  15.342  1.2758  1.3287  0.3783
 5820TIP3    H238876   6.241   3.205  15.271 -0.2186  0.5798 -1.2121
 5821TIP3   OH238877   1.613   5.484   1.470  0.1507 -0.3423  0.3905
 5821TIP3    H138878   1.597   5.406   1.418  1.3997 -1.7340  1.9981
 5821TIP3    H238879   1.706   5.482   1.491 -0.3338 -0.0677  2.9377
 5822TIP3   OH238880   4.664   2.427   4.051 -0.2746 -0.7179 -0.0694
 5822TIP3    H138881   4.657   2.334   4.027 -1.6281 -0.7097  0.2228
 5822TIP3    H238882   4.654   2.428   4.146 -1.9380 -0.1538 -0.2133
 5823TIP3   OH238883   0.414   2.724  11.355 -0.2809 -0.1925  0.2519
 5823TIP3    H138884   0.329   2.725  11.398  0.2884  1.4644  1.4329
 5823TIP3    H238885   0.473   2.681  11.418 -0.3142 -1.8910 -0.8042
 5824TIP3   OH238886   4.668   5.410  12.326 -0.2986 -0.0239 -0.6120
 5824TIP3    H138887   4.598   5.421  12.262 -0.7523  1.9610  0.1429
 5824TIP3    H238888   4.677   5.496  12.367  0.9881 -0.8399  0.9623
 5825TIP3   OH238889   6.190   4.620   4.796 -0.1194  0.0037  0.3813
 5825TIP3    H138890   6.237   4.668   4.727 -0.0046 -2.4336 -1.3557
 5825TIP3    H238891   6.121   4.681   4.824  2.6739  2.9377  1.6150
 5826TIP3   OH238892   4.582   3.685   1.044  0.5572 -0.3944 -0.6623
 5826TIP3    H138893   4.570   3.757   1.105 -0.6027 -1.0468 -0.0880
 5826TIP3    H238894   4.676   3.665   1.049  0.5279 -0.2765  0.7189
 5827TIP3   OH238895   3.147   4.519  16.784 -0.7332 -0.8108 -0.3162
 5827TIP3    H138896   3.059   4.489  16.761 -1.3669  3.0781 -4.4443
 5827TIP3    H238897   3.205   4.469  16.727 -0.5033 -1.6290  0.6138
 5828TIP3   OH238898   6.386   6.036  10.759  0.8666  0.1542  0.1372
 5828TIP3    H138899   6.344   6.075  10.836  0.3657 -1.1655  0.5598
 5828TIP3    H238900   6.391   5.942  10.778  1.3917 -0.1100 -1.1372
 5829TIP3   OH238901   4.980   2.282   3.005 -0.4409 -0.4493  0.1248
 5829TIP3    H138902   4.966   2.199   3.050  2.6000 -0.1857  1.7895
 5829TIP3    H238903   4.951   2.349   3.068 -1.4164 -0.1731 -0.5920
 5830TIP3   OH238904   0.913   1.077  12.551  1.0052 -0.0501  0.1175
 5830TIP3    H138905   0.974   1.037  12.490  0.3888 -1.4169  0.3611
 5830TIP3    H238906   0.827   1.044  12.525  0.3945  1.4314  0.1007
 5831TIP3   OH238907   6.246   1.926  10.981  0.9287  0.2383  0.2597
 5831TIP3    H138908   6.229   2.012  11.019 -0.2070  0.4926 -0.7506
 5831TIP3    H238909   6.172   1.911  10.922  0.8816 -1.6232  0.7256
 5832TIP3   OH238910   1.028   2.273   4.969 -0.3745  0.0590 -0.2610
 5832TIP3    H138911   1.064   2.318   5.046 -1.0993 -0.0032  0.1191
 5832TIP3    H238912   0.938   2.253   4.993 -0.2014 -1.2134 -0.5839
 5833TIP3   OH238913   6.408   5.527   2.429 -0.1559  0.5205 -0.2891
 5833TIP3    H138914   6.474   5.571   2.376  0.7296  1.3844  1.4493
 5833TIP3    H238915   6.459   5.477   2.493 -1.1848 -1.0434 -0.6450
 5834TIP3   OH238916   1.695   6.587   6.195 -0.4357 -0.3479  0.0569
 5834TIP3    H138917   1.609   6.551   6.172 -0.0430 -3.7170  2.9780
 5834TIP3    H238918   1.675   6.665   6.247 -1.8141 -1.4889  1.3027
 5835TIP3   OH238919   3.813   5.960  16.583  0.2036 -0.7226  0.1457
 5835TIP3    H138920   3.800   5.887  16.522 -1.3826 -0.4261  0.1075
 5835TIP3    H238921   3.805   6.038  16.529 -1.1992 -0.4591  0.7216
 5836TIP3   OH238922   0.308   5.678   5.613  0.0809 -0.3684  0.5356
 5836TIP3    H138923   0.394   5.648   5.581  0.7702  1.3517  0.6588
 5836TIP3    H238924   0.329   5.751   5.671 -1.5567  1.2955 -0.8681
 5837TIP3   OH238925   2.644   4.868  12.271 -0.0617  0.3266  0.0677
 5837TIP3    H138926   2.567   4.812  12.277 -0.1606  0.5928  1.5164
 5837TIP3    H238927   2.675   4.877  12.361  1.5727  0.3589 -0.4561
 5838TIP3   OH238928   0.071   5.543   3.384 -0.0063 -0.6956 -0.1030
 5838TIP3    H138929   0.043   5.458   3.416  3.0290 -1.6945  0.2824
 5838TIP3    H238930   0.018   5.557   3.305 -1.2684 -2.4640  0.3579
 5839TIP3   OH238931   1.682   4.746   2.076  0.0267 -0.0381  0.2221
 5839TIP3    H138932   1.732   4.827   2.079 -0.5600  0.3281  0.3294
 5839TIP3    H238933   1.616   4.757   2.145 -0.5706 -0.2580 -0.3048
 5840TIP3   OH238934   0.625   5.323  10.372 -0.2380  0.3768  0.2220
 5840TIP3    H138935   0.541   5.346  10.333  0.1014  1.1903 -0.0589
 5840TIP3    H238936   0.683   5.306  10.297  0.5397  2.3876  0.3111
 5841TIP3   OH238937   4.575   4.852  16.641 -0.4256 -0.0935  0.0715
 5841TIP3    H138938   4.660   4.813  16.660 -1.4709 -1.7841  1.5720
 5841TIP3    H238939   4.568   4.925  16.702 -0.2649 -0.2325  0.2541
 5842TIP3   OH238940   5.244   0.452  17.013  0.6305 -0.2110 -0.3118
 5842TIP3    H138941   5.266   0.372  17.061 -0.1631  0.5478  1.3821
 5842TIP3    H238942   5.328   0.499  17.006  0.5376  0.3162  1.6276
 5843TIP3   OH238943   0.002   0.319  12.134  0.0094  0.5641  0.0273
 5843TIP3    H138944   0.083   0.271  12.151 -0.8085 -1.3802 -1.2172
 5843TIP3    H238945  -0.052   0.304  12.211 -0.4444 -1.0404 -0.5697
 5844TIP3   OH238946   0.046   2.828  10.571 -0.2415  0.1742  0.5697
 5844TIP3    H138947   0.121   2.871  10.613 -0.0366 -0.4311  0.8400
 5844TIP3    H238948   0.083   2.785  10.494 -0.5380  0.9092  0.0148
 5845TIP3   OH238949   0.021   2.146  16.994 -0.5702 -0.4135 -0.6887
 5845TIP3    H138950   0.069   2.130  16.913  1.0541 -0.3308  0.2172
 5845TIP3    H238951  -0.018   2.233  16.981  2.4855  1.1968 -0.1800
 5846TIP3   OH238952   0.558   2.596  15.959  0.0563 -0.4518  0.2748
 5846TIP3    H138953   0.546   2.503  15.941 -0.1153 -0.2420 -0.7908
 5846TIP3    H238954   0.504   2.613  16.036 -0.8212 -1.0028 -0.1994
 5847TIP3   OH238955   5.388   1.405   4.495  0.4786 -0.1925  0.8761
 5847TIP3    H138956   5.457   1.445   4.441 -1.8873  0.7467 -1.6531
 5847TIP3    H238957   5.353   1.477   4.546  0.1854 -0.2962  0.8206
 5848TIP3   OH238958   6.435   0.361  15.595  0.1306 -0.5366 -0.2062
 5848TIP3    H138959   6.410   0.453  15.603  0.7750 -0.4673  1.7663
 5848TIP3    H238960   6.392   0.330  15.516  0.4373  1.6292 -1.2946
 5849TIP3   OH238961   0.119   4.142  15.628 -0.1190  0.4012 -0.3615
 5849TIP3    H138962   0.090   4.103  15.545  0.3580  1.0767 -0.8638
 5849TIP3    H238963   0.183   4.208  15.601  1.6113 -0.7774  0.6665
 5850TIP3   OH238964   4.708   4.479   5.457  0.4035  0.4746 -0.3122
 5850TIP3    H138965   4.717   4.569   5.488 -1.8611  0.3570  0.9458
 5850TIP3    H238966   4.654   4.487   5.379 -0.0077  0.2022 -0.0574
 5851TIP3   OH238967   0.092   6.763   5.760  0.3930  0.1278  0.0906
 5851TIP3    H138968   0.153   6.793   5.692 -0.1019  0.6307 -0.1395
 5851TIP3    H238969   0.122   6.675   5.782 -0.4800 -0.7837 -2.0781
 5852TIP3   OH238970   3.870   2.609   6.312  0.1819  0.8107 -0.4043
 5852TIP3    H138971   3.905   2.657   6.387 -1.5887  0.9013  0.4034
 5852TIP3    H238972   3.829   2.531   6.349 -2.3014  1.7284 -1.0136
 5853TIP3   OH238973   0.081   2.313   2.903 -0.5605  0.0780 -0.4327
 5853TIP3    H138974   0.151   2.265   2.948  0.0938  2.1864  1.0064
 5853TIP3    H238975   0.011   2.250   2.891  1.0258 -1.7314 -0.5704
 5854TIP3   OH238976   6.692   0.299  11.273  0.2226 -0.0685  0.0074
 5854TIP3    H138977   6.694   0.395  11.276 -0.8388 -0.0355  0.1826
 5854TIP3    H238978   6.610   0.279  11.227 -0.1796 -0.8877  1.0424
 5855TIP3   OH238979   6.669   3.433   4.145 -0.1201 -0.2353 -0.0052
 5855TIP3    H138980   6.708   3.347   4.160  0.2557 -0.1247 -0.3193
 5855TIP3    H238981   6.604   3.443   4.215  0.5183 -0.3601  0.6134
 5856TIP3   OH238982   0.229   3.375   0.422 -0.0712  0.1561  0.0261
 5856TIP3    H138983   0.322   3.395   0.408 -0.3808  3.0807  1.4238
 5856TIP3    H238984   0.229   3.311   0.493  0.8618 -0.1828 -0.2554
 5857TIP3   OH238985   3.090   1.907  12.756 -0.2269 -0.4276  0.4350
 5857TIP3    H138986   3.116   1.846  12.825 -0.2616  1.1340  1.9084
 5857TIP3    H238987   3.166   1.912  12.698 -0.3154 -2.0112  0.1525
 5858TIP3   OH238988   6.691   0.117   5.608 -0.2546 -0.0524 -0.0207
 5858TIP3    H138989   6.750   0.103   5.682 -0.1480  0.9231  0.0880
 5858TIP3    H238990   6.741   0.170   5.546 -0.1297 -1.3459 -1.0796
 5859TIP3   OH238991   4.846   6.674  11.408 -0.1996 -0.5315  0.3454
 5859TIP3    H138992   4.777   6.714  11.356  1.1656 -0.1651 -1.2799
 5859TIP3    H238993   4.819   6.582  11.417 -1.9323  0.0594  1.6336
 5860TIP3   OH238994   0.107   3.581   0.187  0.1192 -0.1833  1.0175
 5860TIP3    H138995   0.060   3.633   0.251  1.2351  1.2488  0.7392
 5860TIP3    H238996   0.197   3.613   0.192  0.9787 -2.4426  1.1641
 5861TIP3   OH238997   2.434   4.962  14.978  0.0944 -0.6278  0.7139
 5861TIP3    H138998   2.489   4.913  15.039 -1.3379 -1.0104  1.7375
 5861TIP3    H238999   2.388   5.026  15.032 -2.5380 -2.1329  0.4008
 5862TIP3   OH239000   5.065   4.424   4.499 -0.0925  0.0827  0.6415
 5862TIP3    H139001   5.100   4.475   4.426 -0.5703 -2.6328 -1.6596
 5862TIP3    H239002   5.141   4.377   4.535  0.0079  0.8369  1.4658
 5863TIP3   OH239003   1.223   3.853  13.262  0.5789  0.5046 -0.0469
 5863TIP3    H139004   1.230   3.869  13.168  0.8777 -1.1161 -0.3240
 5863TIP3    H239005   1.219   3.758  13.270 -1.3276  0.6704  1.4786
 5864TIP3   OH239006   2.314   1.083   4.136  0.7633 -0.0533 -0.2138
 5864TIP3    H139007   2.370   1.140   4.189  0.0103  0.9103 -0.4271
 5864TIP3    H239008   2.301   1.005   4.190 -1.0159  1.4012  1.6174
 5865TIP3   OH239009   6.022   1.383  14.732 -0.0784  0.4843  0.2610
 5865TIP3    H139010   6.033   1.356  14.641  0.7469 -0.2919  0.5744
 5865TIP3    H239011   5.971   1.313  14.772 -0.9198  1.0917  0.2806
 5866TIP3   OH239012   2.488   4.071   4.542 -0.2484  0.0186  0.2683
 5866TIP3    H139013   2.480   4.154   4.494  1.2601  0.1580  0.2233
 5866TIP3    H239014   2.555   4.088   4.609  0.6490 -1.3816 -0.2368
 5867TIP3   OH239015   1.388   5.422  15.339  0.1139 -0.3958  0.3961
 5867TIP3    H139016   1.454   5.386  15.398 -0.0003  0.5466  1.1289
 5867TIP3    H239017   1.343   5.489  15.392 -1.5480 -1.1375 -0.0247
 5868TIP3   OH239018   1.604   4.109  14.183 -0.0536  0.1051  0.1349
 5868TIP3    H139019   1.651   4.026  14.183 -1.3184 -0.6354 -0.6455
 5868TIP3    H239020   1.513   4.086  14.197 -1.1019  0.8850 -3.9486
 5869TIP3   OH239021   1.242   0.361  13.965 -0.2251 -0.1229 -0.0899
 5869TIP3    H139022   1.275   0.272  13.980  0.5932  0.4503  1.8962
 5869TIP3    H239023   1.296   0.395  13.894  2.4711  0.1783  1.9220
 5870TIP3   OH239024   5.188   0.776  12.928  0.2842  0.3111 -0.3143
 5870TIP3    H139025   5.173   0.823  12.846 -0.8871 -1.2649 -1.0520
 5870TIP3    H239026   5.209   0.687  12.901 -0.0192 -0.2129  1.1030
 5871TIP3   OH239027   6.066   1.120   1.413  0.2132 -0.5678 -0.0096
 5871TIP3    H139028   5.992   1.170   1.378  1.1985  2.9000  2.3597
 5871TIP3    H239029   6.125   1.110   1.338 -2.2647 -2.9606 -1.8182
 5872TIP3   OH239030   2.214   0.371  10.540  0.7529  0.2628  0.0421
 5872TIP3    H139031   2.245   0.281  10.534  0.1064 -0.0357  0.9736
 5872TIP3    H239032   2.146   0.369  10.608 -0.9019  1.0133 -1.5106
 5873TIP3   OH239033   4.288   6.363   0.926  0.1912 -0.3647 -0.1104
 5873TIP3    H139034   4.342   6.284   0.927  0.1485 -0.4277 -1.3834
 5873TIP3    H239035   4.214   6.343   0.984  0.3635 -1.1252 -0.1516
 5874TIP3   OH239036   2.909   2.462  14.778  0.3133 -0.1438 -0.0082
 5874TIP3    H139037   2.862   2.450  14.695  0.3406 -0.9817  0.0924
 5874TIP3    H239038   2.872   2.542  14.815 -0.5080 -0.3859 -0.2867
 5875TIP3   OH239039   4.822   0.276  16.327  0.1643  0.0375 -0.0027
 5875TIP3    H139040   4.844   0.185  16.306  1.3204 -0.2368  2.1056
 5875TIP3    H239041   4.795   0.274  16.419  1.0665  1.9157  0.3630
 5876TIP3   OH239042   0.744   5.075  15.737  0.1824  0.1283 -0.2024
 5876TIP3    H139043   0.709   5.012  15.801 -0.1749  1.3081  0.7925
 5876TIP3    H239044   0.668   5.102  15.685 -0.5324  2.7014  1.9680
 5877TIP3   OH239045   4.863   0.936  11.657 -0.3653  0.3834 -0.2739
 5877TIP3    H139046   4.776   0.976  11.657  0.0064  1.2038 -0.0968
 5877TIP3    H239047   4.921   1.004  11.692  0.3349 -0.1842 -0.3140
 5878TIP3   OH239048   4.969   6.271  16.995  0.0971  0.1922  0.6092
 5878TIP3    H139049   5.051   6.294  17.039  0.5976 -0.0642 -0.1672
 5878TIP3    H239050   4.991   6.193  16.943  0.0856  1.6276 -1.6863
 5879TIP3   OH239051   6.628   2.002   3.273 -0.2139  0.2834 -0.1278
 5879TIP3    H139052   6.692   1.938   3.305 -0.6762  0.0252  0.3023
 5879TIP3    H239053   6.679   2.065   3.223  0.1151 -1.0351 -1.5117
 5880TIP3   OH239054   2.281   5.106  14.174  0.3479 -0.7229  0.0917
 5880TIP3    H139055   2.235   5.028  14.204 -0.5417  0.1239  1.0401
 5880TIP3    H239056   2.211   5.168  14.152  0.9748  0.6873  1.8045
 5881TIP3   OH239057   5.315   1.898   2.538  0.1082 -0.1636 -0.1759
 5881TIP3    H139058   5.294   1.969   2.599  0.4849 -2.5462  3.0156
 5881TIP3    H239059   5.375   1.938   2.474  1.8272  2.0274  2.5488
 5882TIP3   OH239060   4.340   0.021   5.026  0.1473 -0.2293  0.0897
 5882TIP3    H139061   4.430  -0.004   5.007 -0.1877 -1.2015 -0.2845
 5882TIP3    H239062   4.291  -0.004   4.948 -0.6454 -0.9076  0.7740
 5883TIP3   OH239063   4.088   3.602   4.753 -0.5123  0.7726  0.3080
 5883TIP3    H139064   4.003   3.560   4.740  0.7883 -1.6173 -1.2453
 5883TIP3    H239065   4.128   3.605   4.666  1.0493  1.7310  1.0041
 5884TIP3   OH239066   6.411   1.470   4.595  0.1074  0.4588  0.2879
 5884TIP3    H139067   6.344   1.450   4.530  0.2031  0.8016  0.0835
 5884TIP3    H239068   6.433   1.385   4.634  0.2420  0.2186 -0.3090
 5885TIP3   OH239069   2.161   6.345   0.862  0.3895 -0.1565  0.0154
 5885TIP3    H139070   2.113   6.364   0.782  0.0535  0.8574  0.4403
 5885TIP3    H239071   2.232   6.409   0.863  0.4616 -0.2394  0.4590
 5886TIP3   OH239072   3.153   4.141  14.272 -0.0447 -0.2374  0.1877
 5886TIP3    H139073   3.095   4.165  14.345 -0.5786  3.0923 -1.1371
 5886TIP3    H239074   3.230   4.196  14.285  1.0336 -1.5724 -0.3710
 5887TIP3   OH239075   4.791   0.689   6.525  0.0784 -0.5657 -0.1053
 5887TIP3    H139076   4.871   0.723   6.486 -0.1144  0.3514  0.2785
 5887TIP3    H239077   4.721   0.721   6.468 -0.0153 -1.5982 -0.6009
 5888TIP3   OH239078   3.450   1.465   3.373  0.5572  0.1877  0.8875
 5888TIP3    H139079   3.371   1.410   3.379  0.0600  0.8116  0.2228
 5888TIP3    H239080   3.419   1.547   3.336  1.7171  0.0526 -0.4685
 5889TIP3   OH239081   6.447   6.526   4.643  0.1031 -0.4081 -0.6296
 5889TIP3    H139082   6.541   6.541   4.653  0.2947 -1.7647 -0.2535
 5889TIP3    H239083   6.416   6.600   4.590  0.8269  1.7001  1.7018
 5890TIP3   OH239084   4.030   6.503   0.477 -0.1596  0.1726  0.9684
 5890TIP3    H139085   4.119   6.504   0.444 -0.3206 -2.1121  0.2845
 5890TIP3    H239086   3.989   6.582   0.441  0.9995  0.1713 -0.4087
 5891TIP3   OH239087   2.750   6.278   0.748  0.7149 -0.2746  0.1941
 5891TIP3    H139088   2.839   6.246   0.765  1.3859  1.1993 -0.3701
 5891TIP3    H239089   2.695   6.227   0.807  1.9332 -1.1876  0.5971
 5892TIP3   OH239090   0.175   2.138   0.429 -0.1406 -0.1862  0.0563
 5892TIP3    H139091   0.142   2.178   0.509 -0.2616 -1.4733  0.6674
 5892TIP3    H239092   0.155   2.202   0.361 -1.6082  0.1771  0.7815
 5893TIP3   OH239093   4.783   5.163  13.158  0.0688 -0.3087 -0.1831
 5893TIP3    H139094   4.822   5.114  13.231  1.0078  1.7661  0.8008
 5893TIP3    H239095   4.764   5.096  13.092  0.3448 -2.1013  1.4578
 5894TIP3   OH239096   5.391   6.777  14.810  0.2200  0.0206  0.3930
 5894TIP3    H139097   5.441   6.699  14.831  0.1324 -0.0203  0.4499
 5894TIP3    H239098   5.300   6.752  14.824  0.2541  0.4832  1.6038
 5895TIP3   OH239099   6.299   4.408   3.326 -0.5195 -0.2402 -0.0151
 5895TIP3    H139100   6.394   4.404   3.340 -0.6393 -0.0212  0.9214
 5895TIP3    H239101   6.272   4.317   3.318 -0.6866 -0.5678  3.1090
 5896TIP3   OH239102   2.473   0.706   0.548 -0.5219 -0.7253  0.1598
 5896TIP3    H139103   2.550   0.720   0.493 -1.4605  2.3846 -0.6006
 5896TIP3    H239104   2.490   0.759   0.626 -0.5005 -2.7252  1.5861
 5897TIP3   OH239105   6.407   1.596   6.091 -0.4256  0.5079  0.7251
 5897TIP3    H139106   6.363   1.560   6.168 -1.8440 -0.9025 -0.6394
 5897TIP3    H239107   6.402   1.691   6.102  2.1779  0.4488  3.7963
 5898TIP3   OH239108   4.088   3.337  17.002 -0.2546 -0.2038 -0.1003
 5898TIP3    H139109   4.122   3.427  17.009 -1.0847  0.2058 -1.0640
 5898TIP3    H239110   4.075   3.324  16.908 -0.3175 -1.2756  0.0478
 5899TIP3   OH239111   1.127   2.322  14.607 -0.0361  0.4431 -0.0229
 5899TIP3    H139112   1.075   2.329  14.687 -0.2153 -1.4809  0.0842
 5899TIP3    H239113   1.217   2.315  14.638 -0.2665 -2.5790  0.2377
 5900TIP3   OH239114   4.700   3.137  15.317 -0.0713  0.3693 -0.1336
 5900TIP3    H139115   4.650   3.207  15.359  1.8672  0.6872  1.8254
 5900TIP3    H239116   4.734   3.177  15.237  0.2001  1.3956  0.4693
 5901TIP3   OH239117   2.666   1.830  16.346 -0.2535 -0.1763 -0.3316
 5901TIP3    H139118   2.635   1.822  16.436 -0.5073 -0.2681 -0.4291
 5901TIP3    H239119   2.588   1.850  16.295  0.0279  0.8114 -0.4056
 5902TIP3   OH239120   3.349   0.770  14.371 -0.0645 -0.1826  0.4154
 5902TIP3    H139121   3.323   0.760  14.462  0.4624  1.1419  0.7386
 5902TIP3    H239122   3.272   0.745  14.320 -1.2103  1.4125  1.2906
 5903TIP3   OH239123   0.204   0.562  10.417  0.1060  0.0308  0.0758
 5903TIP3    H139124   0.210   0.470  10.440  4.0245 -0.0482 -0.5311
 5903TIP3    H239125   0.126   0.568  10.361  0.3911 -3.1676 -0.8594
 5904TIP3   OH239126   1.009   2.825   5.323  0.2138  0.2893 -0.3328
 5904TIP3    H139127   0.946   2.807   5.393 -0.2104 -1.1872 -1.0595
 5904TIP3    H239128   0.998   2.753   5.261  1.2968  1.0165 -1.4277
 5905TIP3   OH239129   2.164   0.234  15.460  0.6355  0.2885 -0.1218
 5905TIP3    H139130   2.159   0.310  15.517  0.0032  0.9406 -1.0080
 5905TIP3    H239131   2.195   0.163  15.516 -1.3046  0.5507  1.3607
 5906TIP3   OH239132   5.570   3.082   2.052  0.4212 -0.4219  0.2394
 5906TIP3    H139133   5.562   3.080   2.147  0.2693 -0.3906  0.2276
 5906TIP3    H239134   5.517   3.009   2.022 -0.8292  0.5212  0.0920
 5907TIP3   OH239135   3.453   1.471  14.156 -0.1693 -0.1241 -0.0956
 5907TIP3    H139136   3.546   1.485  14.175 -0.4837  1.8888  0.1586
 5907TIP3    H239137   3.407   1.529  14.217 -1.4100  1.8431 -2.7051
 5908TIP3   OH239138   1.907   2.768  16.466 -0.1110  0.6693  0.0216
 5908TIP3    H139139   1.820   2.730  16.453 -0.5126  1.2716  0.8260
 5908TIP3    H239140   1.948   2.766  16.380  0.0366 -1.8977  0.0771
 5909TIP3   OH239141   6.061   4.136  13.609 -0.3914  0.7518  0.1174
 5909TIP3    H139142   5.982   4.189  13.620 -0.5557  0.5405 -0.0363
 5909TIP3    H239143   6.062   4.113  13.516 -0.5865  0.0712  0.2823
 5910TIP3   OH239144   3.860   4.419   3.498  0.4818 -1.0101  0.1287
 5910TIP3    H139145   3.938   4.472   3.514  0.7127  0.3543 -4.3592
 5910TIP3    H239146   3.884   4.361   3.426 -2.3097 -1.3651 -0.6355
 5911TIP3   OH239147   6.732   5.151   5.641 -0.2388 -0.1850  0.3040
 5911TIP3    H139148   6.813   5.150   5.589 -0.3649  0.6513  0.0667
 5911TIP3    H239149   6.761   5.171   5.730 -0.1133 -0.6332  0.3631
 5912TIP3   OH239150   6.120   5.214  16.560  0.4220  0.2143  0.1779
 5912TIP3    H139151   6.106   5.296  16.609 -0.9715  1.1858 -1.7155
 5912TIP3    H239152   6.205   5.183  16.590  0.0807  1.2410  2.4859
 5913TIP3   OH239153   1.931   3.396  12.483 -0.3300 -0.0036  0.2174
 5913TIP3    H139154   1.971   3.310  12.473  2.6192  1.2010  0.7329
 5913TIP3    H239155   1.885   3.412  12.400 -1.2452 -2.1510  0.2588
 5914TIP3   OH239156   5.658   2.940  11.591 -0.3020  0.2282 -0.1356
 5914TIP3    H139157   5.698   3.014  11.637 -1.3543  0.3352  0.6197
 5914TIP3    H239158   5.696   2.945  11.503  0.9181  0.6527  0.3837
 5915TIP3   OH239159   5.172   4.585  11.737  0.7192 -0.1765  0.4549
 5915TIP3    H139160   5.079   4.596  11.716  0.8305  2.3928  0.9165
 5915TIP3    H239161   5.192   4.495  11.713 -1.7183 -0.5929 -0.3002
 5916TIP3   OH239162   4.509   1.994  12.716 -0.6308 -0.4058 -0.2763
 5916TIP3    H139163   4.566   1.985  12.792  1.3335  0.1617 -1.5943
 5916TIP3    H239164   4.560   2.047  12.654 -1.2938 -2.5237 -2.7958
 5917TIP3   OH239165   5.344   4.589  12.150 -0.0238  0.0131  0.6963
 5917TIP3    H139166   5.278   4.652  12.119  0.2960  1.4179  2.6833
 5917TIP3    H239167   5.315   4.505  12.114 -0.3256  1.2568 -2.2968
 5918TIP3   OH239168   5.191   3.457  11.393  0.3178 -0.2745  0.4327
 5918TIP3    H139169   5.260   3.499  11.342  0.1508  0.3308  0.6925
 5918TIP3    H239170   5.226   3.453  11.482 -0.5571  1.4822  0.9173
 5919TIP3   OH239171   5.553   5.316  15.511  0.1448 -0.3014  0.6505
 5919TIP3    H139172   5.482   5.357  15.560  0.2843  0.2225  0.4248
 5919TIP3    H239173   5.576   5.380  15.444  2.1339  0.3803  1.9013
 5920TIP3   OH239174   1.214   3.055   3.391 -0.0304 -0.8007  0.5574
 5920TIP3    H139175   1.194   3.097   3.308  0.0198 -2.3209 -0.2497
 5920TIP3    H239176   1.308   3.037   3.386  0.6044  1.5750  2.1391
 5921TIP3   OH239177   1.266   3.626  16.270 -0.6060 -0.6037  0.2615
 5921TIP3    H139178   1.291   3.716  16.290  1.1470 -1.1460  0.6401
 5921TIP3    H239179   1.193   3.635  16.208  1.4576  1.1082 -2.1364
 5922TIP3   OH239180   1.019   2.509  13.619 -0.4768  0.6081 -0.0408
 5922TIP3    H139181   0.941   2.541  13.574 -1.3056 -1.4386 -0.1657
 5922TIP3    H239182   0.993   2.505  13.711  0.2302  1.9333  0.2492
 5923TIP3   OH239183   5.173   1.165  15.794  0.7178 -0.4195 -0.3530
 5923TIP3    H139184   5.106   1.137  15.732 -0.7396  0.4648  0.7602
 5923TIP3    H239185   5.195   1.087  15.844 -1.2482 -0.2698  0.8474
 5924TIP3   OH239186   3.738   5.173   2.557  0.1218 -0.0809 -0.0166
 5924TIP3    H139187   3.774   5.188   2.644 -0.3217 -0.6423  0.2695
 5924TIP3    H239188   3.697   5.256   2.533  1.4556  0.5229 -0.2888
 5925TIP3   OH239189   4.724   1.163  13.944 -0.5891  0.6246 -0.2578
 5925TIP3    H139190   4.805   1.211  13.963  0.1742 -0.4105 -0.7778
 5925TIP3    H239191   4.718   1.163  13.849 -0.9144  0.2304 -0.2408
 5926TIP3   OH239192   0.369   3.073   2.170 -0.1854  0.0182  1.3691
 5926TIP3    H139193   0.361   3.161   2.134 -0.4667 -1.1204 -1.6016
 5926TIP3    H239194   0.462   3.064   2.191  0.5575 -0.0266 -1.5128
 5927TIP3   OH239195   2.361   0.241  12.171 -0.1904 -0.2079  0.2812
 5927TIP3    H139196   2.400   0.231  12.084  3.1037  2.1084  1.2952
 5927TIP3    H239197   2.390   0.164  12.220 -1.1721 -0.9768 -0.2916
 5928TIP3   OH239198   6.308   3.367   1.268 -0.1926  0.4841 -0.1711
 5928TIP3    H139199   6.302   3.272   1.278  0.0533  0.4461 -0.3887
 5928TIP3    H239200   6.398   3.388   1.289 -0.5713  0.8360  1.1913
 5929TIP3   OH239201   3.558   6.502  12.489 -0.0199 -0.6659  0.2467
 5929TIP3    H139202   3.653   6.507  12.497 -0.1196  1.1068  0.8394
 5929TIP3    H239203   3.537   6.560  12.416 -0.6965 -0.2632  0.7498
 5930TIP3   OH239204   3.126   1.608   0.333  0.1236 -0.3991  0.1911
 5930TIP3    H139205   3.192   1.671   0.363  0.4299  0.5100 -2.2148
 5930TIP3    H239206   3.042   1.652   0.349  0.3622  1.4589 -2.9175
 5931TIP3   OH239207   5.174   5.560   1.428  0.2842  0.1405 -0.3015
 5931TIP3    H139208   5.146   5.526   1.343  1.1598  2.4053 -1.6102
 5931TIP3    H239209   5.093   5.589   1.470  0.0687  2.2638 -1.9837
 5932TIP3   OH239210   6.560   4.944   1.605 -0.5235  0.0293  0.0765
 5932TIP3    H139211   6.581   5.030   1.568  1.4868  0.9629  3.0495
 5932TIP3    H239212   6.629   4.886   1.572 -0.9392 -0.0942 -0.6079
 5933TIP3   OH239213   4.419   3.395   4.772  0.2176  0.4208  0.5736
 5933TIP3    H139214   4.334   3.354   4.791 -0.3429  1.4187  0.2975
 5933TIP3    H239215   4.421   3.403   4.676  0.2750  1.0930  0.6229
 5934TIP3   OH239216   1.146   6.231  13.964 -0.9718 -0.3346  0.2599
 5934TIP3    H139217   1.212   6.184  13.913  0.4951  0.9297  0.9107
 5934TIP3    H239218   1.130   6.311  13.913 -3.0130 -1.1768 -0.5469
 5935TIP3   OH239219   3.949   2.725   1.031  0.0746 -0.2946  0.6893
 5935TIP3    H139220   3.858   2.704   1.053  0.1074 -0.6108  0.5342
 5935TIP3    H239221   3.944   2.812   0.992 -0.1061 -0.1338  1.0638
 5936TIP3   OH239222   6.521   6.349  16.340 -0.2364 -0.0608  0.1730
 5936TIP3    H139223   6.431   6.362  16.372 -0.9849 -0.3693 -1.6805
 5936TIP3    H239224   6.557   6.283  16.399 -2.6496 -3.0227 -1.3383
 5937TIP3   OH239225   1.226   5.345  16.556  0.2847 -0.1852 -0.3649
 5937TIP3    H139226   1.176   5.303  16.626  1.1979  2.5454  2.1080
 5937TIP3    H239227   1.166   5.346  16.481 -2.1025 -0.0863  1.4239
 5938TIP3   OH239228   3.406   3.362  14.603 -0.0962 -0.4154  0.3139
 5938TIP3    H139229   3.321   3.385  14.640 -0.5540 -1.4096 -0.0654
 5938TIP3    H239230   3.441   3.296  14.663  0.2903 -0.1944  0.3323
 5939TIP3   OH239231   1.537   2.620   4.608 -0.0971  0.0316 -0.3226
 5939TIP3    H139232   1.556   2.714   4.604  0.9019 -0.1859 -1.7113
 5939TIP3    H239233   1.527   2.601   4.701  0.9057  1.2966  0.0786
 5940TIP3   OH239234   4.214   5.911   4.718  0.3405  0.3620 -0.8998
 5940TIP3    H139235   4.175   5.824   4.721 -0.2775  0.6339 -0.9362
 5940TIP3    H239236   4.226   5.936   4.809  0.7837  0.1248 -0.8906
 5941TIP3   OH239237   3.971   6.386   1.386  0.1026  0.1310  0.2116
 5941TIP3    H139238   3.903   6.319   1.396 -1.3242  1.3174 -1.0739
 5941TIP3    H239239   4.012   6.390   1.472 -2.2169  0.1525  1.4215
 5942TIP3   OH239240   2.228   0.922  12.976  0.0997  0.2796 -0.2869
 5942TIP3    H139241   2.287   0.898  12.905  2.2503  0.6324  1.2640
 5942TIP3    H239242   2.238   1.016  12.986  0.5381  0.1240  1.0092
 5943TIP3   OH239243   3.187   6.399  15.722 -0.4571 -0.1545  0.2491
 5943TIP3    H139244   3.108   6.392  15.776 -0.9946 -1.5741 -0.6793
 5943TIP3    H239245   3.218   6.309  15.713  0.7319  0.2845 -0.1874
 5944TIP3   OH239246   2.222   4.553  14.230  0.1691 -0.0554 -0.2101
 5944TIP3    H139247   2.132   4.544  14.263  0.4284 -1.3529  0.2001
 5944TIP3    H239248   2.224   4.499  14.151  0.4976  0.2460 -0.4090
 5945TIP3   OH239249   3.083   6.395   2.194  0.1030  0.2637 -0.6163
 5945TIP3    H139250   3.058   6.480   2.231 -0.4658 -0.9806  2.0799
 5945TIP3    H239251   3.056   6.331   2.260 -0.9465 -2.1944 -3.2210
 5946TIP3   OH239252   3.006   6.324   4.077  0.1778  0.3805 -0.1379
 5946TIP3    H139253   3.028   6.297   3.988 -1.5342  0.5046 -0.6455
 5946TIP3    H239254   2.919   6.363   4.069  0.3551  1.1824  1.4612
 5947TIP3   OH239255   3.595   6.123   0.082 -0.0048 -0.2986  0.5574
 5947TIP3    H139256   3.574   6.212   0.112 -2.0480 -0.9083  1.1102
 5947TIP3    H239257   3.566   6.121  -0.010 -2.7363 -1.1585  1.3375
 5948TIP3   OH239258   0.655   6.425   3.024 -0.2771  0.4780  0.0283
 5948TIP3    H139259   0.568   6.397   2.997  0.3213 -1.6540  0.0978
 5948TIP3    H239260   0.715   6.373   2.969  0.9249 -0.0469  1.7508
 5949TIP3   OH239261   0.949   5.384   2.938  0.4605 -0.1511 -0.0852
 5949TIP3    H139262   0.854   5.386   2.926  0.2987 -2.4823  0.3443
 5949TIP3    H239263   0.963   5.320   3.007  2.3798 -0.1772 -0.4517
 5950TIP3   OH239264   5.354   5.144  14.332  0.1476  0.0655 -0.0007
 5950TIP3    H139265   5.315   5.160  14.246 -2.1692  0.7533  1.0916
 5950TIP3    H239266   5.343   5.050  14.346 -1.1891  0.2329  0.2605
 5951TIP3   OH239267   5.678   2.197  12.629  0.4989  0.4510  0.3115
 5951TIP3    H139268   5.638   2.150  12.556  0.0633  0.8437  0.2967
 5951TIP3    H239269   5.607   2.251  12.665  0.2841 -0.8979  2.0074
 5952TIP3   OH239270   0.755   2.900  15.340  0.4838 -0.2828  0.3970
 5952TIP3    H139271   0.718   2.962  15.403 -0.4611 -0.0993 -0.3176
 5952TIP3    H239272   0.746   2.814  15.383 -1.4782 -0.3445 -0.0212
 5953TIP3   OH239273   4.489   0.788   1.982  0.1587  0.0984  0.2303
 5953TIP3    H139274   4.550   0.728   2.024  0.8993  0.4722 -0.2880
 5953TIP3    H239275   4.506   0.778   1.888 -1.8798 -1.1746 -0.0569
 5954TIP3   OH239276   2.715   6.729   0.603  0.5843 -0.4916 -0.4142
 5954TIP3    H139277   2.701   6.796   0.536  1.0772 -1.1497 -1.1927
 5954TIP3    H239278   2.800   6.751   0.642  0.2073  0.0063  0.1489
 5955TIP3   OH239279   2.205   0.047  15.729  0.1251 -0.4673 -0.1165
 5955TIP3    H139280   2.251   0.126  15.758 -1.1845  0.7044 -1.0707
 5955TIP3    H239281   2.113   0.067  15.745 -0.2119 -1.8948 -0.2038
 5956TIP3   OH239282   2.103   2.156  11.505  0.3100 -0.1494 -0.3886
 5956TIP3    H139283   2.020   2.189  11.539  0.2916 -0.6232  0.0352
 5956TIP3    H239284   2.153   2.235  11.482 -0.7311  0.1351 -1.8169
 5957TIP3   OH239285   4.939   6.433  12.893  0.0531 -0.2973  0.1649
 5957TIP3    H139286   5.027   6.471  12.897 -0.1925  0.3438 -0.3216
 5957TIP3    H239287   4.915   6.417  12.984  0.4042  0.1641  0.3428
 5958TIP3   OH239288   6.778   5.243  11.735  0.9867 -0.0445  0.0428
 5958TIP3    H139289   6.781   5.327  11.780  1.9215 -0.8019  1.4803
 5958TIP3    H239290   6.828   5.257  11.654  0.5184  0.9597 -0.0758
 5959TIP3   OH239291   6.654   2.372  16.229  0.0299  0.1378  0.0244
 5959TIP3    H139292   6.624   2.295  16.180 -0.3907  1.0403 -1.2003
 5959TIP3    H239293   6.581   2.434  16.221  1.6635  1.9433 -1.9917
 5960TIP3   OH239294   3.539   3.151   1.077 -0.2105  0.4572  0.3638
 5960TIP3    H139295   3.551   3.063   1.043  0.3745  1.5647 -2.6697
 5960TIP3    H239296   3.627   3.189   1.077 -0.8512  2.2625 -2.4958
 5961TIP3   OH239297   2.388   5.074  13.141  0.0405 -0.4584 -0.4284
 5961TIP3    H139298   2.318   5.030  13.092 -1.1500  1.1440 -0.2407
 5961TIP3    H239299   2.343   5.141  13.192  1.7989  1.3344 -1.1018
 5962TIP3   OH239300   3.592   5.593  11.023 -0.8194  0.0833 -0.1394
 5962TIP3    H139301   3.633   5.634  11.100 -1.9444  2.1506 -0.5568
 5962TIP3    H239302   3.643   5.513  11.009  2.4869  1.9796 -0.0946
 5963TIP3   OH239303   2.351   1.624  14.596  0.1740 -0.0776 -0.3451
 5963TIP3    H139304   2.370   1.715  14.575 -3.1985  0.7967 -0.1239
 5963TIP3    H239305   2.339   1.623  14.691  0.4046 -0.8291 -0.3147
 5964TIP3   OH239306   3.058   0.790   2.582 -0.0597  0.3567 -0.1584
 5964TIP3    H139307   3.114   0.713   2.581  1.1187  1.1453 -2.3228
 5964TIP3    H239308   3.118   0.863   2.564 -1.4157  1.5446 -0.0259
 5965TIP3   OH239309   5.461   1.751  14.330 -0.3041 -0.0234  0.2550
 5965TIP3    H139310   5.386   1.743  14.388  0.2417 -0.4338  0.9191
 5965TIP3    H239311   5.518   1.814  14.373  0.4790 -0.9358  0.5858
 5966TIP3   OH239312   0.619   3.057  14.526 -0.8707 -0.3126 -0.6423
 5966TIP3    H139313   0.695   3.070  14.469  0.4264 -0.8085  0.8963
 5966TIP3    H239314   0.551   3.112  14.488  0.0429 -0.3546 -2.4520
 5967TIP3   OH239315   4.369   2.145  15.594 -0.3751  0.3196  0.2406
 5967TIP3    H139316   4.302   2.203  15.557 -2.2185 -0.8474  1.6163
 5967TIP3    H239317   4.355   2.061  15.549  2.0411  0.7147 -1.4768
 5968TIP3   OH239318   1.921   4.653   3.874  0.3905  0.4048 -0.1289
 5968TIP3    H139319   1.964   4.643   3.959  0.7433  1.8166 -0.1072
 5968TIP3    H239320   1.838   4.696   3.895  1.0048  1.8706 -0.5764
 5969TIP3   OH239321   5.286   5.171  11.366 -0.0200  0.1735 -0.4687
 5969TIP3    H139322   5.193   5.184  11.386  0.2228  0.7478  0.3373
 5969TIP3    H239323   5.291   5.081  11.332 -0.9644  0.3646 -1.1768
 5970TIP3   OH239324   5.290   0.675  14.564  0.1421 -0.0478 -0.1687
 5970TIP3    H139325   5.319   0.626  14.641 -1.1180 -0.5375  0.0178
 5970TIP3    H239326   5.197   0.690  14.579 -0.2569 -0.6482 -1.8501
 5971TIP3   OH239327   2.756   5.932   1.897  0.2171  0.2433  0.1839
 5971TIP3    H139328   2.818   5.893   1.836 -0.4650  0.9795 -1.0141
 5971TIP3    H239329   2.781   5.897   1.983  1.5610 -0.3460 -0.4273
 5972TIP3   OH239330   3.242   5.135  15.914  0.2319  0.2786  1.0968
 5972TIP3    H139331   3.167   5.125  15.855  0.1087 -0.5504  1.3794
 5972TIP3    H239332   3.231   5.223  15.952  0.3061  0.8169 -0.0780
 5973TIP3   OH239333   0.021   5.043   0.903  0.1237 -0.5588  0.6587
 5973TIP3    H139334  -0.064   5.019   0.939  0.4059 -0.8244  1.1592
 5973TIP3    H239335   0.016   5.137   0.889 -0.6182 -0.7339 -0.3028
 5974TIP3   OH239336   1.105   3.454   3.883  0.0542  0.1403 -0.6584
 5974TIP3    H139337   1.110   3.408   3.967  0.3548  0.7063 -0.3588
 5974TIP3    H239338   1.012   3.468   3.868  0.0479  1.1963  0.2376
 5975TIP3   OH239339   5.107   2.985   2.969 -0.0504 -0.0811 -0.3359
 5975TIP3    H139340   5.056   3.061   2.996  0.0615  0.4940 -1.6979
 5975TIP3    H239341   5.196   3.004   2.998 -0.2770 -0.3307  0.5519
 5976TIP3   OH239342   4.835   6.559   1.572  0.6913 -0.1612  0.2613
 5976TIP3    H139343   4.839   6.655   1.576  1.9211 -0.2376  1.6603
 5976TIP3    H239344   4.750   6.541   1.533  0.4754  1.4971 -0.1502
 5977TIP3   OH239345   5.109   6.248   5.466 -0.1298  0.5226 -0.2528
 5977TIP3    H139346   5.076   6.228   5.554 -0.0171 -0.8616 -0.5119
 5977TIP3    H239347   5.037   6.227   5.407  0.8020 -1.5449 -0.7328
 5978TIP3   OH239348   1.159   6.269  13.507 -0.3362  0.4371 -0.4744
 5978TIP3    H139349   1.150   6.201  13.573  1.0673 -0.6198 -1.3340
 5978TIP3    H239350   1.106   6.239  13.433  2.2741 -1.1018 -1.8625
 5979TIP3   OH239351   4.951   4.203  12.563 -0.7338 -0.1845 -0.1229
 5979TIP3    H139352   4.910   4.240  12.484  0.0605  0.3034 -0.3129
 5979TIP3    H239353   5.045   4.209  12.547 -0.5485 -2.6612 -0.3153
 5980TIP3   OH239354   4.013   4.081   3.641 -0.1628  0.7397 -0.0545
 5980TIP3    H139355   4.067   4.158   3.625 -1.0421  1.3560 -0.1071
 5980TIP3    H239356   3.925   4.115   3.655 -0.4456 -0.2077  0.5843
 5981TIP3   OH239357   3.422   1.063  16.117  0.0704 -0.3638  0.4464
 5981TIP3    H139358   3.358   1.086  16.050 -0.6855  0.5054  1.4632
 5981TIP3    H239359   3.489   1.131  16.111 -0.3302  0.0887  0.9999
 5982TIP3   OH239360   6.691   4.700   4.849 -0.3982 -0.1949 -0.3282
 5982TIP3    H139361   6.621   4.641   4.879  0.7514 -0.7164  1.4971
 5982TIP3    H239362   6.728   4.735   4.930 -1.9140  4.2392 -1.2671
 5983TIP3   OH239363   1.202   0.774   0.153  0.5546  0.1151 -0.1052
 5983TIP3    H139364   1.273   0.773   0.088 -0.5958 -1.4786 -1.4257
 5983TIP3    H239365   1.232   0.715   0.222  0.8091 -0.0311 -0.3363
 5984TIP3   OH239366   4.059   2.502   1.552  0.1749  0.0074 -0.2942
 5984TIP3    H139367   4.009   2.461   1.623 -0.8406  1.1915 -0.3032
 5984TIP3    H239368   4.003   2.493   1.475  0.2969  0.6939 -0.4674
 5985TIP3   OH239369   1.053   1.958  16.473  0.0554 -0.1502 -0.4972
 5985TIP3    H139370   1.107   2.011  16.414  0.0797 -0.5029 -0.7941
 5985TIP3    H239371   0.965   1.960  16.434 -0.0869  0.1905 -0.1675
 5986TIP3   OH239372   1.369   3.997  14.194 -0.6220  0.1994 -0.5605
 5986TIP3    H139373   1.286   4.042  14.206 -0.2671  0.7892 -0.2785
 5986TIP3    H239374   1.363   3.920  14.251 -0.8443  0.4133 -0.2925
 5987TIP3   OH239375   3.288   6.128   0.825  0.2379  0.0819 -0.1186
 5987TIP3    H139376   3.306   6.208   0.775  0.1757  0.3306  0.2556
 5987TIP3    H239377   3.366   6.073   0.810  1.1324  0.9620  1.1160
 5988TIP3   OH239378   4.050   6.306   1.047  0.0034  0.9145  0.4724
 5988TIP3    H139379   4.059   6.366   1.122 -0.7818  2.0700 -0.3234
 5988TIP3    H239380   3.967   6.332   1.006  0.1402 -0.0867 -0.4660
 5989TIP3   OH239381   2.002   0.328   3.082 -0.3437 -0.3150 -0.4014
 5989TIP3    H139382   2.065   0.273   3.128  1.0930  1.5923  0.0115
 5989TIP3    H239383   1.928   0.335   3.142 -0.1088 -0.9270 -0.0264
 5990TIP3   OH239384   5.314   2.114   2.155  0.0395  0.5108 -0.1713
 5990TIP3    H139385   5.237   2.059   2.165  0.9465 -0.9783 -0.9947
 5990TIP3    H239386   5.288   2.199   2.191 -2.1930  0.2678 -1.0595
 5991TIP3   OH239387   0.631   1.555   4.552  0.0748  0.1271 -0.3202
 5991TIP3    H139388   0.538   1.537   4.559  0.0342 -0.0548 -1.2242
 5991TIP3    H239389   0.638   1.650   4.559 -0.3518  0.2948 -1.7887
 5992TIP3   OH239390   3.002   3.650   0.554 -0.4828 -0.5750  0.3893
 5992TIP3    H139391   3.096   3.662   0.537 -0.4732 -0.5935  0.4270
 5992TIP3    H239392   2.963   3.735   0.533 -0.4594 -0.5712  0.3601
 5993TIP3   OH239393   1.850   0.494  16.469 -0.6436 -0.2529  0.3167
 5993TIP3    H139394   1.818   0.572  16.514 -2.1235 -0.7299  0.1549
 5993TIP3    H239395   1.930   0.523  16.424  0.2899  0.4839  2.3466
 5994TIP3   OH239396   3.410   5.891  12.147 -0.0275 -0.5273  0.0896
 5994TIP3    H139397   3.429   5.823  12.213  2.7841 -0.9691 -1.0603
 5994TIP3    H239398   3.431   5.849  12.064 -0.3565  1.0803 -0.8228
 5995TIP3   OH239399   1.191   4.300   4.116  0.6042  0.1960 -0.2306
 5995TIP3    H139400   1.154   4.358   4.181  1.6549  0.5671  0.0537
 5995TIP3    H239401   1.180   4.347   4.033  3.2748  1.8114  0.2156
 5996TIP3   OH239402   2.501   2.454  10.997  0.2686 -0.4719 -0.4616
 5996TIP3    H139403   2.464   2.420  10.916 -0.5300  0.9319 -0.7195
 5996TIP3    H239404   2.572   2.511  10.969  0.4474 -0.5358 -0.1385
 5997TIP3   OH239405   1.757   3.578   4.337  0.4319 -0.1610 -0.2487
 5997TIP3    H139406   1.730   3.489   4.362 -0.6287  0.6245  1.5663
 5997TIP3    H239407   1.684   3.634   4.363  1.3346  1.3460 -0.8159
 5998TIP3   OH239408   4.611   3.103  14.076  0.6062  0.4123 -0.0454
 5998TIP3    H139409   4.679   3.159  14.114 -1.0704  1.0741  2.2126
 5998TIP3    H239410   4.631   3.015  14.110  1.5448  0.1452 -1.2056
 5999TIP3   OH239411   2.735   0.542   2.842 -0.0594  0.0141  0.1314
 5999TIP3    H139412   2.691   0.523   2.925 -0.6816  0.3878 -0.1123
 5999TIP3    H239413   2.672   0.514   2.775  0.2299  0.1983 -0.2169
 6000TIP3   OH239414   0.338   5.718   1.429  0.2055 -0.2310  0.2758
 6000TIP3    H139415   0.277   5.763   1.370  0.6256  0.0659  0.0618
 6000TIP3    H239416   0.414   5.699   1.375  1.5685  2.0747  1.2070
 6001TIP3   OH239417   1.642   6.727  10.642  0.0825 -0.2817  0.0630
 6001TIP3    H139418   1.696   6.806  10.637 -0.3169  0.0482  0.8265
 6001TIP3    H239419   1.594   6.725  10.559  0.3603  0.0780 -0.1094
 6002TIP3   OH239420   1.100   3.135   5.883  0.5728 -0.1897 -0.0714
 6002TIP3    H139421   1.039   3.203   5.911  0.6278  0.1028 -0.6431
 6002TIP3    H239422   1.085   3.127   5.789  0.4888 -1.0516  0.0115
 6003TIP3   OH239423   0.370   0.824  12.121  0.7126 -0.1081  0.0662
 6003TIP3    H139424   0.371   0.772  12.201 -0.2016  0.9713  0.8077
 6003TIP3    H239425   0.307   0.780  12.064  0.1698  0.0073  0.5676
 6004TIP3   OH239426   2.650   4.186  13.169  0.6122  0.0560  0.5043
 6004TIP3    H139427   2.615   4.240  13.099  1.4414 -0.4811 -0.3431
 6004TIP3    H239428   2.632   4.236  13.249 -1.8813 -0.1102  0.1274
 6005TIP3   OH239429   1.652   3.987  11.381  0.7105  0.2258  0.8893
 6005TIP3    H139430   1.636   4.050  11.452  0.9193 -1.0925  2.1425
 6005TIP3    H239431   1.740   3.954  11.398  0.9095  0.1563 -0.2176
 6006TIP3   OH239432   2.788   1.469   2.620 -0.2124  0.0006  0.0264
 6006TIP3    H139433   2.698   1.490   2.645 -0.7887 -1.7642 -0.4118
 6006TIP3    H239434   2.815   1.402   2.682 -0.0958 -1.2314 -1.2830
 6007TIP3   OH239435   4.302   1.201   0.042  0.4472 -0.7957  0.0479
 6007TIP3    H139436   4.280   1.124  -0.011  1.2044 -1.7887  1.1297
 6007TIP3    H239437   4.273   1.177   0.131  0.8624  0.1009  0.4311
 6008TIP3   OH239438   0.700   6.021   0.221  0.1460  0.8191 -0.1864
 6008TIP3    H139439   0.796   6.022   0.218  0.2897  1.6552  2.1638
 6008TIP3    H239440   0.675   6.113   0.222 -0.5162  0.6605  1.1257
 6009TIP3   OH239441   0.934   2.075   4.243  0.2924 -0.6255 -0.1986
 6009TIP3    H139442   0.999   2.041   4.182  0.2092  0.5754 -1.0095
 6009TIP3    H239443   0.869   2.117   4.186  0.9839  1.8959  0.7089
 6010TIP3   OH239444   1.862   4.394  16.455  0.4310 -0.3518  0.4719
 6010TIP3    H139445   1.884   4.431  16.369 -0.4279  0.4893  0.5991
 6010TIP3    H239446   1.946   4.385  16.499  1.0874 -2.3813 -1.0482
 6011TIP3   OH239447   5.144   3.970  14.279 -0.3178  0.0869 -0.1082
 6011TIP3    H139448   5.063   3.948  14.233  0.4636  0.1635 -1.5809
 6011TIP3    H239449   5.177   4.048  14.235  1.1629 -0.6216 -0.3343
 6012TIP3   OH239450   5.250   5.663  12.419  1.2721  0.2150 -0.4150
 6012TIP3    H139451   5.246   5.626  12.331 -2.4724 -0.9393  0.0459
 6012TIP3    H239452   5.214   5.752  12.409 -1.2370 -0.6437  0.0931
 6013TIP3   OH239453   4.300   5.586  15.132  0.5404 -0.6856  0.3646
 6013TIP3    H139454   4.223   5.612  15.182 -0.2736 -0.5825 -0.8948
 6013TIP3    H239455   4.373   5.631  15.175 -0.2567  0.1495  0.8845
 6014TIP3   OH239456   1.219   6.231   4.260 -0.1231 -0.1431  0.2013
 6014TIP3    H139457   1.182   6.155   4.213  1.0841 -0.4606 -0.2798
 6014TIP3    H239458   1.287   6.264   4.201 -0.9908  1.6593  0.1733
 6015TIP3   OH239459   6.450   0.141  16.123 -0.3165  0.1476 -0.3275
 6015TIP3    H139460   6.411   0.162  16.208 -0.9162  2.5106 -1.0981
 6015TIP3    H239461   6.377   0.113  16.069  0.2091 -2.3918  0.1325
 6016TIP3   OH239462   5.796   2.865  14.205 -0.1186  0.0193  0.7968
 6016TIP3    H139463   5.769   2.956  14.216 -2.2877 -0.5433  0.5958
 6016TIP3    H239464   5.862   2.851  14.273  1.9157  2.2930 -0.5197
 6017TIP3   OH239465   2.840   1.686   2.799 -0.9745 -0.3370  0.0533
 6017TIP3    H139466   2.928   1.703   2.833 -1.0006 -0.1300  0.0198
 6017TIP3    H239467   2.834   1.590   2.793 -0.7233 -0.3491 -0.0159
 6018TIP3   OH239468   1.987   1.010   4.651 -0.3637  0.5460 -0.4299
 6018TIP3    H139469   2.003   1.098   4.685 -0.1267  1.3026 -2.3842
 6018TIP3    H239470   1.956   1.023   4.562  1.2136 -1.3825 -1.3634
 6019TIP3   OH239471   5.624   3.977   0.199  0.3745 -0.0331  0.2447
 6019TIP3    H139472   5.627   3.915   0.126  2.8622 -0.0219  0.2279
 6019TIP3    H239473   5.598   3.925   0.275 -0.3886 -0.4444 -0.2868
 6020TIP3   OH239474   2.708   3.404  15.589  0.2039 -0.5384 -0.0056
 6020TIP3    H139475   2.709   3.402  15.685  1.0715  0.5659  0.0194
 6020TIP3    H239476   2.652   3.478  15.567  1.3859  0.2981 -0.3039
 6021TIP3   OH239477   2.739   4.798   5.791 -0.6416 -0.6544  0.6310
 6021TIP3    H139478   2.656   4.828   5.753 -0.6840 -2.0406 -0.4442
 6021TIP3    H239479   2.727   4.810   5.885 -0.9566  1.8434  0.3596
 6022TIP3   OH239480   0.100   5.988   4.086  0.2149  0.0942 -0.2549
 6022TIP3    H139481   0.050   6.004   4.005 -0.0252 -0.3226 -0.1940
 6022TIP3    H239482   0.055   5.914   4.127  0.7383 -0.1258 -0.0737
 6023TIP3   OH239483   1.775   0.631  11.539  0.1183 -0.2597 -0.2498
 6023TIP3    H139484   1.839   0.701  11.550 -1.3258  1.2567 -1.0514
 6023TIP3    H239485   1.713   0.645  11.610 -0.2080 -0.7150 -0.4402
 6024TIP3   OH239486   2.129   0.838   0.544  0.1334  0.0447  0.3608
 6024TIP3    H139487   2.142   0.932   0.560 -1.4978  0.5467 -0.9441
 6024TIP3    H239488   2.082   0.807   0.622 -0.4135  0.6134  0.2701
 6025TIP3   OH239489   3.048   2.809   3.772 -0.2679 -0.1585  0.7109
 6025TIP3    H139490   3.035   2.786   3.864 -1.2311  0.5329  0.7642
 6025TIP3    H239491   3.078   2.900   3.774  1.1196 -0.5829  0.3941
 6026TIP3   OH239492   0.996   4.740   0.597  0.7122  0.3342  0.2363
 6026TIP3    H139493   1.006   4.646   0.611  1.2615  0.5403  1.3433
 6026TIP3    H239494   0.904   4.751   0.576  0.6704 -0.4717 -0.0317
 6027TIP3   OH239495   5.143   6.634  13.004 -0.3193  0.2047 -0.5521
 6027TIP3    H139496   5.167   6.550  12.965  0.2400  1.1553 -2.3509
 6027TIP3    H239497   5.227   6.679  13.016 -0.6747  0.8288 -0.3902
 6028TIP3   OH239498   1.743   4.377  15.241 -0.4638  0.0882 -0.2896
 6028TIP3    H139499   1.701   4.429  15.309  0.9648  1.0110 -0.0953
 6028TIP3    H239500   1.833   4.409  15.237 -0.1232 -0.9408 -1.6154
 6029TIP3   OH239501   5.554   2.097  12.401  0.0101  0.2259  0.3078
 6029TIP3    H139502   5.628   2.090  12.341  0.9187 -0.0355  1.4124
 6029TIP3    H239503   5.512   2.180  12.380  0.9480  0.6277  0.0116
 6030TIP3   OH239504   1.818   4.148   4.271  0.3705  0.2123  0.3408
 6030TIP3    H139505   1.830   4.054   4.268 -1.2043 -0.0159  0.3198
 6030TIP3    H239506   1.902   4.183   4.300  1.0462 -1.1700  0.0724
 6031TIP3   OH239507   6.017   4.367   1.100  0.2684  0.3347 -0.1828
 6031TIP3    H139508   5.955   4.355   1.028  1.2887 -1.7693 -0.8074
 6031TIP3    H239509   6.068   4.444   1.076  0.5589 -0.3063 -1.7394
 6032TIP3   OH239510   6.161   5.490   0.136 -0.2204  0.6256  0.5608
 6032TIP3    H139511   6.157   5.519   0.227  1.2173  0.6359  0.6398
 6032TIP3    H239512   6.244   5.443   0.129 -1.0000 -0.6635 -0.3843
 6033TIP3   OH239513   0.844   2.981  11.899  0.1621  0.3935 -0.0038
 6033TIP3    H139514   0.910   2.913  11.884 -0.9237 -0.7722  0.2601
 6033TIP3    H239515   0.891   3.063  11.890  0.7762 -0.2073 -4.3296
 6034TIP3   OH239516   6.261   2.944  12.091 -0.1372 -0.4137 -0.1676
 6034TIP3    H139517   6.179   2.958  12.044 -0.6383 -0.5793  0.6469
 6034TIP3    H239518   6.249   2.861  12.136  0.6429 -0.6476 -0.3733
 6035TIP3   OH239519   4.346   0.798  15.761  0.1785 -0.1019  0.0123
 6035TIP3    H139520   4.271   0.810  15.819 -1.2092  1.0034 -1.9318
 6035TIP3    H239521   4.379   0.887  15.745  0.9893 -0.4529 -0.3438
 6036TIP3   OH239522   0.844   0.890  14.816  0.2426  0.1473  0.1135
 6036TIP3    H139523   0.938   0.889  14.801  0.4431  1.8737  1.0676
 6036TIP3    H239524   0.831   0.834  14.893  0.5685  0.4277  0.3742
 6037TIP3   OH239525   3.959   2.162  14.455  0.1609 -0.5204  0.3570
 6037TIP3    H139526   3.995   2.078  14.482 -0.2184 -0.8782 -0.2418
 6037TIP3    H239527   4.035   2.222  14.455  0.4754 -0.9159  0.5475
 6038TIP3   OH239528   1.809   6.471  11.995 -0.2159  0.0536  0.5734
 6038TIP3    H139529   1.801   6.384  12.034 -0.6415  0.8276  2.2827
 6038TIP3    H239530   1.730   6.517  12.024  1.5497  2.0609  2.4864
 6039TIP3   OH239531   2.819   5.260   4.224  0.4254 -0.2075  0.8342
 6039TIP3    H139532   2.738   5.298   4.188  0.7754 -0.6034 -0.4043
 6039TIP3    H239533   2.887   5.285   4.161  1.2098 -0.2108  1.6633
 6040TIP3   OH239534   2.556   3.852  10.866 -0.3711 -0.4213  0.1981
 6040TIP3    H139535   2.586   3.767  10.898  2.0435  0.6154  0.9001
 6040TIP3    H239536   2.575   3.851  10.772  1.0880 -0.1286  0.4716
 6041TIP3   OH239537   4.234   5.166   6.524 -0.3176  0.1441  0.5086
 6041TIP3    H139538   4.325   5.138   6.515 -0.2404  0.2753  0.8481
 6041TIP3    H239539   4.183   5.097   6.481 -0.0446  0.2011  0.0820
 6042TIP3   OH239540   1.990   2.177   2.673  0.4377 -0.1947  0.3065
 6042TIP3    H139541   2.007   2.138   2.759  1.1644 -1.4289 -0.3665
 6042TIP3    H239542   1.895   2.178   2.666  0.2831  1.5867  1.8335
 6043TIP3   OH239543   0.265   2.978  10.612  0.1927 -0.6365 -0.3199
 6043TIP3    H139544   0.325   3.032  10.663  1.0756 -1.7122 -0.1784
 6043TIP3    H239545   0.261   3.020  10.526 -0.7632  0.7971  0.3877
 6044TIP3   OH239546   1.847   4.128  12.151 -0.2621  0.2378  0.0098
 6044TIP3    H139547   1.773   4.120  12.091 -0.4826 -0.3235  0.3466
 6044TIP3    H239548   1.902   4.053  12.132  0.1868  0.6138 -0.1860
 6045TIP3   OH239549   3.079   4.183  16.482  0.3633 -0.3705  0.2258
 6045TIP3    H139550   3.085   4.181  16.386 -1.0165 -0.2436  0.1152
 6045TIP3    H239551   2.993   4.145  16.502 -0.3490  1.6025  1.2679
 6046TIP3   OH239552   6.269   3.085   0.070  0.5165 -0.1205  0.2649
 6046TIP3    H139553   6.362   3.107   0.064  0.2813  1.4365  1.7604
 6046TIP3    H239554   6.234   3.141   0.139 -2.0828  1.2002 -1.9225
 6047TIP3   OH239555   0.909   4.884   4.863  0.7765  0.2788 -0.1071
 6047TIP3    H139556   0.917   4.807   4.807  2.2142  0.5817 -0.3526
 6047TIP3    H239557   0.878   4.850   4.947  0.6412 -0.4521 -0.4462
 6048TIP3   OH239558   2.442   2.287  15.520  0.3045  0.2291 -0.2599
 6048TIP3    H139559   2.531   2.298  15.488  0.0799  0.6406 -0.7729
 6048TIP3    H239560   2.407   2.376  15.524  0.1856  0.1485  0.7501
 6049TIP3   OH239561   4.428   3.716   6.196  0.2941 -0.3602  0.0804
 6049TIP3    H139562   4.338   3.684   6.184  0.1388  0.5500 -1.5682
 6049TIP3    H239563   4.418   3.795   6.249 -0.0113  0.2185 -0.8075
 6050TIP3   OH239564   4.458   3.260   2.788 -0.3054  0.2006 -0.3770
 6050TIP3    H139565   4.414   3.282   2.871  0.3255 -1.6833  0.5216
 6050TIP3    H239566   4.389   3.265   2.722 -0.9305  1.2641  0.3272
 6051TIP3   OH239567   4.627   3.765  16.998 -0.3392 -0.1107 -0.2881
 6051TIP3    H139568   4.704   3.744  16.946  0.9392  1.2108  0.9395
 6051TIP3    H239569   4.591   3.843  16.957  0.4073  0.6648  0.4603
 6052TIP3   OH239570   2.186   2.141   1.263  0.4691 -0.2644  0.2553
 6052TIP3    H139571   2.185   2.095   1.179  2.5894  0.1669 -0.0592
 6052TIP3    H239572   2.170   2.073   1.328  1.0932 -1.0306 -0.3737
 6053TIP3   OH239573   3.699   5.518   0.511 -0.6084 -0.0348  0.5091
 6053TIP3    H139574   3.675   5.451   0.446  1.9914 -1.0330  0.4420
 6053TIP3    H239575   3.717   5.596   0.459  1.6875 -0.8883 -0.1391
 6054TIP3   OH239576   3.697   0.108  13.709  0.0717 -0.4440  0.3447
 6054TIP3    H139577   3.682   0.129  13.801  0.2151 -0.5974  0.4043
 6054TIP3    H239578   3.771   0.163  13.684  0.8520 -1.3171  0.6738
 6055TIP3   OH239579   0.909   1.370  15.476  1.0133 -0.0178 -0.2588
 6055TIP3    H139580   0.828   1.414  15.448  0.0481 -1.2986  0.3933
 6055TIP3    H239581   0.946   1.335  15.395  0.9141  0.5622 -0.5612
 6056TIP3   OH239582   3.590   4.970  10.978 -0.0693 -0.4754 -0.3663
 6056TIP3    H139583   3.646   4.979  11.056  0.1069  1.9226 -0.6850
 6056TIP3    H239584   3.576   4.876  10.970  0.5962 -0.8736  2.0730
 6057TIP3   OH239585   5.372   2.060   0.935  0.9697 -0.2314 -0.0778
 6057TIP3    H139586   5.305   2.060   1.004  1.2461  0.9563  0.2118
 6057TIP3    H239587   5.358   1.978   0.888 -1.5936  0.5963 -0.9256
 6058TIP3   OH239588   6.203   2.658   5.978 -0.1169  0.2699 -0.1749
 6058TIP3    H139589   6.270   2.721   6.005 -1.3456  2.1757 -1.3374
 6058TIP3    H239590   6.161   2.631   6.060  1.5577 -0.4142  0.5008
 6059TIP3   OH239591   1.081   4.363  13.103 -0.1735  0.0947 -0.1673
 6059TIP3    H139592   1.169   4.400  13.114 -0.9118  2.4447 -1.4729
 6059TIP3    H239593   1.044   4.364  13.191  1.1243 -1.0312  0.4158
 6060TIP3   OH239594   3.243   3.619   1.763  0.3916  0.3065 -0.1200
 6060TIP3    H139595   3.236   3.621   1.667 -1.4701 -0.6198 -0.0389
 6060TIP3    H239596   3.274   3.530   1.782  2.1989  0.9482  0.1037
 6061TIP3   OH239597   5.588   6.324   5.039 -0.2278 -0.0368  0.1292
 6061TIP3    H139598   5.671   6.357   5.006 -0.6518  1.3267  0.3234
 6061TIP3    H239599   5.609   6.279   5.120  0.3430  0.1051  0.0585
 6062TIP3   OH239600   5.157   2.510  14.068 -0.2984 -0.0412 -0.7127
 6062TIP3    H139601   5.136   2.546  13.981 -1.3193  0.0118 -0.4534
 6062TIP3    H239602   5.080   2.458  14.092 -0.1017  0.0850  0.2346
 6063TIP3   OH239603   0.752   2.823   4.621 -0.5234 -0.4394  0.1882
 6063TIP3    H139604   0.771   2.735   4.589  0.3848 -0.1504 -0.1103
 6063TIP3    H239605   0.699   2.864   4.553  0.9657 -0.0016 -0.7426
 6064TIP3   OH239606   4.974   6.552   2.751 -0.0464  0.2001 -0.2994
 6064TIP3    H139607   4.994   6.541   2.844  0.0114  0.7870 -0.2370
 6064TIP3    H239608   5.057   6.580   2.712  0.4368 -1.8911 -0.8782
 6065TIP3   OH239609   4.423   2.595   5.431  0.4681 -0.6364 -0.0439
 6065TIP3    H139610   4.463   2.660   5.373  1.4126 -0.2574  0.9944
 6065TIP3    H239611   4.341   2.636   5.459  1.2590  0.3259  0.9439
 6066TIP3   OH239612   5.421   6.372   0.835  0.2453  0.2213 -0.0952
 6066TIP3    H139613   5.349   6.421   0.873 -0.3747 -0.0689 -0.8561
 6066TIP3    H239614   5.380   6.297   0.792  1.1347 -0.7359  0.6701
 6067TIP3   OH239615   6.356   3.119  13.016  0.1448  0.0564  0.6908
 6067TIP3    H139616   6.291   3.150  12.954 -2.8313 -2.7810  2.0906
 6067TIP3    H239617   6.352   3.180  13.089  0.4261  0.9333 -0.0201
 6068TIP3   OH239618   5.279   4.124  16.231 -0.5466  0.4999 -0.1989
 6068TIP3    H139619   5.207   4.183  16.253 -0.6234  0.2252  0.3197
 6068TIP3    H239620   5.353   4.182  16.212  0.1813  0.7965  3.0119
 6069TIP3   OH239621   3.790   2.749  16.655  0.3592 -0.0483  0.3995
 6069TIP3    H139622   3.826   2.702  16.730  2.0664  0.6173  0.0564
 6069TIP3    H239623   3.696   2.750  16.670  0.5980 -0.5319  2.1765
 6070TIP3   OH239624   0.012   2.729  15.370 -0.1227  0.3199 -0.3294
 6070TIP3    H139625  -0.039   2.808  15.350 -0.7926  1.1651  3.8018
 6070TIP3    H239626   0.081   2.759  15.430  0.2900 -2.0284  0.4855
 6071TIP3   OH239627   5.997   0.299  14.549 -0.1903 -0.0407 -0.7440
 6071TIP3    H139628   6.086   0.274  14.575  0.7234  2.9049 -0.7584
 6071TIP3    H239629   5.978   0.244  14.473  0.5225 -2.5890  0.8067
 6072TIP3   OH239630   6.525   2.667   2.689  0.7644 -0.1329 -0.0343
 6072TIP3    H139631   6.468   2.615   2.747 -0.2937  0.8154 -0.2019
 6072TIP3    H239632   6.482   2.752   2.684  1.5333  0.1972 -1.1987
 6073TIP3   OH239633   4.115   0.245   3.430 -0.2414  0.2461 -0.6893
 6073TIP3    H139634   4.039   0.219   3.483  0.0849  3.3095  1.5505
 6073TIP3    H239635   4.082   0.314   3.373  0.5318  0.4622 -0.8839
 6074TIP3   OH239636   1.049   2.161  10.521  0.1734  0.2981 -0.2927
 6074TIP3    H139637   0.958   2.141  10.543  0.4383 -0.1361  0.4330
 6074TIP3    H239638   1.094   2.076  10.523  0.4392  0.3977 -1.4245
 6075TIP3   OH239639   2.883   0.240   4.693 -0.6034  0.0118 -0.2403
 6075TIP3    H139640   2.921   0.194   4.768 -1.2293 -0.5011 -0.2294
 6075TIP3    H239641   2.892   0.333   4.715 -1.1240 -0.1375  0.6490
 6076TIP3   OH239642   1.957   2.207  12.899  0.0280 -0.0867 -0.3732
 6076TIP3    H139643   1.984   2.298  12.891  2.5282 -0.6263  1.0216
 6076TIP3    H239644   2.026   2.157  12.855 -0.2817 -1.4050  0.5881
 6077TIP3   OH239645   0.644   0.212   3.091 -0.2005 -0.0262 -0.9161
 6077TIP3    H139646   0.688   0.138   3.135 -0.8060 -0.2228 -0.6356
 6077TIP3    H239647   0.580   0.171   3.034  0.1906  0.2535 -1.5682
 6078TIP3   OH239648   1.472   2.902   0.272 -0.6203  0.3296  0.0855
 6078TIP3    H139649   1.554   2.863   0.241 -0.5319 -1.8385  2.6766
 6078TIP3    H239650   1.407   2.879   0.206  0.2702 -0.6722 -0.4710
 6079TIP3   OH239651   5.075   4.988  15.134  0.1460 -0.0626 -0.3770
 6079TIP3    H139652   5.005   4.980  15.070 -0.1443 -1.2273  0.0558
 6079TIP3    H239653   5.149   4.943  15.095  0.7792  1.4094 -0.9544
 6080TIP3   OH239654   1.077   4.273   4.571 -0.0233  0.2370  0.0981
 6080TIP3    H139655   1.149   4.217   4.541 -0.5197 -0.4453  0.1469
 6080TIP3    H239656   1.007   4.255   4.508 -0.7190 -0.3983  1.0313
 6081TIP3   OH239657   0.001   3.634  12.718  0.4847  0.3039 -0.4686
 6081TIP3    H139658  -0.067   3.569  12.700  1.3451 -0.4335 -1.1108
 6081TIP3    H239659  -0.022   3.709  12.662 -0.6534  0.6983  0.4646
 6082TIP3   OH239660   2.126   2.112  17.000  0.1325  0.6552  0.2352
 6082TIP3    H139661   2.216   2.125  17.028 -0.0625  3.5580 -0.1878
 6082TIP3    H239662   2.131   2.112  16.904 -0.2928  0.3153  0.2078
 6083TIP3   OH239663   0.332   3.502  13.682  0.1755  0.2983 -0.1036
 6083TIP3    H139664   0.256   3.551  13.715 -0.2635  0.9152 -1.9169
 6083TIP3    H239665   0.302   3.411  13.679  0.8217 -0.1088  2.7966
 6084TIP3   OH239666   1.870   5.028   1.226 -0.5154 -0.8625 -0.0650
 6084TIP3    H139667   1.846   5.051   1.136  1.5480  0.0887 -0.4316
 6084TIP3    H239668   1.913   4.943   1.218  3.4347  0.9750 -0.7536
 6085TIP3   OH239669   0.222   0.744  11.922 -0.5117 -0.5111  0.0336
 6085TIP3    H139670   0.133   0.762  11.891 -0.9690 -1.8930  0.5000
 6085TIP3    H239671   0.276   0.751  11.843 -1.2567 -1.1901 -0.5477
 6086TIP3   OH239672   1.766   5.520   0.559  0.2930 -0.1426  0.1098
 6086TIP3    H139673   1.841   5.504   0.500  0.4189  0.3059  0.1455
 6086TIP3    H239674   1.804   5.566   0.634  0.0576 -0.3298  0.3448
 6087TIP3   OH239675   4.840   2.070   2.702  0.1358 -0.1367 -0.4899
 6087TIP3    H139676   4.767   2.076   2.764  0.6500 -2.4422  0.4595
 6087TIP3    H239677   4.844   1.978   2.679  1.0726  0.3910 -2.6676
 6088TIP3   OH239678   2.198   0.435   5.154 -0.1496  0.2816 -0.1567
 6088TIP3    H139679   2.134   0.419   5.223  0.7344 -1.2316  0.3559
 6088TIP3    H239680   2.264   0.491   5.195 -0.7197  1.1706 -0.4406
 6089TIP3   OH239681   0.949   3.054  13.223  0.3960  0.3921  0.5152
 6089TIP3    H139682   1.003   3.005  13.161  0.6509  0.9232  0.3183
 6089TIP3    H239683   0.927   2.989  13.291  0.0090 -0.2226 -0.1814
 6090TIP3   OH239684   3.486   3.484  15.150  0.6037 -0.1105 -0.0925
 6090TIP3    H139685   3.452   3.516  15.233  0.0191  0.1769 -0.4331
 6090TIP3    H239686   3.443   3.538  15.084 -0.9912 -2.0573 -0.7512
 6091TIP3   OH239687   1.701   4.421   2.084  0.7999 -0.4455 -0.1524
 6091TIP3    H139688   1.750   4.500   2.060  0.2147  0.1833  0.6421
 6091TIP3    H239689   1.744   4.389   2.164  2.6771 -2.4630 -1.8683
 6092TIP3   OH239690   0.465   6.214  13.080 -0.2433  0.6068  0.4278
 6092TIP3    H139691   0.515   6.223  13.161 -2.0606  1.1381  1.5722
 6092TIP3    H239692   0.484   6.294  13.031  0.2374  0.6692  0.7166
 6093TIP3   OH239693   0.723   0.563  15.858 -0.1774  1.0570 -0.9615
 6093TIP3    H139694   0.759   0.632  15.914  0.0180  0.9028 -0.8969
 6093TIP3    H239695   0.699   0.607  15.777  0.2010  1.1540 -1.0239
 6094TIP3   OH239696   0.469   5.469   4.483 -0.0436 -0.2596 -0.5273
 6094TIP3    H139697   0.500   5.381   4.464  0.8107 -0.2049  0.4895
 6094TIP3    H239698   0.409   5.490   4.412 -0.8989 -1.9791 -0.3618
 6095TIP3   OH239699   0.471   1.450  12.731  0.0722 -0.3358 -0.5240
 6095TIP3    H139700   0.464   1.503  12.810 -0.4889  1.0771 -1.4789
 6095TIP3    H239701   0.462   1.360  12.762 -0.4719  0.1972  0.9760
 6096TIP3   OH239702   1.016   1.417  10.833 -0.0703  0.1080  0.3046
 6096TIP3    H139703   0.986   1.507  10.821 -0.7664  0.1699  2.0495
 6096TIP3    H239704   1.057   1.417  10.920  2.7190 -0.5948 -0.9124
 6097TIP3   OH239705   6.516   2.244  14.750 -0.5761 -0.0339  0.1110
 6097TIP3    H139706   6.547   2.172  14.805 -0.0981  0.8904  1.0758
 6097TIP3    H239707   6.493   2.313  14.812 -1.6222  0.4310 -0.7662
 6098TIP3   OH239708   0.959   4.007   3.974 -0.1567  0.0207 -0.2043
 6098TIP3    H139709   0.918   4.026   4.059 -2.3332  2.8064 -1.6959
 6098TIP3    H239710   0.941   4.085   3.921  4.6328  0.2265 -2.0471
 6099TIP3   OH239711   6.648   0.898  13.675 -0.3714 -0.0990 -0.4662
 6099TIP3    H139712   6.577   0.875  13.615 -1.0806  2.0033 -0.4860
 6099TIP3    H239713   6.714   0.938  13.619  1.0680 -2.3310 -0.5032
 6100TIP3   OH239714   3.742   5.980   1.002  0.0448 -0.1866 -0.3823
 6100TIP3    H139715   3.794   5.919   0.949 -0.1331 -1.1489  0.5112
 6100TIP3    H239716   3.758   5.953   1.092 -0.1235  1.0436  0.0299
 6101TIP3   OH239717   2.741   4.313  11.516 -0.5287 -0.0773  0.0627
 6101TIP3    H139718   2.813   4.277  11.569 -0.1625  0.7938  0.1730
 6101TIP3    H239719   2.681   4.239  11.504  1.1936 -1.3327 -1.4910
 6102TIP3   OH239720   3.340   2.455  15.858 -0.7639  1.0905 -0.1859
 6102TIP3    H139721   3.420   2.428  15.903 -0.9566 -1.0446 -1.0123
 6102TIP3    H239722   3.370   2.486  15.773 -0.8064  0.0952 -0.5748
 6103TIP3   OH239723   6.709   5.005  13.478 -0.2648  0.2534 -0.2981
 6103TIP3    H139724   6.746   5.033  13.394 -1.2843  1.2352 -0.4611
 6103TIP3    H239725   6.768   5.042  13.544  0.5498 -0.5356 -0.5620
 6104TIP3   OH239726   6.493   6.543  13.870  0.1560 -0.2366  0.1513
 6104TIP3    H139727   6.532   6.491  13.941 -0.1109 -0.4704  0.1289
 6104TIP3    H239728   6.514   6.634  13.893 -1.9661 -0.0985  1.8184
 6105TIP3   OH239729   2.299   2.507  15.933  0.1674 -0.7459  0.2252
 6105TIP3    H139730   2.295   2.416  15.904  2.4793 -1.1325  0.8827
 6105TIP3    H239731   2.341   2.503  16.019  0.1586  0.9216  0.3437
 6106TIP3   OH239732   5.116   3.498   1.929  1.0089 -0.2349 -0.5568
 6106TIP3    H139733   5.125   3.592   1.916 -0.5410 -0.2408 -1.8544
 6106TIP3    H239734   5.149   3.483   2.018  2.0171  1.3873 -0.6155
 6107TIP3   OH239735   1.358   1.396  12.560 -0.2038 -0.4719  0.3480
 6107TIP3    H139736   1.340   1.378  12.653  1.4215  0.0664  0.7949
 6107TIP3    H239737   1.354   1.491  12.553 -3.2203 -0.5720 -0.8170
 6108TIP3   OH239738   2.169   2.821   1.525 -0.1034  0.2942 -0.2999
 6108TIP3    H139739   2.097   2.874   1.557 -0.5831 -0.8565  0.5977
 6108TIP3    H239740   2.128   2.755   1.469  0.0637 -1.0612  1.0915
 6109TIP3   OH239741   1.524   1.870   2.162 -0.0605 -0.6148 -0.1597
 6109TIP3    H139742   1.575   1.902   2.088 -1.0139  0.3846 -0.4013
 6109TIP3    H239743   1.436   1.857   2.128 -0.3035 -1.0145  0.5878
 6110TIP3   OH239744   3.919   0.326  11.626 -0.1093 -0.1056  1.5363
 6110TIP3    H139745   3.979   0.364  11.691  1.0851 -0.3541  0.6182
 6110TIP3    H239746   3.969   0.254  11.588 -0.5084  0.4800 -0.1535
 6111TIP3   OH239747   5.778   5.048   2.554 -0.5792 -0.2173 -0.3191
 6111TIP3    H139748   5.815   5.132   2.527 -0.5218  0.2880  1.2417
 6111TIP3    H239749   5.851   4.987   2.551 -0.0250  0.3522  0.8786
 6112TIP3   OH239750   6.283   3.898  16.742  0.6250 -0.4908 -0.1750
 6112TIP3    H139751   6.240   3.814  16.756  1.5735 -0.9130  0.3479
 6112TIP3    H239752   6.249   3.955  16.811 -0.7695 -0.1304 -1.1367
 6113TIP3   OH239753   4.516   3.309  15.446  0.0935 -0.3950 -0.3989
 6113TIP3    H139754   4.489   3.334  15.535  0.2562 -0.1594 -0.4154
 6113TIP3    H239755   4.434   3.301  15.398 -0.1897 -2.8531  0.3584
 6114TIP3   OH239756   6.431   5.222  14.996  0.0971  0.4470  0.2017
 6114TIP3    H139757   6.416   5.129  14.976 -0.5245  0.4119  0.7954
 6114TIP3    H239758   6.489   5.221  15.072  1.9917  0.5772 -1.1604
 6115TIP3   OH239759   0.673   5.237  16.915 -0.7093 -0.5919 -0.1364
 6115TIP3    H139760   0.608   5.303  16.940 -0.8136 -0.7241 -0.0542
 6115TIP3    H239761   0.654   5.218  16.823 -0.4219 -0.2151 -0.2757
 6116TIP3   OH239762   0.559   3.179   0.095 -0.1760  0.0113 -0.6947
 6116TIP3    H139763   0.652   3.189   0.073 -0.1403  0.3163 -0.4195
 6116TIP3    H239764   0.532   3.267   0.121  0.1630 -0.5798  1.9330
 6117TIP3   OH239765   0.311   2.173   3.062 -0.1763 -0.2461 -0.6539
 6117TIP3    H139766   0.345   2.122   3.135  1.2303  0.8788 -0.4737
 6117TIP3    H239767   0.379   2.238   3.044 -2.2236  2.1232 -0.3099
 6118TIP3   OH239768   0.239   3.819  13.393 -1.3218 -0.1930  0.0124
 6118TIP3    H139769   0.296   3.825  13.469  0.7420  0.2054 -1.4944
 6118TIP3    H239770   0.192   3.736  13.404 -1.9674  0.4234  2.2622
 6119TIP3   OH239771   2.706   2.272  12.482 -0.5685 -0.1858 -0.0700
 6119TIP3    H139772   2.629   2.225  12.451 -1.5828  0.7876  0.9067
 6119TIP3    H239773   2.753   2.208  12.536  1.1950 -1.9080 -3.2910
 6120TIP3   OH239774   0.572   2.363  13.439 -0.0076 -0.2594 -0.3363
 6120TIP3    H139775   0.527   2.447  13.440 -1.2518 -0.9002  0.9341
 6120TIP3    H239776   0.586   2.344  13.346 -1.7384  0.2912 -0.7386
 6121TIP3   OH239777   2.086   1.435  15.081  0.3973 -0.0007 -0.7239
 6121TIP3    H139778   2.087   1.350  15.036 -0.8872 -1.2040  1.3528
 6121TIP3    H239779   2.008   1.479  15.049  0.0129 -0.4478 -0.4222
 6122TIP3   OH239780   3.388   0.835  12.919 -0.4518 -0.4190  0.1805
 6122TIP3    H139781   3.455   0.862  12.982 -0.2602  0.7378 -0.4815
 6122TIP3    H239782   3.306   0.845  12.967 -0.2751 -0.0599  0.4207
 6123TIP3   OH239783   0.201   1.160   5.490  0.1286  0.3253 -0.8473
 6123TIP3    H139784   0.194   1.068   5.466 -1.7554  0.7666 -2.3233
 6123TIP3    H239785   0.134   1.172   5.557  2.6590 -0.0247  1.9090
 6124TIP3   OH239786   3.951   3.917  14.450  0.1570 -0.0019 -0.1970
 6124TIP3    H139787   4.027   3.962  14.486 -0.3190  1.0433 -0.4597
 6124TIP3    H239788   3.884   3.924  14.518 -0.0427  0.0474 -0.3943
 6125TIP3   OH239789   2.502   0.190   5.451  0.1124  0.6422  0.1847
 6125TIP3    H139790   2.437   0.226   5.511  0.7396 -0.8462  1.8420
 6125TIP3    H239791   2.538   0.114   5.497  1.1487 -0.1402 -1.7889
 6126TIP3   OH239792   0.197   5.609   2.657 -0.2390  0.2568 -0.1285
 6126TIP3    H139793   0.259   5.591   2.587 -0.6380  2.3667 -1.1092
 6126TIP3    H239794   0.248   5.602   2.738  0.9573  0.7293 -0.8241
 6127TIP3   OH239795   2.805   2.171  11.667  0.0373 -0.4317  0.0711
 6127TIP3    H139796   2.717   2.159  11.702  0.5107  1.1167  1.9269
 6127TIP3    H239797   2.835   2.082  11.648 -1.4008 -1.0915  0.7507
 6128TIP3   OH239798   1.325   2.958   5.119 -0.1233 -0.3797  0.0053
 6128TIP3    H139799   1.252   2.934   5.062  0.3535  0.4955 -1.0222
 6128TIP3    H239800   1.403   2.940   5.066  0.2941  1.8499 -0.2623
 6129TIP3   OH239801   2.593   2.473  12.101 -0.0110  0.0023  0.4148
 6129TIP3    H139802   2.648   2.552  12.107  0.8384 -0.5632  0.2291
 6129TIP3    H239803   2.556   2.476  12.013  0.8570 -0.3302  0.0224
 6130TIP3   OH239804   2.694   5.210   2.373  0.6667  0.3916 -0.0969
 6130TIP3    H139805   2.755   5.137   2.365  0.9576  0.5444  0.6875
 6130TIP3    H239806   2.744   5.279   2.417 -0.1514  0.4172  0.8202
 6131TIP3   OH239807   6.306   1.712   4.968 -0.1225 -0.1810  0.2875
 6131TIP3    H139808   6.214   1.703   4.992 -1.2048  0.2569 -3.1290
 6131TIP3    H239809   6.323   1.806   4.969  0.7666 -0.3208  2.2444
 6132TIP3   OH239810   6.277   6.169   4.661 -0.4345 -0.2742 -0.0437
 6132TIP3    H139811   6.358   6.212   4.634  0.5438 -2.5862 -0.9632
 6132TIP3    H239812   6.232   6.236   4.713  2.1862  0.9779  0.8025
 6133TIP3   OH239813   5.262   2.376  15.170  0.1625 -0.1673 -0.0525
 6133TIP3    H139814   5.205   2.434  15.218  0.6449 -0.7443  1.2670
 6133TIP3    H239815   5.329   2.433  15.132 -0.4794  0.3406 -0.4443
 6134TIP3   OH239816   4.068   5.626  15.985 -0.6412 -0.3738  0.2460
 6134TIP3    H139817   3.985   5.607  16.030 -0.7591  0.2129  0.2808
 6134TIP3    H239818   4.069   5.721  15.975  0.3611 -0.3055  0.8809
 6135TIP3   OH239819   4.541   6.133   4.537  0.0828 -0.0110  0.1536
 6135TIP3    H139820   4.621   6.102   4.494 -0.1972 -1.0765  0.3655
 6135TIP3    H239821   4.566   6.216   4.577  0.4102  0.9092 -1.8455
 6136TIP3   OH239822   6.613   1.595   4.866 -0.1708 -0.0828 -0.1438
 6136TIP3    H139823   6.551   1.649   4.817  1.8767  1.1881 -1.4588
 6136TIP3    H239824   6.583   1.505   4.850 -0.0001  0.2942 -3.2775
 6137TIP3   OH239825   1.050   6.062   1.393  0.0937 -0.3947 -0.5158
 6137TIP3    H139826   1.111   6.006   1.344 -0.5631 -0.1488 -1.6406
 6137TIP3    H239827   1.074   6.151   1.367  2.3197  0.0741  2.6137
 6138TIP3   OH239828   5.255   1.165  16.180  0.1406  0.3856 -0.5481
 6138TIP3    H139829   5.193   1.096  16.157  1.7877 -0.9953 -1.0808
 6138TIP3    H239830   5.223   1.201  16.263 -2.4999  1.1963 -1.7985
 6139TIP3   OH239831   2.679   6.003   3.161 -0.8200  0.1622 -0.6546
 6139TIP3    H139832   2.656   5.994   3.253  0.7997  1.4680 -0.0763
 6139TIP3    H239833   2.596   5.995   3.114 -1.3922 -2.8341  0.6888
 6140TIP3   OH239834   2.572   3.126  17.154  0.0899 -0.6769  0.0993
 6140TIP3    H139835   2.626   3.055  17.188  0.1969 -0.0042  1.3740
 6140TIP3    H239836   2.600   3.135  17.062  1.1593 -1.2618  0.3512
 6141TIP3   OH239837   2.158   3.123   0.447 -0.4401 -0.2426 -0.2367
 6141TIP3    H139838   2.079   3.070   0.451  0.4207 -1.5278  0.1941
 6141TIP3    H239839   2.221   3.071   0.397 -0.4284  1.5616 -2.2143
 6142TIP3   OH239840   0.186   3.623   5.529 -0.1063  0.5883 -0.4714
 6142TIP3    H139841   0.183   3.709   5.487  1.2281  0.3243 -1.1599
 6142TIP3    H239842   0.280   3.606   5.541 -0.2953 -1.2237 -1.3074
 6143TIP3   OH239843   4.244   1.999  17.242  0.7099  0.2122  0.5818
 6143TIP3    H139844   4.281   2.058  17.307  0.0887  2.4041 -0.9148
 6143TIP3    H239845   4.309   1.996  17.172  0.5170 -0.5017  0.4284
 6144TIP3   OH239846   1.220   1.324  13.666  0.3315 -0.0443 -0.1526
 6144TIP3    H139847   1.217   1.353  13.575  0.5715 -1.3294 -0.5924
 6144TIP3    H239848   1.218   1.405  13.718  2.0209  0.7913 -1.3189
 6145TIP3   OH239849   2.883   4.934  11.690 -0.2683 -0.6533  0.1931
 6145TIP3    H139850   2.794   4.950  11.658 -0.0158 -1.0833 -0.7714
 6145TIP3    H239851   2.939   4.988  11.634  0.1768 -1.3520 -0.0608
 6146TIP3   OH239852   0.880   1.791   6.127  0.2940 -0.2895  0.0174
 6146TIP3    H139853   0.897   1.772   6.035  1.1559  1.2485 -0.1730
 6146TIP3    H239854   0.916   1.715   6.174  1.5387 -0.2596 -0.8224
 6147TIP3   OH239855   6.576   6.016  10.556 -0.3099 -0.8536  0.0007
 6147TIP3    H139856   6.566   6.109  10.536  1.5199 -0.6053  0.0874
 6147TIP3    H239857   6.524   6.002  10.635 -1.1760 -0.0638 -0.4214
 6148TIP3   OH239858   6.628   1.012  14.246 -0.3032  0.3343  0.1037
 6148TIP3    H139859   6.636   0.921  14.216  0.9711  0.3281  0.4201
 6148TIP3    H239860   6.553   1.010  14.306 -0.1017 -0.5817  0.3505
 6149TIP3   OH239861   3.940   4.273   4.615  0.3846  0.1047  0.4253
 6149TIP3    H139862   3.929   4.237   4.527 -1.3861  0.3929  0.4810
 6149TIP3    H239863   4.034   4.274   4.630  0.6869 -0.3831 -1.2856
 6150TIP3   OH239864   1.927   0.427   3.948 -0.1219 -0.4325 -0.0607
 6150TIP3    H139865   1.902   0.410   4.039  2.0553 -0.6529  0.5437
 6150TIP3    H239866   1.843   0.438   3.902 -1.3169 -1.8534  1.6487
 6151TIP3   OH239867   5.697   2.741  16.793 -0.2383  0.0564  0.0679
 6151TIP3    H139868   5.785   2.751  16.829 -0.5077 -2.3038  1.5940
 6151TIP3    H239869   5.681   2.823  16.746  2.3203  0.9977  0.6693
 6152TIP3   OH239870   3.134   1.302   0.776  0.0663  0.3815  0.5521
 6152TIP3    H139871   3.196   1.237   0.807  1.8536  2.3418  1.3333
 6152TIP3    H239872   3.062   1.299   0.840 -0.5211 -1.6097 -0.1225
 6153TIP3   OH239873   5.667   4.488   0.419  0.3442 -0.2845 -0.2211
 6153TIP3    H139874   5.695   4.551   0.485 -0.7285  0.7163 -0.6973
 6153TIP3    H239875   5.623   4.540   0.352 -1.3530 -1.5944 -0.2047
 6154TIP3   OH239876   5.689   3.976   0.510  0.6515  0.8882  0.4820
 6154TIP3    H139877   5.660   4.067   0.516  0.9848  1.1172 -0.9790
 6154TIP3    H239878   5.783   3.982   0.497  0.6106  0.3724 -0.1215
 6155TIP3   OH239879   1.387   0.865  16.976  0.5456 -0.1282 -0.1648
 6155TIP3    H139880   1.463   0.922  16.992 -0.3889  0.6635  1.7116
 6155TIP3    H239881   1.312   0.916  17.005 -0.4628 -1.8752  0.4378
 6156TIP3   OH239882   6.460   4.310  14.421  0.3471  0.0938 -0.1601
 6156TIP3    H139883   6.536   4.293  14.478  0.2608 -1.2822 -0.4254
 6156TIP3    H239884   6.496   4.357  14.346  0.7637  0.3604  0.2035
 6157TIP3   OH239885   2.221   4.127  11.692  0.3407  0.4047 -0.1195
 6157TIP3    H139886   2.198   4.220  11.687 -0.0746  0.3307  0.3096
 6157TIP3    H239887   2.231   4.099  11.601  0.2070  0.8086 -0.2592
 6158TIP3   OH239888   5.682   4.046  11.246  0.1190 -0.0999  0.5436
 6158TIP3    H139889   5.685   3.967  11.192  0.6393 -0.3191  0.8792
 6158TIP3    H239890   5.738   4.109  11.200  0.6654 -0.3289  0.8809
 6159TIP3   OH239891   1.168   3.606   0.381  0.0369  0.4139  0.3480
 6159TIP3    H139892   1.116   3.620   0.460  0.9461 -2.4328  1.5844
 6159TIP3    H239893   1.259   3.612   0.411  0.3972 -0.1862 -0.5845
 6160TIP3   OH239894   4.733   4.116  15.514  0.0661  0.0255 -0.5288
 6160TIP3    H139895   4.756   4.067  15.435 -0.3543 -0.4472 -0.3596
 6160TIP3    H239896   4.639   4.106  15.522  0.0468  0.4568 -0.2197
 6161TIP3   OH239897   4.812   4.075  16.786  0.1274 -0.3875 -0.0181
 6161TIP3    H139898   4.754   4.123  16.844  1.1102  1.7827 -0.7344
 6161TIP3    H239899   4.820   3.988  16.827 -1.5947  0.0620  1.4006
 6162TIP3   OH239900   5.021   5.466   0.323  0.1945 -0.6569 -0.1589
 6162TIP3    H139901   4.954   5.449   0.390  0.6776  0.1538  0.5405
 6162TIP3    H239902   5.004   5.400   0.255 -1.4087 -0.3799 -0.0736
 6163TIP3   OH239903   6.740   3.991  16.348 -0.2050 -0.4931  0.0166
 6163TIP3    H139904   6.744   4.058  16.416 -0.0362 -0.9582  0.4679
 6163TIP3    H239905   6.831   3.976  16.323 -0.2528 -0.4612 -0.1875
 6164TIP3   OH239906   3.004   1.622   2.179 -0.1162 -0.6305 -0.0269
 6164TIP3    H139907   2.936   1.682   2.146  0.0057 -0.3037  0.3081
 6164TIP3    H239908   2.956   1.543   2.204 -0.0804 -1.3609 -2.0923
 6165TIP3   OH239909   6.265   6.042  10.517  0.3718 -0.0961  0.1698
 6165TIP3    H139910   6.291   6.032  10.609 -1.9157 -1.0701  0.7647
 6165TIP3    H239911   6.216   6.125  10.514 -1.2799 -1.0298  0.2991
 6166TIP3   OH239912   6.033   5.737   3.303 -0.4466  0.3235 -0.0750
 6166TIP3    H139913   5.949   5.711   3.340 -0.1077 -0.0342  0.4599
 6166TIP3    H239914   6.093   5.737   3.377  0.0151  0.6338 -0.4404
 6167TIP3   OH239915   2.909   3.501  14.673  0.3478 -0.2414  0.0847
 6167TIP3    H139916   2.894   3.582  14.722 -1.1636 -0.7627  0.5320
 6167TIP3    H239917   2.821   3.468  14.654  0.8950 -0.6123 -2.0857
 6168TIP3   OH239918   5.177   6.502   1.265 -0.4256 -0.0112 -0.7834
 6168TIP3    H139919   5.087   6.472   1.249 -0.6812  0.5135 -0.3566
 6168TIP3    H239920   5.194   6.565   1.195 -1.4699  2.1256  0.7534
 6169TIP3   OH239921   4.977   4.602  11.444 -0.0801 -0.4370 -0.0421
 6169TIP3    H139922   5.062   4.570  11.415  1.2823  1.4026  1.6180
 6169TIP3    H239923   4.987   4.698  11.445 -2.3537 -0.1431 -0.2859
 6170TIP3   OH239924   1.176   4.118  13.375 -0.3265  0.5023 -0.0236
 6170TIP3    H139925   1.194   4.052  13.309 -1.5970  1.1446 -1.0508
 6170TIP3    H239926   1.258   4.168  13.382  0.4931 -0.8477  0.4382
 6171TIP3   OH239927   2.023   5.929   1.518 -0.3140 -0.3569 -0.3107
 6171TIP3    H139928   2.117   5.911   1.527  0.1174  0.9307 -1.8014
 6171TIP3    H239929   1.999   5.966   1.603  0.9647  0.9395 -0.4654
 6172TIP3   OH239930   0.186   4.376  12.417  0.3220 -0.2565 -0.3700
 6172TIP3    H139931   0.172   4.343  12.506  0.3838  0.7327  0.0290
 6172TIP3    H239932   0.254   4.442  12.427  0.5339 -0.3418 -1.2054
 6173TIP3   OH239933   4.391   5.504  12.578 -0.6543  0.1922 -0.5409
 6173TIP3    H139934   4.430   5.566  12.640  0.6585 -1.9030  0.8434
 6173TIP3    H239935   4.416   5.538  12.492  1.7941  0.5436  0.2257
 6174TIP3   OH239936   3.155   5.297   2.050 -0.7130 -0.2844  0.6259
 6174TIP3    H139937   3.212   5.314   1.975 -1.0953  1.1769  0.6521
 6174TIP3    H239938   3.208   5.240   2.107  0.4849  0.5099  0.3518
 6175TIP3   OH239939   6.308   1.572   6.344 -0.2489 -0.5915  0.2721
 6175TIP3    H139940   6.253   1.520   6.402  0.1060 -0.2500  0.9241
 6175TIP3    H239941   6.271   1.660   6.349 -1.3907 -0.9131 -1.5033
 6176TIP3   OH239942   5.877   2.641   1.264  0.1922  0.6306  0.3086
 6176TIP3    H139943   5.866   2.703   1.336 -1.2675  0.5167  0.1990
 6176TIP3    H239944   5.825   2.565   1.289  0.3394  0.2568 -0.4971
 6177TIP3   OH239945   2.313   1.532   0.821 -0.2090 -0.1934 -0.6325
 6177TIP3    H139946   2.374   1.545   0.748 -2.7502  0.2562 -2.8101
 6177TIP3    H239947   2.279   1.620   0.839 -0.4721 -0.4847  0.3234
 6178TIP3   OH239948   0.465   0.564   3.325 -0.0502 -0.9730  0.2585
 6178TIP3    H139949   0.436   0.517   3.246 -1.7931 -0.9134  0.8332
 6178TIP3    H239950   0.395   0.551   3.388  1.1435 -0.6897  1.7033
 6179TIP3   OH239951   4.433   1.526   0.587  0.1056 -0.0937 -0.1508
 6179TIP3    H139952   4.392   1.520   0.501  2.2237  0.2928 -1.2522
 6179TIP3    H239953   4.360   1.525   0.649 -1.5859  1.4776 -2.0199
 6180TIP3   OH239954   4.135   4.452   0.628  0.0104 -0.0323 -0.8254
 6180TIP3    H139955   4.213   4.495   0.591  0.8842 -0.8645  0.0048
 6180TIP3    H239956   4.091   4.413   0.552 -1.7477  3.5948 -1.9188
 6181TIP3   OH239957   1.196   5.140  11.005 -0.3150 -0.3381 -0.2149
 6181TIP3    H139958   1.183   5.059  11.053  0.3916  0.1920  0.9344
 6181TIP3    H239959   1.251   5.116  10.931 -1.1195 -1.1094 -0.5731
 6182TIP3   OH239960   5.889   4.162   1.600 -0.8580  0.4137  0.1377
 6182TIP3    H139961   5.891   4.174   1.505 -0.7292 -0.5093  0.0181
 6182TIP3    H239962   5.897   4.068   1.613 -0.5197  0.5589  1.0781
 6183TIP3   OH239963   1.449   0.710   6.103 -0.2165 -0.3232 -0.6167
 6183TIP3    H139964   1.415   0.687   6.190  3.0261  0.5512  1.0410
 6183TIP3    H239965   1.504   0.787   6.119 -0.4789  0.6440 -3.7261
 6184TIP3   OH239966   4.227   3.287   3.472  0.3344 -0.1087 -0.5625
 6184TIP3    H139967   4.233   3.381   3.492 -0.3967 -0.0788 -0.4495
 6184TIP3    H239968   4.317   3.262   3.450  0.6388  0.5009 -0.0751
 6185TIP3   OH239969   5.556   0.305   6.388  0.0561 -0.0500 -0.0049
 6185TIP3    H139970   5.477   0.264   6.423 -0.2704 -2.2237 -2.8810
 6185TIP3    H239971   5.524   0.380   6.338  0.1266  0.6938  1.0437
 6186TIP3   OH239972   5.496   5.780   3.629  0.6983  0.0073 -0.4865
 6186TIP3    H139973   5.519   5.822   3.712  2.4135 -2.6984  0.5461
 6186TIP3    H239974   5.428   5.717   3.652  2.3328 -1.9243 -0.7469
 6187TIP3   OH239975   2.060   3.234   1.015  0.0730  0.1377  0.0335
 6187TIP3    H139976   1.982   3.179   1.008  1.1995 -1.7314  1.1976
 6187TIP3    H239977   2.060   3.286   0.935 -1.6012 -0.8296 -0.6515
 6188TIP3   OH239978   0.498   2.023   1.380 -0.2777 -0.0919 -0.0417
 6188TIP3    H139979   0.535   1.972   1.308 -0.9448 -1.0295  0.2611
 6188TIP3    H239980   0.442   2.088   1.337 -1.1489 -1.0320 -0.3771
 6189TIP3   OH239981   3.014   5.097   3.338  0.5728 -0.0806 -0.3976
 6189TIP3    H139982   3.023   5.065   3.248 -0.2635  0.8219 -0.8222
 6189TIP3    H239983   2.920   5.110   3.349  0.7088  0.2246  0.4690
 6190TIP3   OH239984   4.199   2.182  16.473 -0.1314  0.1398  0.0829
 6190TIP3    H139985   4.124   2.214  16.424 -0.2961  0.7553  0.7284
 6190TIP3    H239986   4.243   2.121  16.413 -0.0850  1.2017 -0.9956
 6191TIP3   OH239987   1.268   2.722  13.921  0.3872 -0.0654  0.1730
 6191TIP3    H139988   1.255   2.720  13.826 -0.4203 -0.5910  0.2862
 6191TIP3    H239989   1.363   2.709  13.932  0.6141  0.8281 -0.5773
 6192TIP3   OH239990   4.343   3.509  13.555 -0.0818  0.1846 -0.1044
 6192TIP3    H139991   4.405   3.452  13.600  0.2613  0.6102 -0.0355
 6192TIP3    H239992   4.306   3.454  13.486 -0.4429 -0.4019  0.5489
 6193TIP3   OH239993   1.884   2.039  13.785 -0.5896 -0.3050 -0.4853
 6193TIP3    H139994   1.918   2.015  13.871  0.8013 -0.7120 -1.1203
 6193TIP3    H239995   1.794   2.068  13.801  0.0374  0.7989  1.2831
 6194TIP3   OH239996   3.961   6.584   4.096  0.7909 -0.1115 -0.0791
 6194TIP3    H139997   3.947   6.586   4.001 -0.1375 -0.7473  0.0262
 6194TIP3    H239998   3.935   6.671   4.127  0.3027 -0.1714 -0.3136
 6195TIP3   OH239999   3.490   1.297   2.031 -0.1279 -0.1208  0.1992
 6195TIP3    H140000   3.402   1.288   2.066  0.7174 -0.6586  2.3064
 6195TIP3    H240001   3.546   1.248   2.091  1.7137  0.8149 -0.6435
 6196TIP3   OH240002   6.671   6.449   1.761 -0.8114  0.1578 -0.3515
 6196TIP3    H140003   6.600   6.497   1.719 -0.7359  0.3343 -0.2815
 6196TIP3    H240004   6.672   6.364   1.718 -1.1212  0.1240 -0.2899
 6197TIP3   OH240005   6.045   4.989   5.838 -0.0199 -0.4232 -0.0784
 6197TIP3    H140006   6.042   4.910   5.891  2.5819 -1.3708 -1.1591
 6197TIP3    H240007   6.139   5.007   5.827 -0.5090  1.5057 -1.7391
 6198TIP3   OH240008   1.023   4.253  15.731  0.5386 -0.1649  0.3962
 6198TIP3    H140009   0.971   4.247  15.650  0.1088 -1.5858  0.7468
 6198TIP3    H240010   1.110   4.224  15.705  0.7815  0.7389  0.1513
 6199TIP3   OH240011   1.547   1.772   4.516 -0.1352  0.4184 -0.1687
 6199TIP3    H140012   1.465   1.726   4.496 -0.2902  0.6479 -0.0665
 6199TIP3    H240013   1.530   1.863   4.492 -0.5062  0.8118  1.4555
 6200TIP3   OH240014   1.485   3.129   0.896 -0.0411  0.0176  0.3039
 6200TIP3    H140015   1.542   3.100   0.825 -1.5794  0.6732 -1.2552
 6200TIP3    H240016   1.397   3.127   0.859 -1.0846 -0.8879  2.6106
 6201TIP3   OH240017   0.905   6.181   0.732  0.4838 -0.1935 -0.4035
 6201TIP3    H140018   0.985   6.175   0.681 -0.1957 -1.2000 -1.4130
 6201TIP3    H240019   0.836   6.193   0.667 -0.5379 -2.5912  0.1258
 6202TIP3   OH240020   0.412   4.948   1.950  0.6045 -0.6259 -0.5057
 6202TIP3    H140021   0.422   4.954   1.855 -0.9548  0.2535 -0.6427
 6202TIP3    H240022   0.418   5.039   1.981 -1.0529 -0.6505 -0.0305
 6203TIP3   OH240023   0.721   1.247  12.231 -0.4540 -0.4694 -0.3280
 6203TIP3    H140024   0.787   1.197  12.280  1.5475  0.3007 -2.0866
 6203TIP3    H240025   0.715   1.330  12.279 -1.8827 -1.3505  1.1182
 6204TIP3   OH240026   2.797   1.844   1.517 -0.2139 -0.2078  0.0396
 6204TIP3    H140027   2.830   1.761   1.551 -0.7577 -0.1985  0.6109
 6204TIP3    H240028   2.730   1.871   1.580 -1.6504 -0.4689 -1.2905
 6205TIP3   OH240029   3.652   0.708   0.521  0.0267 -0.4009  0.2885
 6205TIP3    H140030   3.660   0.675   0.611 -0.2470 -3.0353 -0.5451
 6205TIP3    H240031   3.568   0.675   0.491 -1.4682  3.2423  0.0114
 6206TIP3   OH240032   4.747   1.878   3.672  0.3123 -0.5625  0.4735
 6206TIP3    H140033   4.794   1.795   3.675 -0.7068 -1.1086  1.8328
 6206TIP3    H240034   4.655   1.855   3.676 -0.0026  0.6131  0.4686
 6207TIP3   OH240035   6.230   2.287  13.486 -0.1990  0.0800  0.0556
 6207TIP3    H140036   6.215   2.291  13.391  0.4263 -0.4680 -0.0698
 6207TIP3    H240037   6.165   2.223  13.517 -1.8039  1.7385  0.3135
 6208TIP3   OH240038   4.125   3.826  12.359 -0.4612  0.1120 -0.3467
 6208TIP3    H140039   4.138   3.917  12.385  0.9904  0.2089 -1.2501
 6208TIP3    H240040   4.111   3.830  12.264  0.2988 -0.6274 -0.5084
 6209TIP3   OH240041   0.156   5.363  14.036 -0.5404 -0.2346  0.2802
 6209TIP3    H140042   0.138   5.285  13.984 -2.2254 -0.5266  1.2175
 6209TIP3    H240043   0.250   5.360  14.053 -0.5289 -1.9356  0.0843
 6210TIP3   OH240044   0.633   6.427  10.364  0.2860  0.0392  0.4081
 6210TIP3    H140045   0.636   6.333  10.348  1.8663  0.4844 -2.7865
 6210TIP3    H240046   0.725   6.454  10.361 -0.2269  1.8569 -0.3746
 6211TIP3   OH240047   4.465   5.506  12.056  0.5291 -0.0774  0.5722
 6211TIP3    H140048   4.420   5.438  12.006  2.1496 -0.1377 -0.8850
 6211TIP3    H240049   4.417   5.509  12.139 -0.7982 -1.6142 -0.0664
 6212TIP3   OH240050   0.339   0.542   4.631  0.9355  0.3058 -0.4060
 6212TIP3    H140051   0.253   0.508   4.655  0.3958  0.5934 -1.8456
 6212TIP3    H240052   0.393   0.464   4.618  0.9576  0.1296  0.6764
 6213TIP3   OH240053   1.082   6.058   4.042  0.7379 -0.7947  0.3817
 6213TIP3    H140054   1.079   5.962   4.041 -0.5734 -0.9106 -3.6427
 6213TIP3    H240055   1.163   6.080   3.995  0.4941  0.0225  0.3302
 6214TIP3   OH240056   2.338   2.682  13.431 -0.1406  0.2327  0.5889
 6214TIP3    H140057   2.250   2.718  13.425 -0.8535 -1.5924 -0.9375
 6214TIP3    H240058   2.334   2.619  13.504 -0.6405 -1.1043 -0.5468
 6215TIP3   OH240059   3.705   4.404   1.376  0.1394 -0.1729  0.4099
 6215TIP3    H140060   3.741   4.487   1.348  0.5495 -0.5545 -0.2082
 6215TIP3    H240061   3.611   4.412   1.361  0.0464  0.5126  1.2371
 6216TIP3   OH240062   6.328   0.214   1.221 -0.0452 -0.1004 -0.1514
 6216TIP3    H140063   6.330   0.306   1.195 -0.6876 -0.1159 -0.2589
 6216TIP3    H240064   6.253   0.177   1.175  0.4894 -0.7952 -0.4829
 6217TIP3   OH240065   4.664   3.327   0.301  0.0377 -0.3935 -0.3107
 6217TIP3    H140066   4.758   3.309   0.303 -0.0785 -1.0037  0.0927
 6217TIP3    H240067   4.655   3.404   0.246  0.8100 -0.1296 -0.0757
 6218TIP3   OH240068   6.202   0.593  13.387 -0.0193 -0.1782 -0.0437
 6218TIP3    H140069   6.248   0.565  13.308 -0.7595  1.7248 -1.2075
 6218TIP3    H240070   6.164   0.677  13.364 -1.8295 -0.4374  1.7650
 6219TIP3   OH240071   1.957   0.611  13.240 -0.0559  0.5294 -0.3915
 6219TIP3    H140072   1.913   0.662  13.309  0.4755 -1.1253  1.2700
 6219TIP3    H240073   2.028   0.668  13.211 -0.0211  1.1147  0.7524
 6220TIP3   OH240074   2.075   5.784   0.438 -0.3294  0.1103  0.4293
 6220TIP3    H140075   1.986   5.787   0.472 -0.7438  0.6886 -0.6443
 6220TIP3    H240076   2.098   5.876   0.424 -0.6910 -0.0973 -2.0415
 6221TIP3   OH240077   3.701   2.623  13.462 -0.1201  0.3443  1.0414
 6221TIP3    H140078   3.694   2.605  13.556  0.6247 -2.2295  0.6826
 6221TIP3    H240079   3.791   2.598  13.440 -0.5037  0.2177 -0.4800
 6222TIP3   OH240080   3.902   1.228   5.315  0.0357 -0.1419 -0.4742
 6222TIP3    H140081   3.926   1.135   5.314  0.5895 -0.0161 -1.8915
 6222TIP3    H240082   3.971   1.270   5.366 -0.7471 -0.6161  1.0162
 6223TIP3   OH240083   4.403   3.123   2.089 -0.3014 -0.1430  0.0156
 6223TIP3    H140084   4.385   3.077   2.008  2.3443 -0.2635 -0.5855
 6223TIP3    H240085   4.388   3.216   2.069 -2.6735 -0.4065  0.3535
 6224TIP3   OH240086   1.815   2.761   3.226 -0.2592  0.4334 -0.5947
 6224TIP3    H140087   1.875   2.687   3.223 -0.2025  0.3906  1.0483
 6224TIP3    H240088   1.860   2.830   3.177 -1.1435 -1.1013 -3.9013
 6225TIP3   OH240089   0.915   4.196   4.371  0.1376  0.4144 -0.3269
 6225TIP3    H140090   0.829   4.219   4.405 -0.2916  3.8583 -3.1941
 6225TIP3    H240091   0.897   4.143   4.293  0.3973  2.4101 -1.8269
 6226TIP3   OH240092   2.151   6.104   1.859 -0.0566 -0.1695 -0.3424
 6226TIP3    H140093   2.065   6.140   1.882 -0.1036 -0.5832  0.1353
 6226TIP3    H240094   2.209   6.136   1.928 -0.1134 -1.0543  0.1379
 6227TIP3   OH240095   2.234   2.643   2.301  0.0680  0.1683 -0.0580
 6227TIP3    H140096   2.257   2.584   2.229  0.7034 -0.7092  0.8169
 6227TIP3    H240097   2.277   2.726   2.279  2.0409 -0.6886  0.2642
 6228TIP3   OH240098   0.870   2.559  13.835 -0.4516 -0.3009 -0.1873
 6228TIP3    H140099   0.897   2.533  13.923 -0.0654 -1.9395 -0.7699
 6228TIP3    H240100   0.775   2.553  13.836 -0.3890 -1.4944 -0.2135
 6229TIP3   OH240101   0.311   5.072  12.265 -0.0543  0.7138 -0.2548
 6229TIP3    H140102   0.377   5.137  12.288 -1.1012  1.7762 -0.2236
 6229TIP3    H240103   0.362   5.000  12.226  1.5164 -0.0251  2.7827
 6230TIP3   OH240104   1.598   6.050   5.545 -0.2632  0.0055  0.6961
 6230TIP3    H140105   1.592   5.957   5.568  1.7389  0.0002  1.4173
 6230TIP3    H240106   1.572   6.054   5.453 -1.0446 -1.1460  0.8396
 6231TIP3   OH240107   1.179   6.296   3.179  0.6476 -0.4790 -0.4695
 6231TIP3    H140108   1.134   6.212   3.188 -1.1262  0.4146 -0.4107
 6231TIP3    H240109   1.195   6.305   3.085 -0.8983 -0.0791 -0.7268
 6232TIP3   OH240110   6.103   1.703  15.455  0.6252 -0.1962  0.2985
 6232TIP3    H140111   6.032   1.747  15.501  1.5597  1.1292  0.5342
 6232TIP3    H240112   6.068   1.681  15.369  0.0562  0.7954  0.2714
 6233TIP3   OH240113   2.949   5.972   5.485  0.1495 -0.3266 -0.0397
 6233TIP3    H140114   3.004   6.033   5.534  1.2218 -2.6320  1.7738
 6233TIP3    H240115   2.875   5.955   5.542 -0.6373 -0.0317 -0.9417
 6234TIP3   OH240116   4.051   1.570   4.656  0.4080  0.0031 -0.2521
 6234TIP3    H140117   3.966   1.539   4.688  0.1789  1.4730  0.6411
 6234TIP3    H240118   4.064   1.522   4.573 -1.7833  0.5115 -0.9618
 6235TIP3   OH240119   3.175   1.483  16.169 -0.2293 -0.3243 -0.9758
 6235TIP3    H140120   3.175   1.550  16.237 -1.3624 -0.0577 -1.2182
 6235TIP3    H240121   3.267   1.466  16.152  0.0681  0.1207  0.1178
 6236TIP3   OH240122   4.294   4.931  12.737 -0.2207  0.2311  0.7685
 6236TIP3    H140123   4.225   4.918  12.802 -1.1098  2.2243  0.3031
 6236TIP3    H240124   4.374   4.935  12.789 -0.1618 -3.4069  1.2134
 6237TIP3   OH240125   4.556   5.972  12.431 -0.1266  0.2317 -0.3744
 6237TIP3    H140126   4.486   5.937  12.376 -1.2786  2.9118 -0.8022
 6237TIP3    H240127   4.513   5.991  12.515  0.1876  1.3802 -0.4527
 6238TIP3   OH240128   0.068   6.043   6.179  0.2120 -0.4614  0.4128
 6238TIP3    H140129   0.003   6.030   6.249 -1.1957  2.3378 -0.2206
 6238TIP3    H240130   0.110   6.126   6.200 -1.1183  1.1493 -2.5358
 6239TIP3   OH240131   2.207   4.401  15.793  0.4560 -0.0510 -0.0646
 6239TIP3    H140132   2.221   4.362  15.879 -1.8097 -2.8963 -0.8305
 6239TIP3    H240133   2.123   4.446  15.800  0.5434  0.2065 -0.6181
 6240TIP3   OH240134   2.907   3.915   3.508 -0.3178 -0.1378 -0.1473
 6240TIP3    H140135   2.886   4.006   3.486  0.6146  0.1606  0.1465
 6240TIP3    H240136   2.996   3.902   3.475 -1.0604 -1.4990 -1.7596
 6241TIP3   OH240137   2.608   0.941  14.806  0.1692 -0.7229  0.0874
 6241TIP3    H140138   2.693   0.965  14.768  1.0553  1.1275  2.8914
 6241TIP3    H240139   2.629   0.904  14.891 -1.8182 -2.0179  0.0921
 6242TIP3   OH240140   1.889   4.460   3.305  0.3592 -0.4027  0.2691
 6242TIP3    H140141   1.805   4.443   3.349  0.5449  0.5056  1.0101
 6242TIP3    H240142   1.955   4.440   3.372  0.6552  0.7284  0.3366
 6243TIP3   OH240143   3.711   6.755  14.812 -0.2661  0.2763 -0.0623
 6243TIP3    H140144   3.781   6.714  14.863 -0.7257 -0.9051 -0.3447
 6243TIP3    H240145   3.637   6.696  14.822 -0.8894  0.9380 -0.6774
 6244TIP3   OH240146   3.555   3.009  12.983  0.1853  0.1030  0.1464
 6244TIP3    H140147   3.626   2.951  12.956 -0.5830  0.0894 -2.0444
 6244TIP3    H240148   3.518   2.967  13.061  0.7893 -1.3685 -0.3207
 6245TIP3   OH240149   6.177   2.331  12.759  0.1514 -0.4341 -0.2389
 6245TIP3    H140150   6.098   2.344  12.812  0.9130 -3.1074  1.7753
 6245TIP3    H240151   6.146   2.283  12.682 -0.3579 -0.3985 -0.0608
 6246TIP3   OH240152   3.837   0.026  11.048  0.7168  0.1149  0.9129
 6246TIP3    H140153   3.765   0.085  11.028 -0.3912 -0.4039  3.0444
 6246TIP3    H240154   3.885   0.017  10.966 -0.5162  1.9881 -0.0803
 6247TIP3   OH240155   1.331   1.087  14.932  0.5214 -0.1679  0.3576
 6247TIP3    H140156   1.368   1.076  15.020 -0.3002  0.9171  0.8626
 6247TIP3    H240157   1.321   1.182  14.922  0.7785 -0.2647 -0.9920
 6248TIP3   OH240158   5.012   3.023  10.593  0.5930  0.3770  0.4906
 6248TIP3    H140159   4.977   3.110  10.574  0.8253  0.3690  0.0098
 6248TIP3    H240160   5.094   3.019  10.545  1.3910  0.4907  1.8133
 6249TIP3   OH240161   5.423   2.721  10.997  0.5659 -0.6878 -0.0046
 6249TIP3    H140162   5.440   2.807  11.036 -1.2762  0.3750 -1.3505
 6249TIP3    H240163   5.391   2.667  11.070  0.4668  0.1845  0.6155
 6250TIP3   OH240164   1.270   5.690   0.063 -0.2706 -0.6753 -0.0816
 6250TIP3    H140165   1.233   5.739  -0.010 -2.0201 -3.2972 -1.0875
 6250TIP3    H240166   1.256   5.746   0.139  1.3351  2.0092 -1.6059
 6251TIP3   OH240167   1.036   1.000   4.275 -0.9401 -0.3157  0.4077
 6251TIP3    H140168   1.112   0.968   4.323  0.0973  0.6804 -0.5237
 6251TIP3    H240169   1.016   1.085   4.316 -1.4991 -0.5322  0.5889
 6252TIP3   OH240170   4.358   3.604  12.160  0.3442 -0.3365  0.3102
 6252TIP3    H140171   4.332   3.691  12.128 -0.1455 -0.7594 -0.4852
 6252TIP3    H240172   4.444   3.618  12.200  0.9577  0.2310 -1.1541
 6253TIP3   OH240173   0.993   3.345   2.253 -0.7716  0.5295  0.3765
 6253TIP3    H140174   1.085   3.345   2.281 -0.3433 -0.8325 -0.8804
 6253TIP3    H240175   0.968   3.437   2.251  0.7986  0.9773  0.0530
 6254TIP3   OH240176   4.049   6.279   3.420 -0.0625  0.1367  0.0380
 6254TIP3    H140177   4.010   6.317   3.498 -2.5797 -1.7388 -0.1631
 6254TIP3    H240178   3.995   6.312   3.348  0.6298 -0.1585 -0.6329
 6255TIP3   OH240179   5.875   2.680   4.822 -0.0150 -0.0781  0.1995
 6255TIP3    H140180   5.966   2.653   4.809 -0.4381 -1.6381  0.4026
 6255TIP3    H240181   5.882   2.772   4.848  1.4199  0.2591 -1.1979
 6256TIP3   OH240182   6.240   3.548   6.495 -0.0289 -0.4104 -0.0872
 6256TIP3    H140183   6.304   3.554   6.566 -0.0739  2.3796 -0.1855
 6256TIP3    H240184   6.162   3.510   6.536  1.0387 -2.1378  0.4570
 6257TIP3   OH240185   1.016   6.526   4.599  0.3123  0.2853  0.0892
 6257TIP3    H140186   1.100   6.501   4.562  0.7902  1.3702  0.4024
 6257TIP3    H240187   0.958   6.534   4.523  0.4365 -0.5911 -0.1164
 6258TIP3   OH240188   6.112   0.885   0.872 -0.5237  0.6502 -0.8313
 6258TIP3    H140189   6.189   0.873   0.929 -1.5426 -3.0910  0.0017
 6258TIP3    H240190   6.149   0.906   0.786  1.1678  3.1616  0.3529
 6259TIP3   OH240191   5.330   1.986   3.333 -0.4863 -0.4303  0.3007
 6259TIP3    H140192   5.281   2.038   3.397  1.4398  1.6434  0.2170
 6259TIP3    H240193   5.324   2.037   3.252  1.9248  0.0312  0.3468
 6260TIP3   OH240194   1.669   3.073  16.596  0.6206 -0.1556  0.1794
 6260TIP3    H140195   1.680   3.081  16.502 -0.9573 -0.9710 -0.1125
 6260TIP3    H240196   1.740   3.016  16.624  1.0442  0.0176 -0.5331
 6261TIP3   OH240197   3.218   2.202   0.873 -0.0190  0.5141  0.1771
 6261TIP3    H140198   3.296   2.258   0.873  0.8806 -0.7136  0.7257
 6261TIP3    H240199   3.244   2.125   0.823 -1.1806  0.4594 -0.3798
 6262TIP3   OH240200   6.024   3.023  11.979  0.5562  0.3157  0.0834
 6262TIP3    H140201   5.965   3.080  11.929 -2.3561 -2.0854  0.4494
 6262TIP3    H240202   6.004   3.044  12.070 -2.4717 -2.6999  0.3268
 6263TIP3   OH240203   4.181   0.186   2.680  0.1621  0.1858  0.3905
 6263TIP3    H140204   4.212   0.272   2.652 -1.9100  0.3953 -1.5894
 6263TIP3    H240205   4.104   0.170   2.625 -0.0813 -2.5207  1.3919
 6264TIP3   OH240206   1.775   3.584   5.458  0.1711  0.2243 -0.4967
 6264TIP3    H140207   1.688   3.546   5.451  0.0707  0.5553 -1.1322
 6264TIP3    H240208   1.832   3.511   5.481 -0.2602 -0.0095 -0.1632
 6265TIP3   OH240209   2.299   4.801   1.091  0.0989 -0.1119 -0.1709
 6265TIP3    H140210   2.302   4.887   1.134  0.1593 -0.2435  0.0891
 6265TIP3    H240211   2.349   4.813   1.010  1.7361 -0.3882  0.7512
 6266TIP3   OH240212   2.373   6.791  13.526  0.0664 -0.1404  0.2136
 6266TIP3    H140213   2.385   6.697  13.536  2.0203  0.1665  1.0808
 6266TIP3    H240214   2.378   6.807  13.432  1.4174 -0.7065  0.1802
 6267TIP3   OH240215   1.568   0.817  11.459 -0.1791 -0.4126  0.5331
 6267TIP3    H140216   1.588   0.764  11.536  0.8791  0.7263  1.0860
 6267TIP3    H240217   1.523   0.894  11.493 -1.1878 -0.6656 -0.1882
 6268TIP3   OH240218   5.436   2.551  10.786  0.1521  0.2822 -0.1973
 6268TIP3    H140219   5.436   2.613  10.859 -2.2745 -0.6261  0.6737
 6268TIP3    H240220   5.465   2.468  10.824 -2.6914 -0.6073  0.2480
 6269TIP3   OH240221   4.002   0.510   1.450  0.1671  0.2002  0.5323
 6269TIP3    H140222   4.068   0.507   1.381 -0.9932  1.1490 -0.6727
 6269TIP3    H240223   4.039   0.458   1.521  1.4029 -0.8186 -0.8007
 6270TIP3   OH240224   2.427   5.972   3.039 -0.2113 -0.2412  0.0741
 6270TIP3    H140225   2.415   5.964   2.945  0.7346  0.9439 -0.1581
 6270TIP3    H240226   2.340   5.997   3.072 -0.6203 -0.9722 -0.4272
 6271TIP3   OH240227   4.839   3.009  14.314  0.5564 -0.1168  0.2933
 6271TIP3    H140228   4.753   3.018  14.355 -0.1657 -1.3966 -0.8710
 6271TIP3    H240229   4.853   3.093  14.270 -0.5726 -0.2507 -0.3576
 6272TIP3   OH240230   2.019   5.948   1.195 -0.3085 -0.1889 -0.1003
 6272TIP3    H140231   2.041   5.961   1.103 -1.5352  0.3906 -0.3361
 6272TIP3    H240232   2.101   5.920   1.236  0.1397 -0.9443 -1.4540
 6273TIP3   OH240233   5.439   4.011  13.048  0.4177 -0.2708  0.5002
 6273TIP3    H140234   5.483   4.048  13.125  1.5206  0.4361 -0.4450
 6273TIP3    H240235   5.475   3.923  13.040 -3.0085 -2.1936  3.4058
 6274TIP3   OH240236   0.363   4.314  16.424  0.2449  0.5764  0.6030
 6274TIP3    H140237   0.275   4.349  16.414 -0.1748 -0.3282  1.0500
 6274TIP3    H240238   0.416   4.362  16.360 -1.0547 -0.6329 -1.4736
 6275TIP3   OH240239   4.774   1.957   7.054  0.4112  0.7481  0.0161
 6275TIP3    H140240   4.820   1.921   6.978  1.2770  0.4042  0.6934
 6275TIP3    H240241   4.684   1.925   7.045  0.8980 -0.6645  0.0037
 6276TIP3   OH240242   4.675   6.639   1.265  0.5576  0.0664 -0.2625
 6276TIP3    H140243   4.630   6.664   1.346  0.9430 -0.4101  0.1080
 6276TIP3    H240244   4.646   6.703   1.200 -0.0112  0.2550  0.1719
 6277TIP3   OH240245   0.888   3.954  10.933 -0.4694  0.5399  0.0406
 6277TIP3    H140246   0.797   3.960  10.904 -0.3165  2.8260 -0.1648
 6277TIP3    H240247   0.939   3.965  10.853 -0.0435  1.8159  0.4631
 6278TIP3   OH240248   0.352   6.240  12.048 -0.1798  0.4828  0.7340
 6278TIP3    H140249   0.366   6.257  12.141 -1.1260  1.1377  0.7756
 6278TIP3    H240250   0.431   6.195  12.019 -0.2811 -0.6254  2.0868
 6279TIP3   OH240251   3.342   2.497   0.829 -0.2492 -0.7750 -0.0028
 6279TIP3    H140252   3.344   2.490   0.924  0.4174  4.0597  0.6215
 6279TIP3    H240253   3.253   2.527   0.809 -0.4578 -1.9613 -1.0139
 6280TIP3   OH240254   5.458   6.445   3.596 -0.1030 -0.1111 -0.2459
 6280TIP3    H140255   5.527   6.379   3.606  1.7894  1.9907  2.0922
 6280TIP3    H240256   5.379   6.395   3.581  1.7114 -2.7347 -1.8702
 6281TIP3   OH240257   2.398   5.341  10.478 -0.4051  0.3990 -0.1034
 6281TIP3    H140258   2.367   5.255  10.451  1.0058 -0.2740  0.3180
 6281TIP3    H240259   2.447   5.373  10.402 -0.0278  0.3560  0.1193
 6282TIP3   OH240260   0.529   0.551  13.457 -0.1853  0.6921  0.1465
 6282TIP3    H140261   0.503   0.637  13.424  2.9461  1.3344 -0.9587
 6282TIP3    H240262   0.588   0.571  13.530 -2.3949 -0.6685  2.4704
 6283TIP3   OH240263   2.223   5.989   5.945  0.0235 -0.4544  0.0126
 6283TIP3    H140264   2.312   5.981   5.911  0.1619  0.0645  0.2487
 6283TIP3    H240265   2.173   6.027   5.873  1.0966  4.3439  1.4566
 6284TIP3   OH240266   0.568   6.343  17.019  0.1000  0.1284  0.1122
 6284TIP3    H140267   0.569   6.424  17.070 -0.8354 -0.6127  1.3534
 6284TIP3    H240268   0.515   6.282  17.071  0.7675 -1.2823 -0.8006
 6285TIP3   OH240269   1.059   5.418  16.329 -0.2223  0.6532 -0.2886
 6285TIP3    H140270   1.030   5.352  16.266  0.9602  0.2851 -0.4707
 6285TIP3    H240271   0.986   5.425  16.391 -0.2096 -1.1900  0.0083
 6286TIP3   OH240272   5.310   5.522   0.512 -0.0509 -0.0009  0.6249
 6286TIP3    H140273   5.298   5.455   0.445  1.4693  0.6298 -0.3182
 6286TIP3    H240274   5.221   5.547   0.537 -0.6439 -0.5378 -0.8539
 6287TIP3   OH240275   0.278   3.160  13.593 -1.0180 -0.5715  0.5135
 6287TIP3    H140276   0.311   3.172  13.682  0.8979  0.5186 -0.2930
 6287TIP3    H240277   0.229   3.241  13.574  0.8111  0.3980 -0.3042
 6288TIP3   OH240278   4.622   4.628  15.277  0.4542  0.3997  0.0830
 6288TIP3    H140279   4.677   4.706  15.274  0.8605  0.1924  1.4264
 6288TIP3    H240280   4.589   4.625  15.367 -1.0901  0.0468 -0.4676
 6289TIP3   OH240281   1.554   4.638  13.691  0.0500  0.1879  0.3876
 6289TIP3    H140282   1.602   4.621  13.610 -0.9382  0.9170 -0.3776
 6289TIP3    H240283   1.495   4.710  13.669 -0.3603  0.2787  1.7117
 6290TIP3   OH240284   1.708   6.759   0.549  0.0457  0.7070  0.0843
 6290TIP3    H140285   1.701   6.770   0.455 -0.3380 -1.1098 -0.1339
 6290TIP3    H240286   1.707   6.664   0.563  0.6268  0.9096  1.8761
 6291TIP3   OH240287   4.514   0.686   0.626  0.1136 -0.0360 -1.0032
 6291TIP3    H140288   4.507   0.590   0.623 -2.1587  0.0190  0.3861
 6291TIP3    H240289   4.483   0.715   0.541  0.8926 -0.5123 -1.4652
 6292TIP3   OH240290   4.738   1.645  12.139  0.6326 -0.3863  0.0330
 6292TIP3    H140291   4.737   1.670  12.046  0.2769  1.3242  0.4623
 6292TIP3    H240292   4.815   1.590  12.148  1.5976  0.7337 -0.9768
 6293TIP3   OH240293   0.661   1.233  11.984 -0.0400 -0.5913  0.3118
 6293TIP3    H140294   0.688   1.232  12.075 -0.6397 -0.2473  0.4993
 6293TIP3    H240295   0.565   1.235  11.987 -0.0520  1.0392 -0.3074
 6294TIP3   OH240296   5.839   0.096   0.368 -0.0149 -0.0862 -0.5460
 6294TIP3    H140297   5.814   0.189   0.370  1.0046  0.1957 -0.2776
 6294TIP3    H240298   5.931   0.096   0.341 -0.1254 -1.0528 -0.9546
 6295TIP3   OH240299   0.046   3.852  14.253 -0.2814  0.1367 -0.4667
 6295TIP3    H140300  -0.015   3.785  14.224 -0.2370 -0.8923  1.6503
 6295TIP3    H240301  -0.010   3.925  14.280 -0.3122  1.3251 -3.3611
 6296TIP3   OH240302   0.968   2.573   3.905  0.4709 -0.1387  0.7436
 6296TIP3    H140303   0.932   2.610   3.986  1.5148 -0.0312  1.1729
 6296TIP3    H240304   1.041   2.631   3.882 -1.4178  1.4366 -1.7740
 6297TIP3   OH240305   5.975   4.384   3.624  0.0610 -0.2150  0.1205
 6297TIP3    H140306   5.983   4.433   3.542  0.1779 -0.2897  0.0870
 6297TIP3    H240307   5.910   4.317   3.606 -0.8094  0.5248  0.4562
 6298TIP3   OH240308   5.595   1.084  15.737  0.1589 -0.4016  0.1547
 6298TIP3    H140309   5.537   1.057  15.808  0.7607 -1.5579  0.2356
 6298TIP3    H240310   5.681   1.092  15.778  0.3510 -0.2463 -0.2746
 6299TIP3   OH240311   0.888   1.052   3.280  0.0839  0.1752  0.2288
 6299TIP3    H140312   0.913   0.984   3.217 -1.0343  0.1663 -0.2193
 6299TIP3    H240313   0.793   1.045   3.286 -0.0906  1.9668 -0.1345
 6300TIP3   OH240314   5.362   6.058   0.195 -0.4603  0.3513  0.4001
 6300TIP3    H140315   5.327   5.970   0.178  0.3823  0.2539 -0.9818
 6300TIP3    H240316   5.455   6.043   0.214 -0.4901  0.8778  0.9827
 6301TIP3   OH240317   3.617   3.795  11.144 -0.3182 -0.0193  0.2189
 6301TIP3    H140318   3.561   3.769  11.071  0.3759 -0.1634 -0.2735
 6301TIP3    H240319   3.658   3.876  11.115  0.5658 -0.4937  0.1154
 6302TIP3   OH240320   2.674   3.982  12.409 -0.2030  0.5539  0.0403
 6302TIP3    H140321   2.750   3.962  12.464  0.2540  2.9860  0.4251
 6302TIP3    H240322   2.615   4.030  12.467 -0.4344  1.7614 -1.1526
 6303TIP3   OH240323   4.351   2.697  11.312  0.1464  0.5036 -0.7866
 6303TIP3    H140324   4.267   2.662  11.343 -0.8221  1.5229 -2.1304
 6303TIP3    H240325   4.391   2.623  11.266 -1.2024  0.6728 -2.3190
 6304TIP3   OH240326   5.313   3.756   1.397  0.4141  0.4526  0.0206
 6304TIP3    H140327   5.262   3.833   1.370 -0.4536 -0.0740  0.1065
 6304TIP3    H240328   5.386   3.792   1.447  0.6134  1.2830 -0.8264
 6305TIP3   OH240329   2.921   1.716  16.471  0.5984  0.1327 -0.0506
 6305TIP3    H140330   2.881   1.715  16.384  0.5613 -1.0173 -0.0351
 6305TIP3    H240331   2.863   1.772  16.523  1.4723  2.1430 -1.1313
 6306TIP3   OH240332   1.825   0.488   5.116 -0.2965 -0.1044 -0.0219
 6306TIP3    H140333   1.787   0.462   5.201 -0.5082 -1.9609 -0.6354
 6306TIP3    H240334   1.749   0.510   5.062 -0.3559 -1.3302 -0.4642
 6307TIP3   OH240335   4.578   0.374  14.236 -0.3611  0.3160 -0.8019
 6307TIP3    H140336   4.589   0.445  14.173  2.2001  1.3708  0.6848
 6307TIP3    H240337   4.562   0.418  14.319  2.4469 -0.6617  0.3762
 6308TIP3   OH240338   3.701   0.343  13.117  0.1899 -0.4155  0.2573
 6308TIP3    H140339   3.772   0.397  13.082  2.0877 -1.7317  1.8000
 6308TIP3    H240340   3.746   0.274  13.166 -2.1901 -1.3822  1.2458
 6309TIP3   OH240341   1.368   1.675   1.527 -0.5062  0.0519 -0.3765
 6309TIP3    H140342   1.413   1.684   1.611 -0.4262 -0.6775 -0.3313
 6309TIP3    H240343   1.306   1.748   1.524  2.1582  2.4756 -1.4222
 6310TIP3   OH240344   2.734   1.004  17.227 -0.2855 -0.8766  0.3716
 6310TIP3    H140345   2.681   1.022  17.305 -0.4051 -1.1818  0.3595
 6310TIP3    H240346   2.756   1.091  17.193 -0.2525 -0.7419  0.7329
 6311TIP3   OH240347   0.208   1.895  12.058  0.2232 -0.0452  0.4450
 6311TIP3    H140348   0.143   1.827  12.042  0.7990 -0.5365  0.1738
 6311TIP3    H240349   0.257   1.864  12.134 -0.2631  0.6373  1.0651
 6312TIP3   OH240350   4.901   1.467   1.738  0.2273  0.2456 -0.4982
 6312TIP3    H140351   4.886   1.466   1.643  0.6755 -0.9952 -0.5705
 6312TIP3    H240352   4.844   1.398   1.772  0.9637 -0.1317 -0.0062
 6313TIP3   OH240353   4.583   1.099  12.140 -0.9006 -0.2873  0.4942
 6313TIP3    H140354   4.552   1.166  12.079 -1.6691 -1.3625 -0.3316
 6313TIP3    H240355   4.639   1.146  12.201  0.4489  0.7214 -1.4316
 6314TIP3   OH240356   6.498   3.199  15.744 -0.1345 -0.3952  0.7072
 6314TIP3    H140357   6.500   3.110  15.708 -0.0044 -0.6003  1.1974
 6314TIP3    H240358   6.462   3.187  15.832 -0.3213  0.0706  0.6943
 6315TIP3   OH240359   2.156   2.678  11.564  0.0222 -0.1472  0.6886
 6315TIP3    H140360   2.111   2.703  11.483 -1.7208  0.7091  1.8492
 6315TIP3    H240361   2.221   2.747  11.577  2.1206 -1.6281 -1.2367
 6316TIP3   OH240362   3.852   3.435  11.761  0.2325  0.0145 -0.1737
 6316TIP3    H140363   3.816   3.433  11.849  0.4754 -1.9647 -0.0668
 6316TIP3    H240364   3.942   3.467  11.772 -1.2568  5.2284 -0.4735
 6317TIP3   OH240365   3.017   5.707   2.835  0.0258 -0.1977 -0.4400
 6317TIP3    H140366   2.941   5.762   2.854  1.3614  1.1476  1.4147
 6317TIP3    H240367   3.001   5.626   2.885  0.0294  0.3075  0.4104
 6318TIP3   OH240368   2.186   6.353  15.342 -0.0745 -0.0721 -0.3289
 6318TIP3    H140369   2.116   6.381  15.283  0.0625  1.3570  0.1468
 6318TIP3    H240370   2.181   6.414  15.416  0.7355 -0.8743  0.4084
 6319TIP3   OH240371   6.732   3.170   1.706  0.0541  0.1953  0.4003
 6319TIP3    H140372   6.673   3.161   1.631  0.4144 -1.7292  0.3006
 6319TIP3    H240373   6.774   3.255   1.693 -1.3570  0.7993 -0.4852
 6320TIP3   OH240374   0.961   5.134  12.009  0.3090  0.0264 -1.0070
 6320TIP3    H140375   0.944   5.177  12.093  0.6562 -0.1279 -0.8512
 6320TIP3    H240376   1.057   5.131  12.003  0.3674  2.6448 -2.7585
 6321TIP3   OH240377   0.392   5.010  13.378  0.2646 -0.1957  0.4486
 6321TIP3    H140378   0.385   5.092  13.329 -0.4822  0.2054  1.1996
 6321TIP3    H240379   0.301   4.979  13.385  0.6501 -1.8675 -1.1076
 6322TIP3   OH240380   3.139   3.164   2.798 -0.6593 -0.0487 -0.6019
 6322TIP3    H140381   3.199   3.231   2.830 -1.1162  0.1416 -0.1255
 6322TIP3    H240382   3.161   3.155   2.706  0.6045 -0.5181 -0.2821
 6323TIP3   OH240383   0.746   4.957   1.800 -0.3505  0.0364  0.8674
 6323TIP3    H140384   0.763   4.929   1.710 -1.3610  0.1691  0.6180
 6323TIP3    H240385   0.689   5.033   1.791 -1.1748 -0.4643  1.6263
 6324TIP3   OH240386   1.724   0.082  12.261 -0.1975 -0.3817  0.2793
 6324TIP3    H140387   1.704   0.062  12.353 -0.8598 -2.3640 -0.2428
 6324TIP3    H240388   1.645   0.127  12.229  0.0022  0.2424  0.6381
 6325TIP3   OH240389   5.023   4.808   1.764  0.8338 -0.0971  0.4894
 6325TIP3    H140390   5.088   4.783   1.830  0.3166 -1.8092  0.4137
 6325TIP3    H240391   4.941   4.815   1.813  0.8340  0.7785  0.3750
 6326TIP3   OH240392   5.137   4.659   2.246  0.2244 -0.5213 -0.1216
 6326TIP3    H140393   5.225   4.621   2.242 -0.5503 -2.3259 -1.6633
 6326TIP3    H240394   5.104   4.632   2.331  0.2429 -2.1064 -0.5902
 6327TIP3   OH240395   1.450   0.892  15.407 -0.0297  0.1563  0.2623
 6327TIP3    H140396   1.409   0.807  15.391 -0.4685  0.4780 -0.3260
 6327TIP3    H240397   1.543   0.872  15.415  0.2144 -0.0578 -2.4743
 6328TIP3   OH240398   1.062   5.769  13.632  0.0455 -0.0404  0.6152
 6328TIP3    H140399   1.142   5.716  13.636  1.2380  1.5860 -0.3634
 6328TIP3    H240400   1.028   5.769  13.721  0.2758 -1.9995  0.7485
 6329TIP3   OH240401   4.630   4.164   3.996  0.2174  0.3943 -0.6227
 6329TIP3    H140402   4.657   4.249   3.961  0.0018  0.2312 -1.2067
 6329TIP3    H240403   4.684   4.101   3.948 -0.0641  0.1656 -0.6416
 6330TIP3   OH240404   6.079   5.043   3.738 -0.1389  0.2801 -0.2369
 6330TIP3    H140405   6.139   4.983   3.783  0.8688  0.8853 -0.7537
 6330TIP3    H240406   6.007   5.056   3.800 -0.1541 -1.0932  0.0670
 6331TIP3   OH240407   4.028   4.626  16.181  0.1154 -0.4667 -0.7848
 6331TIP3    H140408   4.111   4.578  16.180  0.2292 -0.2650 -1.3656
 6331TIP3    H240409   3.985   4.596  16.261  0.4778 -1.0346 -0.7893
 6332TIP3   OH240410   2.956   2.455   1.103 -0.3615  0.2657 -0.6754
 6332TIP3    H140411   2.869   2.475   1.139 -0.7417  0.8341 -1.8471
 6332TIP3    H240412   3.015   2.516   1.147 -0.6545  0.2598 -0.2748
 6333TIP3   OH240413   4.051   1.497   4.401 -0.1866  0.1757 -0.0067
 6333TIP3    H140414   3.960   1.527   4.399 -0.5137 -0.6035  1.4515
 6333TIP3    H240415   4.052   1.420   4.344 -0.3991  0.2832 -0.1570
 6334TIP3   OH240416   1.471   0.136  12.149 -0.0203  0.1289 -0.2613
 6334TIP3    H140417   1.382   0.102  12.162 -0.6735  2.0733  0.8134
 6334TIP3    H240418   1.459   0.209  12.087  0.9823 -0.2037 -0.8640
 6335TIP3   OH240419   5.913   1.091  16.947 -0.2679  0.0515 -0.1798
 6335TIP3    H140420   5.869   1.142  16.879 -1.2524 -1.1479 -0.4706
 6335TIP3    H240421   5.970   1.031  16.899 -0.4976 -0.3739  0.0710
 6336TIP3   OH240422   1.054   0.545  13.914 -0.0573 -1.3438  0.1990
 6336TIP3    H140423   1.086   0.629  13.947  0.0662 -1.0116 -0.7502
 6336TIP3    H240424   1.118   0.481  13.946  1.0548 -0.8071 -0.8805
 6337TIP3   OH240425   6.448   0.280   0.448 -0.0175 -0.5592 -0.4075
 6337TIP3    H140426   6.541   0.295   0.433 -0.0572  1.0534  0.6981
 6337TIP3    H240427   6.417   0.238   0.368  1.3853  0.0425 -1.3022
 6338TIP3   OH240428   0.573   4.862  10.133  0.0760 -0.1623  0.1077
 6338TIP3    H140429   0.572   4.776  10.092 -0.3622 -0.5448  0.8993
 6338TIP3    H240430   0.487   4.870  10.175  0.4095  0.3310  0.7155
 6339TIP3   OH240431   2.424   6.254  15.519 -0.1894 -0.6072 -0.7066
 6339TIP3    H140432   2.367   6.179  15.500  0.7455 -1.0610 -1.9298
 6339TIP3    H240433   2.508   6.229  15.479  0.3758  0.7367 -0.3848
 6340TIP3   OH240434   6.769   5.009   4.334  0.6435 -0.1665 -0.3139
 6340TIP3    H140435   6.759   5.087   4.280 -1.2250 -0.2142 -0.1196
 6340TIP3    H240436   6.822   4.949   4.281  1.1337  0.7937 -0.9333
 6341TIP3   OH240437   1.738   6.663  15.805 -0.3889  0.3547 -0.4612
 6341TIP3    H140438   1.796   6.724  15.850 -0.9445  0.1990  0.5000
 6341TIP3    H240439   1.650   6.695  15.824 -0.6365  0.4163 -1.6539
 6342TIP3   OH240440   0.513   6.286   3.968 -0.2366 -0.0448 -0.2109
 6342TIP3    H140441   0.500   6.191   3.972  0.0777 -0.2031 -2.0413
 6342TIP3    H240442   0.585   6.302   4.029  0.1921 -1.0990 -0.4055
 6343TIP3   OH240443   5.132   6.270   4.752  0.4772  0.5392 -0.0488
 6343TIP3    H140444   5.095   6.201   4.807  0.7969 -1.1142 -1.8111
 6343TIP3    H240445   5.223   6.277   4.781  1.0140 -1.2333 -1.1287
 6344TIP3   OH240446   6.483   4.563   4.989 -0.4007  1.0054  0.1926
 6344TIP3    H140447   6.422   4.544   5.059  1.6107 -0.4879  1.6663
 6344TIP3    H240448   6.467   4.496   4.923  1.3255 -1.1194  1.7932
 6345TIP3   OH240449   1.320   1.433   6.196  0.6203 -0.1752  0.0099
 6345TIP3    H140450   1.239   1.382   6.187  1.8033 -1.9472 -1.1350
 6345TIP3    H240451   1.389   1.367   6.204  2.0207  1.2924  0.5386
 6346TIP3   OH240452   6.201   2.252  14.880  0.3842 -0.8793 -0.0628
 6346TIP3    H140453   6.203   2.166  14.922 -0.4494 -1.0559 -0.3831
 6346TIP3    H240454   6.224   2.235  14.789 -0.3343 -0.8356 -0.2504
 6347TIP3   OH240455   4.137   0.678   4.707  0.2232 -0.0402 -0.2579
 6347TIP3    H140456   4.224   0.645   4.683 -0.2718 -1.7181  0.1634
 6347TIP3    H240457   4.121   0.749   4.645  1.8742  0.2738 -0.3626
 6348TIP3   OH240458   6.461   4.963  13.742  0.0783  0.8371  0.5335
 6348TIP3    H140459   6.521   4.958  13.816  1.2233 -1.9336 -0.4469
 6348TIP3    H240460   6.375   4.942  13.779  0.1897  1.8985  1.4433
 6349TIP3   OH240461   2.246   3.310  16.150  0.2683 -0.2402 -0.1448
 6349TIP3    H140462   2.261   3.359  16.231  1.1030 -1.0837  0.2328
 6349TIP3    H240463   2.162   3.342  16.118  0.7452  1.3698  0.1255
 6350TIP3   OH240464   0.447   1.020  12.324 -0.3129 -0.6722  0.4322
 6350TIP3    H140465   0.351   1.021  12.336 -0.6038 -0.0928 -1.6327
 6350TIP3    H240466   0.465   0.935  12.285 -0.0816 -0.4501  0.0582
 6351TIP3   OH240467   5.653   0.122  12.632 -0.1650  0.0813 -0.2543
 6351TIP3    H140468   5.652   0.122  12.536 -0.9715  1.5605 -0.2872
 6351TIP3    H240469   5.580   0.179  12.656  0.2683  0.0432  1.2418
 6352TIP3   OH240470   3.439   1.077  16.809  0.1487 -0.1558 -0.1335
 6352TIP3    H140471   3.444   1.001  16.866 -0.2573 -0.8579 -1.0166
 6352TIP3    H240472   3.472   1.149  16.863  0.7795 -0.9925  0.6311
 6353TIP3   OH240473   3.976   3.933   2.348  0.1950 -0.3624  0.1752
 6353TIP3    H140474   4.003   3.844   2.372 -2.7470 -0.8891  2.0169
 6353TIP3    H240475   3.933   3.924   2.263  2.8426  0.0035 -1.3303
 6354TIP3   OH240476   6.447   2.085  16.376  0.0866 -0.4605  0.3025
 6354TIP3    H140477   6.407   2.005  16.344  0.1919 -1.2211  1.9887
 6354TIP3    H240478   6.375   2.132  16.420  0.3714 -0.4180  0.7327
 6355TIP3   OH240479   2.930   0.860   1.502 -0.0403 -0.2714 -0.0435
 6355TIP3    H140480   2.902   0.894   1.417 -1.8477 -1.2054  0.1220
 6355TIP3    H240481   3.019   0.828   1.488 -0.8022 -1.7114 -1.9923
 6356TIP3   OH240482   1.692   0.731   4.309  0.6187  0.0599  0.3306
 6356TIP3    H140483   1.698   0.749   4.215 -3.2537  0.3490 -0.0242
 6356TIP3    H240484   1.730   0.807   4.351  0.0383  1.1718 -1.0821
 6357TIP3   OH240485   2.133   0.572   4.292 -0.7145  0.6747 -0.2402
 6357TIP3    H140486   2.187   0.591   4.369 -1.2132  0.8880  0.0628
 6357TIP3    H240487   2.132   0.476   4.287 -1.5429  0.6253  0.6499
 6358TIP3   OH240488   0.177   2.264   1.581 -0.3711 -1.2786 -0.1079
 6358TIP3    H140489   0.244   2.308   1.528 -0.7856 -0.9470 -0.3564
 6358TIP3    H240490   0.167   2.320   1.658  1.3805 -2.5575  1.1378
 6359TIP3   OH240491   3.013   5.684   1.265 -0.6283 -0.3266 -0.3525
 6359TIP3    H140492   3.047   5.768   1.297  0.7900 -1.8100  2.3842
 6359TIP3    H240493   3.083   5.649   1.210 -0.3703 -0.5774  0.1296
 6360TIP3   OH240494   0.999   2.755  14.422  0.1824  0.4211  0.5214
 6360TIP3    H140495   1.093   2.734  14.416 -0.0254 -1.0894  1.7287
 6360TIP3    H240496   0.961   2.719  14.342  0.3008 -1.2965  1.1835
 6361TIP3   OH240497   1.553   5.374  14.743  0.2125 -0.3556 -0.1021
 6361TIP3    H140498   1.465   5.341  14.762  0.3041 -0.5593 -0.0386
 6361TIP3    H240499   1.589   5.396  14.829  0.1385 -0.0573 -0.1457
 6362TIP3   OH240500   6.718   3.957  11.352 -0.8493 -0.4044 -0.1702
 6362TIP3    H140501   6.721   4.008  11.271  1.2371 -0.5389 -0.2205
 6362TIP3    H240502   6.764   4.011  11.416 -1.6604 -0.7160  0.6940
 6363TIP3   OH240503   4.124   1.798  17.125  0.5686  0.0389  0.0732
 6363TIP3    H140504   4.153   1.876  17.172  1.2308 -0.8468  1.1777
 6363TIP3    H240505   4.202   1.765  17.082  0.9177 -1.4255  1.7118
 6364TIP3   OH240506   3.551   2.341  13.920  0.1091 -0.3995 -0.1029
 6364TIP3    H140507   3.463   2.308  13.900  0.8336 -1.1538 -2.3370
 6364TIP3    H240508   3.581   2.380  13.838  1.1761  1.5467  1.1288
 6365TIP3   OH240509   5.725   4.356  11.849  0.4242  0.1620 -0.6921
 6365TIP3    H140510   5.671   4.277  11.843 -1.1896  1.0554  1.0033
 6365TIP3    H240511   5.738   4.383  11.758 -0.6236 -1.0019 -1.2143
 6366TIP3   OH240512   6.323   4.820  11.477 -0.3235 -1.0883 -0.1516
 6366TIP3    H140513   6.269   4.788  11.549  0.8296 -1.7264  0.4558
 6366TIP3    H240514   6.405   4.845  11.518 -0.7316  1.5971 -0.7760
 6367TIP3   OH240515   1.073   2.053  14.497 -0.0332  0.5746  0.5198
 6367TIP3    H140516   1.050   2.135  14.540 -2.2498 -0.8756  2.3440
 6367TIP3    H240517   1.134   2.010  14.558 -0.2209  0.1386  0.4068
 6368TIP3   OH240518   1.601   0.219   0.582 -0.4318 -0.3737  0.8869
 6368TIP3    H140519   1.644   0.134   0.578 -3.2076 -1.8979  0.8213
 6368TIP3    H240520   1.596   0.248   0.491  0.5075 -0.1206  0.9072
 6369TIP3   OH240521   6.206   6.091  11.248 -0.3187  0.0225 -0.0190
 6369TIP3    H140522   6.158   6.140  11.315  0.6414 -1.2937  1.7271
 6369TIP3    H240523   6.220   6.005  11.287  1.3183 -0.4218 -1.4515
 6370TIP3   OH240524   6.097   1.771  15.891  0.6164  0.0282  0.5747
 6370TIP3    H140525   6.021   1.775  15.834  1.2215 -0.6802 -0.3154
 6370TIP3    H240526   6.164   1.821  15.846  1.2126 -0.8376  0.4596
 6371TIP3   OH240527   3.240   0.634   4.532  0.0084  0.3094 -0.4934
 6371TIP3    H140528   3.302   0.702   4.505 -0.2596  0.4876 -0.6710
 6371TIP3    H240529   3.191   0.613   4.452  0.6162 -0.6629 -0.6338
 6372TIP3   OH240530   3.304   6.738  16.433 -0.0420  0.6102  0.2749
 6372TIP3    H140531   3.220   6.717  16.392  0.6499  1.3992 -1.6516
 6372TIP3    H240532   3.282   6.800  16.502 -1.1319  0.1429  0.3647
 6373TIP3   OH240533   5.003   3.441   4.630  0.0274 -0.1326  0.2064
 6373TIP3    H140534   5.059   3.386   4.575 -0.5066  0.8152 -1.3467
 6373TIP3    H240535   5.054   3.520   4.646 -0.2725  0.0828  0.1039
 6374TIP3   OH240536   4.150   1.662  14.462 -0.1406 -0.5870  0.4456
 6374TIP3    H140537   4.075   1.711  14.428  1.6952  2.2021  0.0791
 6374TIP3    H240538   4.162   1.695  14.550  2.4466  1.4310 -0.5442
 6375TIP3   OH240539   5.716   4.823   5.514 -0.2280  0.2487 -0.1329
 6375TIP3    H140540   5.789   4.883   5.532  1.1387 -0.3789 -3.0168
 6375TIP3    H240541   5.639   4.879   5.517  0.5543  1.3340  1.0760
 6376TIP3   OH240542   1.531   1.804  15.657  0.1234 -0.1350  0.5547
 6376TIP3    H140543   1.618   1.838  15.679  0.1384  0.8996 -0.9164
 6376TIP3    H240544   1.495   1.869  15.597 -1.9993 -0.1462  1.7135
 6377TIP3   OH240545   0.586   5.132   5.155 -0.4935  0.5356  0.3419
 6377TIP3    H140546   0.607   5.214   5.110  0.5306  0.9840  1.5701
 6377TIP3    H240547   0.669   5.084   5.156 -1.3685 -1.1731 -1.5686
 6378TIP3   OH240548   2.686   2.536  13.078 -0.0323  0.5021 -0.2043
 6378TIP3    H140549   2.727   2.459  13.117  0.1949  0.1481 -1.1168
 6378TIP3    H240550   2.753   2.604  13.082  0.0213  0.4413 -0.0719
 6379TIP3   OH240551   5.466   0.921  15.190 -0.2110  0.4495 -0.3986
 6379TIP3    H140552   5.391   0.952  15.140  0.1289  2.1103  0.0581
 6379TIP3    H240553   5.542   0.942  15.134  0.1525  2.1191  0.6497
 6380TIP3   OH240554   4.474   1.683   1.482  0.3061  0.2238  0.2356
 6380TIP3    H140555   4.474   1.702   1.575 -1.1690  2.5066 -0.1658
 6380TIP3    H240556   4.389   1.642   1.465  0.3299  0.3515 -0.2040
 6381TIP3   OH240557   1.800   3.147   2.630  0.2852 -0.6406  0.2636
 6381TIP3    H140558   1.869   3.172   2.569  0.2040 -2.7532 -0.7985
 6381TIP3    H240559   1.766   3.230   2.664  2.0565  0.5026 -0.6119
 6382TIP3   OH240560   1.351   2.862  15.432 -0.4928 -0.0725 -0.3663
 6382TIP3    H140561   1.337   2.774  15.397  1.4559 -0.6050  0.0945
 6382TIP3    H240562   1.375   2.915  15.356 -0.2367 -0.2888 -0.4385
 6383TIP3   OH240563   3.065   6.636   4.029  0.2483 -0.1512 -0.4952
 6383TIP3    H140564   3.008   6.589   3.968 -0.3169  1.0982 -0.9624
 6383TIP3    H240565   3.042   6.601   4.115  0.6336 -1.5038 -0.9195
 6384TIP3   OH240566   4.095   0.147  11.484  0.4163  0.3115 -0.2155
 6384TIP3    H140567   4.175   0.094  11.484  1.0733  1.2873 -0.4276
 6384TIP3    H240568   4.056   0.131  11.398  1.2113  1.0365 -0.7284
 6385TIP3   OH240569   5.589   1.423   2.877 -0.7661 -0.0618  0.5679
 6385TIP3    H140570   5.660   1.394   2.935  0.5518 -0.4127 -1.1149
 6385TIP3    H240571   5.542   1.490   2.927  0.9744  0.4309  1.6381
 6386TIP3   OH240572   5.015   5.518   5.525  0.0778  0.7780 -0.2825
 6386TIP3    H140573   5.045   5.436   5.487  1.0155  0.1135  1.7669
 6386TIP3    H240574   5.076   5.584   5.492  1.7569 -0.0101  1.1245
 6387TIP3   OH240575   0.957   4.574  16.249 -0.0787 -0.5950 -0.4981
 6387TIP3    H140576   1.024   4.641  16.246 -0.2128 -0.2733  1.8542
 6387TIP3    H240577   0.900   4.594  16.175  1.2746  0.3454 -1.3276
 6388TIP3   OH240578   5.189   0.316  10.679  0.3831  0.0253  0.4478
 6388TIP3    H140579   5.101   0.297  10.712  0.4173  0.0880  0.5771
 6388TIP3    H240580   5.220   0.387  10.735 -0.7587  2.3531 -1.6396
 6389TIP3   OH240581   1.524   6.403  14.910  0.0937  0.0962  0.4164
 6389TIP3    H140582   1.603   6.369  14.952  0.4050 -0.5613 -0.6533
 6389TIP3    H240583   1.455   6.390  14.975  0.9906  1.5096  1.7161
 6390TIP3   OH240584   2.280   4.381  11.519 -0.3481 -0.4475  0.0287
 6390TIP3    H140585   2.250   4.471  11.532 -0.3094 -0.7021  2.2481
 6390TIP3    H240586   2.374   4.385  11.537  0.2155 -0.4868 -2.5239
 6391TIP3   OH240587   4.602   4.322   4.406 -0.0612  0.4003  0.2929
 6391TIP3    H140588   4.653   4.350   4.483 -1.9495  2.9863  0.7112
 6391TIP3    H240589   4.564   4.402   4.372 -2.0614 -1.1437 -1.3338
 6392TIP3   OH240590   1.557   0.683  11.702  0.3407  0.1361 -0.2194
 6392TIP3    H140591   1.584   0.660  11.791 -0.3151  1.1816  0.2661
 6392TIP3    H240592   1.464   0.662  11.699  0.3122  0.3070 -0.5928
 6393TIP3   OH240593   3.096   5.082   4.891 -0.0528  0.2393  0.5435
 6393TIP3    H140594   3.026   5.028   4.855  2.0607 -0.7592 -2.4212
 6393TIP3    H240595   3.095   5.162   4.839  1.6104 -0.2365 -0.2961
 6394TIP3   OH240596   4.807   4.225   2.074  0.3354  0.4350 -0.9464
 6394TIP3    H140597   4.902   4.232   2.084  0.2127  0.6530  0.2615
 6394TIP3    H240598   4.780   4.162   2.142 -0.3430  0.1147 -1.4994
 6395TIP3   OH240599   3.933   2.547   2.753 -0.2785 -0.9447 -0.6792
 6395TIP3    H140600   4.008   2.575   2.805 -0.2885 -2.4881  0.2086
 6395TIP3    H240601   3.969   2.481   2.693 -0.9518 -1.8642 -0.0877
 6396TIP3   OH240602   1.603   6.136   1.886 -0.1993  0.4359  0.5640
 6396TIP3    H140603   1.691   6.136   1.924 -0.5615 -1.0779  1.5226
 6396TIP3    H240604   1.618   6.130   1.791  0.7255  1.4059  0.6344
 6397TIP3   OH240605   4.700   1.401   6.781 -0.4605  0.4917 -0.2237
 6397TIP3    H140606   4.722   1.399   6.688 -1.3937 -0.2694 -0.4427
 6397TIP3    H240607   4.712   1.311   6.811 -0.2163  0.7222  0.3838
 6398TIP3   OH240608   1.021   5.117   3.307  0.2861  0.1725 -0.5635
 6398TIP3    H140609   1.007   5.045   3.369 -0.1008 -0.4002 -1.3045
 6398TIP3    H240610   1.115   5.113   3.287  0.2686 -0.1186 -0.5945
 6399TIP3   OH240611   4.446   2.303  12.700 -0.0001  0.0111  0.3913
 6399TIP3    H140612   4.481   2.261  12.621 -1.2198 -0.4512  0.0643
 6399TIP3    H240613   4.470   2.395  12.691 -0.2773 -0.0007 -0.6187
 6400TIP3   OH240614   2.504   4.456  14.709 -0.1830 -0.2777  0.3819
 6400TIP3    H140615   2.493   4.526  14.772 -1.0261 -1.4409  1.5887
 6400TIP3    H240616   2.445   4.477  14.637  0.6270  0.9438  0.0458
 6401TIP3   OH240617   6.015   3.431  14.984  0.2282 -0.5424 -0.4548
 6401TIP3    H140618   6.053   3.497  15.041 -1.9851 -1.4733  2.3024
 6401TIP3    H240619   5.946   3.478  14.936  0.2834 -0.3412 -0.3382
 6402TIP3   OH240620   4.533   3.482   0.517 -0.1874 -0.1006 -0.2893
 6402TIP3    H140621   4.576   3.454   0.437  0.0997  0.5424 -0.3671
 6402TIP3    H240622   4.604   3.496   0.580 -0.2109  1.3877 -0.5484
 6403TIP3   OH240623   0.174   1.892   5.958 -0.0020 -0.5268 -0.2843
 6403TIP3    H140624   0.143   1.802   5.944  0.3643 -0.9369  1.3301
 6403TIP3    H240625   0.270   1.884   5.959  0.0202 -0.2968  0.8153
 6404TIP3   OH240626   0.895   5.275  10.943  0.5327 -0.2236 -0.5727
 6404TIP3    H140627   0.851   5.279  10.858 -0.7205 -0.5470  0.0274
 6404TIP3    H240628   0.976   5.227  10.926 -0.1672 -1.1525 -1.4065
 6405TIP3   OH240629   2.315   4.249   4.217 -0.6065 -0.0977 -0.0224
 6405TIP3    H140630   2.387   4.265   4.278 -1.1806 -0.4579  0.7637
 6405TIP3    H240631   2.344   4.290   4.135 -0.5484  1.9286  0.9432
 6406TIP3   OH240632   6.702   0.408  13.789 -0.4231 -0.2602 -0.5093
 6406TIP3    H140633   6.613   0.375  13.779  0.0012 -1.8917  0.7832
 6406TIP3    H240634   6.692   0.487  13.843 -0.9878 -1.1124  0.6718
 6407TIP3   OH240635   3.799   1.382  16.775  0.3620 -0.2736  0.1777
 6407TIP3    H140636   3.863   1.431  16.724 -0.2443 -0.3849 -0.6981
 6407TIP3    H240637   3.727   1.365  16.715  0.3910 -1.9375  0.5610
 6408TIP3   OH240638   1.528   4.566   5.321 -0.5036 -0.7083  0.0549
 6408TIP3    H140639   1.502   4.480   5.287 -1.2968 -0.1609 -0.7788
 6408TIP3    H240640   1.450   4.597   5.368  0.3644 -1.1792  1.9006
 6409TIP3   OH240641   2.938   6.775   4.579 -0.4926 -0.2274  0.1535
 6409TIP3    H140642   2.868   6.775   4.515 -0.7288  0.2214  0.4084
 6409TIP3    H240643   2.944   6.866   4.609  1.8362  0.3098 -1.6453
 6410TIP3   OH240644   4.813   2.548   5.357  0.0144  0.1601 -0.5040
 6410TIP3    H140645   4.898   2.504   5.352  0.3418  0.4129  1.8258
 6410TIP3    H240646   4.753   2.479   5.386 -0.2178  0.3798 -0.4616
 6411TIP3   OH240647   3.213   3.198   5.079  0.5105 -0.1428 -0.5439
 6411TIP3    H140648   3.307   3.212   5.094  0.2153  0.3384  1.0353
 6411TIP3    H240649   3.182   3.156   5.159 -0.4042 -1.4670 -1.5635
 6412TIP3   OH240650   0.090   4.914  16.064  0.2453  0.6071  0.3269
 6412TIP3    H140651   0.087   4.827  16.104  2.3167  0.0024 -0.6930
 6412TIP3    H240652   0.035   4.906  15.986  1.1885 -0.0946 -0.2796
 6413TIP3   OH240653   0.855   4.778   6.267 -0.6627 -0.6944  0.0124
 6413TIP3    H140654   0.790   4.782   6.336 -2.1152 -1.8766 -1.2157
 6413TIP3    H240655   0.933   4.742   6.310 -0.3092  1.9321  1.7908
 6414TIP3   OH240656   3.243   2.583  14.545  0.6476 -0.5648 -0.0377
 6414TIP3    H140657   3.185   2.518  14.506  0.5078 -0.1810 -0.4793
 6414TIP3    H240658   3.262   2.549  14.633 -0.3509 -0.6318  0.1651
 6415TIP3   OH240659   6.285   0.600  12.712  0.2242 -0.0973  0.3133
 6415TIP3    H140660   6.194   0.581  12.688  1.3523 -2.2911 -2.7781
 6415TIP3    H240661   6.302   0.687  12.676 -0.7213  0.5426  1.3434
 6416TIP3   OH240662   3.994   3.840   0.102  0.2446  0.7336  0.4223
 6416TIP3    H140663   3.952   3.825   0.017 -0.5628  0.3149  0.8810
 6416TIP3    H240664   4.026   3.754   0.128 -1.2131  0.4590  1.4110
 6417TIP3   OH240665   5.850   6.545   5.015  0.3958 -0.0638  0.0316
 6417TIP3    H140666   5.894   6.460   5.016  3.1098  1.2220  1.2504
 6417TIP3    H240667   5.869   6.581   4.929  0.0108 -0.3104 -0.1593
 6418TIP3   OH240668   1.768   1.933   3.685  0.1565 -0.0896 -1.1426
 6418TIP3    H140669   1.822   1.960   3.759 -0.6174  1.6223 -1.1612
 6418TIP3    H240670   1.699   1.879   3.724  0.2006  0.1509 -0.7255
 6419TIP3   OH240671   1.586   0.951   4.513 -0.3747 -0.0504  0.3868
 6419TIP3    H140672   1.649   0.974   4.581 -0.8266  0.5765  0.6104
 6419TIP3    H240673   1.552   1.036   4.483 -1.4960 -0.3912  0.6502
 6420TIP3   OH240674   1.996   4.778   2.654  0.3892  0.0276 -0.1357
 6420TIP3    H140675   1.971   4.830   2.577 -0.6105  1.8120  1.3175
 6420TIP3    H240676   2.091   4.773   2.650  0.2979 -1.0719 -2.1752
 6421TIP3   OH240677   5.280   2.933  12.252  0.6263  0.4578 -0.2091
 6421TIP3    H140678   5.308   2.959  12.164  0.0748 -1.1353 -0.9113
 6421TIP3    H240679   5.219   2.861  12.237  2.0059 -1.1856  1.5225
 6422TIP3   OH240680   0.617   3.070   1.261  0.6220  0.5639  0.3830
 6422TIP3    H140681   0.525   3.047   1.248  0.3026  0.9659  1.7747
 6422TIP3    H240682   0.656   3.063   1.173 -1.2222  2.5788 -0.6949
 6423TIP3   OH240683   5.785   5.579   5.435  0.4711 -0.2532  0.2113
 6423TIP3    H140684   5.858   5.596   5.495  1.5733 -0.6180 -0.9931
 6423TIP3    H240685   5.826   5.570   5.349 -0.9589 -0.8665 -0.4303
 6424TIP3   OH240686   1.466   0.231  16.728 -0.3148  0.2610  0.7151
 6424TIP3    H140687   1.526   0.249  16.800 -0.6108 -0.7764  1.2409
 6424TIP3    H240688   1.509   0.161  16.679 -0.1740  0.8769 -0.0630
 6425TIP3   OH240689   3.306   2.202   2.879 -0.0952  0.1759 -0.0304
 6425TIP3    H140690   3.255   2.169   2.953  1.2504  0.6707  1.1353
 6425TIP3    H240691   3.281   2.144   2.806  1.3498 -2.7820  1.6601
 6426TIP3   OH240692   0.056   0.733   0.819  0.1911  0.2812 -0.2850
 6426TIP3    H140693  -0.014   0.766   0.875 -1.9136  0.6734 -2.9846
 6426TIP3    H240694   0.110   0.809   0.799 -0.0480  0.4677 -0.2139
 6427TIP3   OH240695   3.647   0.944  15.760 -0.2607  0.1572 -0.5370
 6427TIP3    H140696   3.661   0.973  15.850 -1.1436  1.7757 -0.8746
 6427TIP3    H240697   3.695   1.007  15.706 -2.8509  1.6123 -1.3300
 6428TIP3   OH240698   5.929   0.699  14.913 -0.3554 -0.2616  0.4413
 6428TIP3    H140699   5.935   0.761  14.842 -0.8173 -1.6948 -0.9068
 6428TIP3    H240700   5.960   0.747  14.990 -0.4386  1.5064 -0.5865
 6429TIP3   OH240701   5.055   0.362   2.372  0.3916 -0.1126  0.1966
 6429TIP3    H140702   4.985   0.313   2.415  0.5605 -0.5229  0.0101
 6429TIP3    H240703   5.029   0.365   2.280 -1.7770  3.7328  0.6872
 6430TIP3   OH240704   3.849   6.467  16.181 -0.5848 -0.1830  0.4000
 6430TIP3    H140705   3.912   6.530  16.216  0.1424 -1.7042  1.9616
 6430TIP3    H240706   3.764   6.497  16.214 -0.2080 -0.1901  1.4104
 6431TIP3   OH240707   1.961   5.354  13.363 -0.1040  0.3060 -0.6104
 6431TIP3    H140708   1.971   5.442  13.326  1.5704  0.3194 -0.2290
 6431TIP3    H240709   1.959   5.368  13.458 -0.0537 -0.0444 -0.5581
 6432TIP3   OH240710   3.784   4.517  13.657 -0.4062 -0.1816 -0.1043
 6432TIP3    H140711   3.693   4.522  13.628 -1.3086  1.8290  2.6558
 6432TIP3    H240712   3.832   4.571  13.595 -1.3865  0.0935 -0.6387
 6433TIP3   OH240713   0.742   0.517   4.354  0.2706 -0.3738 -0.1516
 6433TIP3    H140714   0.745   0.588   4.417 -0.8377 -0.4590  0.0162
 6433TIP3    H240715   0.833   0.502   4.330  0.6860 -0.1283  1.1892
 6434TIP3   OH240716   4.273   3.777  13.553 -1.0619  0.1721  0.5855
 6434TIP3    H140717   4.290   3.688  13.524  0.2607  0.2664  0.9982
 6434TIP3    H240718   4.323   3.787  13.634  0.7941  1.9994 -0.6738
 6435TIP3   OH240719   5.846   1.535  15.371 -0.4162 -0.3968  0.8888
 6435TIP3    H140720   5.843   1.611  15.313 -0.5899 -0.3324  0.9799
 6435TIP3    H240721   5.881   1.464  15.317  0.8287  0.0211  1.1030
 6436TIP3   OH240722   3.029   4.567  11.327  0.6692  0.5742 -0.0530
 6436TIP3    H140723   3.032   4.485  11.277  1.5679  0.1769  0.6207
 6436TIP3    H240724   2.937   4.592  11.328  0.6473  0.7024 -2.0800
 6437TIP3   OH240725   3.192   6.741   0.585  0.1112  0.3101  0.4016
 6437TIP3    H140726   3.108   6.773   0.616 -0.6103  1.0214 -2.0352
 6437TIP3    H240727   3.179   6.647   0.571 -0.1692  0.3573  0.3417
 6438TIP3   OH240728   5.438   0.522   3.356 -0.3076 -0.0783 -0.0129
 6438TIP3    H140729   5.426   0.615   3.339 -0.2739 -0.3326 -1.5850
 6438TIP3    H240730   5.413   0.479   3.274 -0.9157 -1.5050  0.8782
 6439TIP3   OH240731   3.461   3.872   2.406  0.1586  0.4175  0.0686
 6439TIP3    H140732   3.486   3.942   2.345 -0.2159 -0.0352 -0.6249
 6439TIP3    H240733   3.425   3.918   2.482  0.1484  0.9911 -0.2742
 6440TIP3   OH240734   1.403   5.805  14.544 -0.1567  0.3035 -0.0807
 6440TIP3    H140735   1.324   5.800  14.490  0.2170  0.6061 -0.6652
 6440TIP3    H240736   1.374   5.847  14.625 -0.9305 -1.0175  0.3714
 6441TIP3   OH240737   6.225   1.378   4.417 -0.3369 -0.0343 -0.4104
 6441TIP3    H140738   6.199   1.301   4.366 -1.2957 -0.0373  0.0555
 6441TIP3    H240739   6.148   1.399   4.469 -0.0317  1.1479 -0.4049
 6442TIP3   OH240740   6.781   2.526   2.031  0.3593  0.4459  0.6110
 6442TIP3    H140741   6.697   2.571   2.036  0.1675  0.1132  0.4191
 6442TIP3    H240742   6.844   2.595   2.008 -0.0910  0.4446 -0.7217
 6443TIP3   OH240743   5.883   1.151   4.567  0.3506  0.3006  0.5915
 6443TIP3    H140744   5.863   1.136   4.659  2.1302 -0.3118  0.9084
 6443TIP3    H240745   5.883   1.246   4.558 -2.1284  0.3780  0.6341
 6444TIP3   OH240746   2.446   5.518  14.559  0.1669  0.5452 -0.4571
 6444TIP3    H140747   2.507   5.474  14.618 -2.4104 -1.0945  1.1696
 6444TIP3    H240748   2.381   5.558  14.616 -1.1949  0.8357 -2.1265
 6445TIP3   OH240749   3.867   1.291   3.227 -0.6102  0.2002  0.1599
 6445TIP3    H140750   3.945   1.337   3.257 -0.7840  0.3999  0.3008
 6445TIP3    H240751   3.797   1.355   3.233 -0.8575 -0.0921  0.3822
 6446TIP3   OH240752   3.966   0.284  12.050 -0.4766 -0.6905 -0.1901
 6446TIP3    H140753   3.873   0.298  12.031 -0.2919 -0.4888 -0.9433
 6446TIP3    H240754   3.990   0.359  12.105 -0.4561 -0.0779 -1.0170
 6447TIP3   OH240755   2.231   2.946  11.568  0.2380 -0.1482  0.7581
 6447TIP3    H140756   2.223   2.987  11.482 -0.1818  0.0961  0.9128
 6447TIP3    H240757   2.299   2.997  11.612  0.9844 -0.7319  0.3122
 6448TIP3   OH240758   2.373   4.912   0.586  0.1783 -0.3841 -0.3649
 6448TIP3    H140759   2.408   4.970   0.654  1.7547 -0.5849 -0.9705
 6448TIP3    H240760   2.423   4.933   0.508 -0.2083 -1.5806 -0.9586
 6449TIP3   OH240761   2.141   1.455   2.570 -0.0601 -0.1334  0.1269
 6449TIP3    H140762   2.172   1.543   2.590 -0.5409  0.3653 -1.2644
 6449TIP3    H240763   2.222   1.404   2.560  0.2128  0.0062  1.4537
 6450TIP3   OH240764   2.891   2.393  15.649  0.3903  0.0281 -0.0790
 6450TIP3    H140765   2.921   2.479  15.677  0.9353  0.0262 -0.6412
 6450TIP3    H240766   2.964   2.334  15.668  0.2874 -0.1904 -0.3543
 6451TIP3   OH240767   4.688   1.023   1.183 -0.1425 -0.2399  0.0041
 6451TIP3    H140768   4.659   1.069   1.104  1.0422 -0.3243 -0.5120
 6451TIP3    H240769   4.608   1.001   1.230 -0.8414  0.2222 -0.9524
 6452TIP3   OH240770   1.553   1.773  15.975  0.3440 -0.4002  0.4499
 6452TIP3    H140771   1.510   1.695  15.940 -1.4759  1.4140 -1.7182
 6452TIP3    H240772   1.482   1.822  16.017  1.1780  0.6682  0.6474
 6453TIP3   OH240773   1.497   2.295  13.054  0.4792 -0.0184  0.1630
 6453TIP3    H140774   1.539   2.274  12.971  2.3964  0.6147  0.9098
 6453TIP3    H240775   1.552   2.253  13.120 -0.7845 -0.1891  1.1431
 6454TIP3   OH240776   2.538   5.542  11.542 -0.1988 -0.4607  0.4330
 6454TIP3    H140777   2.443   5.536  11.553 -0.2655  1.2752  1.0350
 6454TIP3    H240778   2.556   5.492  11.462 -1.8797  0.7403 -0.7491
 6455TIP3   OH240779   1.290   5.155   4.739 -0.0925  0.5235  0.6098
 6455TIP3    H140780   1.215   5.141   4.796  0.0865 -0.6346  0.5953
 6455TIP3    H240781   1.365   5.125   4.791 -0.0177 -1.3704 -0.4840
 6456TIP3   OH240782   5.298   1.799  14.115  0.2075  0.4184 -0.4627
 6456TIP3    H140783   5.223   1.742  14.129  0.3327  0.2639 -0.4306
 6456TIP3    H240784   5.349   1.792  14.196  0.8691 -0.3844 -0.9511
 6457TIP3   OH240785   2.770   6.649  14.405  0.3263  0.2062  0.3812
 6457TIP3    H140786   2.866   6.651  14.395  0.2830 -0.2928 -0.2119
 6457TIP3    H240787   2.755   6.585  14.475  0.3615 -1.2655 -0.8836
 6458TIP3   OH240788   1.132   5.081  12.645  0.1713  0.6739 -0.3297
 6458TIP3    H140789   1.149   5.026  12.569  2.4647 -0.9642  1.2552
 6458TIP3    H240790   1.198   5.150  12.641  0.7019  0.2309  0.4489
 6459TIP3   OH240791   5.373   0.242   2.401 -0.5360 -0.2362 -0.2627
 6459TIP3    H140792   5.469   0.240   2.409 -0.4043 -3.8114 -1.1292
 6459TIP3    H240793   5.358   0.249   2.307 -1.0129 -2.2387 -0.3689
 6460TIP3   OH240794   6.173   0.715   3.094  0.7832  0.6106  0.0675
 6460TIP3    H140795   6.126   0.799   3.088  1.4884  1.0083 -0.0603
 6460TIP3    H240796   6.147   0.679   3.178 -1.9069 -0.5204 -1.1299
 6461TIP3   OH240797   1.421   2.655  10.964  0.0435 -0.6604  0.9303
 6461TIP3    H140798   1.391   2.689  10.881 -1.6106 -3.3222  0.2981
 6461TIP3    H240799   1.376   2.570  10.973 -0.0555 -0.3968  4.6336
 6462TIP3   OH240800   4.395   3.300   0.695 -0.2735  0.1842 -0.5715
 6462TIP3    H140801   4.469   3.315   0.637 -0.7650 -1.1200 -1.5801
 6462TIP3    H240802   4.401   3.370   0.760 -0.2830  2.3483 -2.7517
 6463TIP3   OH240803   4.457   3.400   1.695  0.1345  0.0937 -0.7970
 6463TIP3    H140804   4.434   3.320   1.648  2.7065 -0.9542 -0.4465
 6463TIP3    H240805   4.550   3.390   1.715  0.6763  3.3947 -1.1116
 6464TIP3   OH240806   1.210   2.239   1.131 -0.9592 -0.3029  0.3010
 6464TIP3    H140807   1.198   2.323   1.087 -0.0809 -1.0823 -1.4963
 6464TIP3    H240808   1.274   2.257   1.200 -0.9519  0.5538  0.0798
 6465TIP3   OH240809   5.610   1.186  16.854  0.1428  0.3479  0.0909
 6465TIP3    H140810   5.634   1.197  16.762  1.5762 -0.2240  0.3704
 6465TIP3    H240811   5.641   1.266  16.897  1.3172 -0.2563  0.4002
 6466TIP3   OH240812   1.175   1.281   2.425  0.3034 -0.1096  0.5167
 6466TIP3    H140813   1.182   1.209   2.363 -0.1477 -0.5804  1.0027
 6466TIP3    H240814   1.191   1.241   2.511  0.6904  0.4879  0.7357
 6467TIP3   OH240815   2.918   1.166  11.401 -0.2988  0.2662 -0.1605
 6467TIP3    H140816   2.862   1.242  11.419 -0.6272 -0.4465  2.2134
 6467TIP3    H240817   3.007   1.201  11.399 -0.5781  0.9592 -0.8991
 6468TIP3   OH240818   1.434   4.092   3.614  0.1497 -0.1457  0.3775
 6468TIP3    H140819   1.431   4.070   3.521  1.7843 -0.9061  0.4640
 6468TIP3    H240820   1.369   4.035   3.654 -1.2741  0.8746 -0.3802
 6469TIP3   OH240821   0.066   0.326   4.315 -0.1540 -0.4675  0.0545
 6469TIP3    H140822   0.066   0.329   4.219  0.0529 -1.3537  0.0178
 6469TIP3    H240823  -0.014   0.372   4.341  1.8862  3.9004 -0.3372
 6470TIP3   OH240824   1.872   1.883   4.194 -0.1006 -0.3374 -0.0130
 6470TIP3    H140825   1.862   1.919   4.106  1.6616 -3.0128 -1.4423
 6470TIP3    H240826   1.836   1.795   4.189 -0.1690 -0.4824  2.0409
 6471TIP3   OH240827   2.817   3.761   5.645  0.2952  0.2211 -0.2912
 6471TIP3    H140828   2.847   3.852   5.639  0.3675  0.7272  4.4753
 6471TIP3    H240829   2.723   3.767   5.662  0.3839 -0.5653  0.5223
 6472TIP3   OH240830   6.677   4.044   5.396 -0.3575 -0.2012 -0.4832
 6472TIP3    H140831   6.719   4.054   5.481 -2.1543  0.1860  0.4176
 6472TIP3    H240832   6.748   4.054   5.332  0.9943 -0.2889  0.9463
 6473TIP3   OH240833   5.896   3.536  11.543 -0.2755  0.1514  0.1096
 6473TIP3    H140834   5.910   3.466  11.480  1.1704 -0.4649  1.0513
 6473TIP3    H240835   5.881   3.614  11.490 -2.4571 -0.9032 -0.9750
 6474TIP3   OH240836   6.290   1.386  12.844  0.5205 -0.4224  0.2291
 6474TIP3    H140837   6.208   1.372  12.892  0.0663  2.1505  0.3758
 6474TIP3    H240838   6.303   1.306  12.794  1.2006 -3.5403  4.7561
 6475TIP3   OH240839   6.758   6.256  12.016 -0.2135  0.2241  0.4103
 6475TIP3    H140840   6.741   6.182  11.957 -2.6499  0.9837  0.0443
 6475TIP3    H240841   6.796   6.216  12.094  1.3689 -1.0234 -0.9061
 6476TIP3   OH240842   4.288   3.661   4.568 -0.0898 -0.2343  0.3107
 6476TIP3    H140843   4.330   3.610   4.498 -0.9815 -2.4894  1.2925
 6476TIP3    H240844   4.239   3.729   4.523 -0.1902 -1.2752 -1.2328
 6477TIP3   OH240845   0.917   6.723  13.547  0.0592  0.1606 -0.4939
 6477TIP3    H140846   0.845   6.686  13.496 -0.5592  2.3337 -1.3451
 6477TIP3    H240847   0.988   6.735  13.484  0.3042  0.2519 -0.2034
 6478TIP3   OH240848   1.620   2.136  14.095  0.4301  0.1963  0.0748
 6478TIP3    H140849   1.653   2.100  14.178 -0.1627 -1.5730 -0.4121
 6478TIP3    H240850   1.597   2.227  14.116  2.1670  0.3973  1.3311
 6479TIP3   OH240851   2.199   6.143  16.810  0.2657 -0.4372 -0.2386
 6479TIP3    H140852   2.128   6.093  16.769 -0.4231 -0.1418  0.5770
 6479TIP3    H240853   2.270   6.140  16.745 -1.0383  0.6479 -1.8025
 6480TIP3   OH240854   0.492   0.162   0.305  0.1270 -0.4339 -0.1514
 6480TIP3    H140855   0.474   0.209   0.386 -1.0643 -1.7398  0.3746
 6480TIP3    H240856   0.476   0.226   0.236 -2.7554 -0.3523  0.4752
 6481TIP3   OH240857   0.572   4.612  11.061 -0.4454 -0.3238 -0.0463
 6481TIP3    H140858   0.662   4.603  11.028 -0.2530 -2.2625  0.8433
 6481TIP3    H240859   0.574   4.691  11.115  0.4918  0.1397 -0.7231
 6482TIP3   OH240860   5.070   5.033  16.795  0.0861  0.2985  0.4853
 6482TIP3    H140861   5.024   5.056  16.876 -0.7762 -0.4531  0.2260
 6482TIP3    H240862   5.156   5.001  16.825 -0.8640 -1.6734  1.2820
 6483TIP3   OH240863   4.913   6.748   5.332 -0.7971 -0.3789 -0.5257
 6483TIP3    H140864   5.002   6.733   5.301 -0.6016 -1.3066  0.4238
 6483TIP3    H240865   4.862   6.765   5.253  0.6945  2.8757 -0.9448
 6484TIP3   OH240866   4.121   2.460  15.215 -0.0958  0.4943  0.1377
 6484TIP3    H140867   4.074   2.422  15.290  0.9679  1.7343  1.5094
 6484TIP3    H240868   4.145   2.385  15.161 -1.5074 -0.3772  0.6528
 6485TIP3   OH240869   2.667   1.412   1.975  0.2790 -0.0318 -0.7062
 6485TIP3    H140870   2.616   1.335   2.001 -1.2342  1.1322 -0.0863
 6485TIP3    H240871   2.748   1.405   2.026  0.3307 -1.3870 -0.9355
 6486TIP3   OH240872   5.036   2.698  12.141 -0.4630 -0.2237 -0.4672
 6486TIP3    H140873   4.943   2.704  12.160 -0.4173  2.6283 -0.7133
 6486TIP3    H240874   5.040   2.673  12.048 -1.0103  0.1837 -0.6050
 6487TIP3   OH240875   4.778   4.658   4.799  0.0580  0.3435 -0.0261
 6487TIP3    H140876   4.757   4.720   4.729 -1.6074 -0.3260 -0.1659
 6487TIP3    H240877   4.727   4.690   4.874  0.9309  0.3999  0.5455
 6488TIP3   OH240878   4.631   1.093   0.915 -0.0705 -0.1890  0.4261
 6488TIP3    H140879   4.540   1.110   0.941 -0.7069 -3.6855  0.9702
 6488TIP3    H240880   4.629   1.097   0.820 -0.8314 -0.2482  0.4281
 6489TIP3   OH240881   3.454   6.238  11.830  0.0911 -0.2386 -0.2132
 6489TIP3    H140882   3.460   6.144  11.848 -0.1494 -0.3274 -0.5796
 6489TIP3    H240883   3.373   6.248  11.780 -0.1835  0.2483  0.3183
 6490TIP3   OH240884   3.255   6.234   2.618  0.2223 -0.1083 -0.4597
 6490TIP3    H140885   3.319   6.304   2.632 -1.0359  0.7465  1.3831
 6490TIP3    H240886   3.211   6.225   2.702 -2.8432  0.1149 -1.9190
 6491TIP3   OH240887   5.547   4.415   2.442 -0.1469 -0.1350 -0.2411
 6491TIP3    H140888   5.464   4.448   2.407  0.1459  0.2253 -0.6029
 6491TIP3    H240889   5.600   4.493   2.456 -0.1321 -0.3036  0.6961
 6492TIP3   OH240890   5.982   5.921  14.071 -0.2511  0.5202  0.2041
 6492TIP3    H140891   5.948   6.005  14.041  0.9581  0.4665 -1.4658
 6492TIP3    H240892   6.071   5.940  14.099 -0.6149  0.1246  1.7189
 6493TIP3   OH240893   1.423   3.521   0.124 -0.7429 -0.0913 -0.3736
 6493TIP3    H140894   1.433   3.590   0.191 -1.4894  0.2164 -0.5775
 6493TIP3    H240895   1.462   3.443   0.165  1.7991  0.8325 -0.8028
 6494TIP3   OH240896   1.211   1.103   6.299  0.0417 -0.3259  0.6757
 6494TIP3    H140897   1.283   1.042   6.282  1.0156  0.9084  0.3223
 6494TIP3    H240898   1.162   1.106   6.217 -0.2988 -0.9776  0.8416
 6495TIP3   OH240899   0.171   1.523   0.648  0.6903  0.1966  0.4011
 6495TIP3    H140900   0.139   1.503   0.561  0.7810  2.5712 -0.2604
 6495TIP3    H240901   0.180   1.438   0.692 -0.7654 -0.9274 -1.3789
 6496TIP3   OH240902   1.052   5.172  15.452  0.0397  0.6384 -0.1599
 6496TIP3    H140903   1.120   5.152  15.388  1.2737 -3.3881  2.0753
 6496TIP3    H240904   1.100   5.192  15.533 -1.0102 -4.2625  2.0390
 6497TIP3   OH240905   0.153   4.159  13.728  0.8011  0.3156  0.2142
 6497TIP3    H140906   0.189   4.084  13.680 -2.3714 -0.5815 -1.0484
 6497TIP3    H240907   0.088   4.196  13.668 -0.2413  1.8907  2.2064
 6498TIP3   OH240908   2.241   2.275  12.635  0.2533 -0.3884  0.4114
 6498TIP3    H140909   2.170   2.332  12.606 -0.4554 -0.8591  1.1929
 6498TIP3    H240910   2.237   2.199  12.577  0.9537  0.1601 -0.3807
 6499TIP3   OH240911   4.643   3.875   4.666  0.3496  0.7746  0.5298
 6499TIP3    H140912   4.630   3.969   4.676 -0.8317  0.8941 -1.6781
 6499TIP3    H240913   4.651   3.861   4.572 -0.7760 -1.4957  0.7013
 6500TIP3   OH240914   0.067   5.337   2.906  0.3534  0.4451 -0.4961
 6500TIP3    H140915   0.158   5.364   2.921 -0.0708  0.6470  2.1302
 6500TIP3    H240916   0.071   5.242   2.899  0.6781  0.3841  0.4711
 6501TIP3   OH240917   6.171   2.861  16.939  0.5326 -0.2204  0.3348
 6501TIP3    H140918   6.201   2.860  17.030 -0.3845  0.8352  0.6647
 6501TIP3    H240919   6.143   2.951  16.923 -2.8204 -1.1449  0.2260
 6502TIP3   OH240920   4.142   1.107  12.311  0.6876 -0.4555 -0.0174
 6502TIP3    H140921   4.233   1.124  12.335 -0.5187  2.7387  3.2419
 6502TIP3    H240922   4.115   1.183  12.261 -0.5105 -0.7837  0.0934
 6503TIP3   OH240923   0.840   1.284  12.758 -0.0050  0.2801  0.2415
 6503TIP3    H140924   0.796   1.287  12.843  0.3578 -0.5011  0.4737
 6503TIP3    H240925   0.772   1.258  12.696  0.2288 -1.5863  0.7042
 6504TIP3   OH240926   1.362   5.879   2.425  0.2777  0.3635  0.2382
 6504TIP3    H140927   1.425   5.948   2.448  0.3728 -0.1216  1.5356
 6504TIP3    H240928   1.291   5.890   2.489  1.7894 -2.7177  2.7109
 6505TIP3   OH240929   3.992   5.007  15.201 -0.2968 -0.1051 -0.1425
 6505TIP3    H140930   3.996   5.042  15.290  3.3268 -2.6942  0.9265
 6505TIP3    H240931   3.948   4.923  15.210  0.5082 -0.5964 -0.6761
 6506TIP3   OH240932   3.698   3.033   4.810  0.3311  0.2040  0.1692
 6506TIP3    H140933   3.632   2.996   4.752 -0.0151  1.5205 -0.3173
 6506TIP3    H240934   3.763   2.964   4.820 -0.0599 -0.3675 -1.0663
 6507TIP3   OH240935   3.164   2.646   5.939  0.1908  0.2148 -0.6782
 6507TIP3    H140936   3.116   2.688   5.867  0.8357  1.1802 -0.5631
 6507TIP3    H240937   3.198   2.719   5.990  0.6959 -0.4690 -0.0339
 6508TIP3   OH240938   2.091   2.502  13.464 -0.1202 -0.0132  0.0927
 6508TIP3    H140939   2.001   2.518  13.432 -1.3971 -1.3515  2.7217
 6508TIP3    H240940   2.121   2.427  13.413 -1.1530 -0.6126  0.3511
 6509TIP3   OH240941   1.992   0.898  12.737 -0.6424 -0.6911 -0.0086
 6509TIP3    H140942   1.976   0.825  12.677 -0.5740 -2.4135  1.9442
 6509TIP3    H240943   2.066   0.870  12.790 -0.1209  1.1593  0.3150
 6510TIP3   OH240944   1.967   0.720   6.728 -0.1467 -0.4795  0.0589
 6510TIP3    H140945   1.889   0.738   6.676  0.6454 -0.4674 -1.1493
 6510TIP3    H240946   2.028   0.678   6.668  1.4671  1.1363  0.4672
 6511TIP3   OH240947   1.850   1.008  16.449 -0.0447  0.8682 -0.0241
 6511TIP3    H140948   1.843   1.045  16.537  0.2014  1.0827 -0.0907
 6511TIP3    H240949   1.924   1.055  16.409  0.7258 -0.1766  0.1191
 6512TIP3   OH240950   2.138   6.415   5.153 -0.7036 -0.4494 -0.2660
 6512TIP3    H140951   2.126   6.485   5.089 -1.8179 -0.0288  0.3803
 6512TIP3    H240952   2.189   6.348   5.106 -1.0761  0.0549 -1.4269
 6513TIP3   OH240953   2.465   3.789  13.432 -0.0905  0.1943 -0.1556
 6513TIP3    H140954   2.549   3.832  13.417  0.4326 -0.5363  0.5688
 6513TIP3    H240955   2.420   3.793  13.348  1.8961 -2.0431 -1.4237
 6514TIP3   OH240956   4.658   1.088   2.540  0.4561 -0.2689 -0.0285
 6514TIP3    H140957   4.675   1.151   2.470  0.5399  1.5314  1.5422
 6514TIP3    H240958   4.745   1.058   2.566  0.5912  0.7539  0.7621
 6515TIP3   OH240959   0.522   1.776  16.015  0.0348 -0.0266 -0.2756
 6515TIP3    H140960   0.474   1.727  16.081 -1.3932  2.4067  0.5987
 6515TIP3    H240961   0.462   1.783  15.940 -0.3071  1.4336  0.1075
 6516TIP3   OH240962   6.048   3.073  15.599  0.0666 -0.0092 -0.0165
 6516TIP3    H140963   6.115   3.054  15.664 -0.5302  0.0639  0.6385
 6516TIP3    H240964   6.095   3.114  15.526  1.2033 -2.7438 -0.9214
 6517TIP3   OH240965   4.167   4.619   1.468 -0.2668  0.1347 -0.1374
 6517TIP3    H140966   4.187   4.637   1.560 -1.0946  0.1318  0.0476
 6517TIP3    H240967   4.158   4.524   1.463  0.6885  0.0517 -0.4147
 6518TIP3   OH240968   1.523   3.885   0.344 -0.0916  0.5444 -0.4049
 6518TIP3    H140969   1.600   3.828   0.354  0.5475  1.3130 -0.7981
 6518TIP3    H240970   1.530   3.917   0.254  3.0841  6.0860  1.3190
 6519TIP3   OH240971   2.326   1.360  11.986 -0.0234 -0.1391  0.6975
 6519TIP3    H140972   2.312   1.413  12.065  0.7418 -1.3686  1.7038
 6519TIP3    H240973   2.269   1.399  11.920  0.4201  1.8322  1.4301
 6520TIP3   OH240974   4.386   1.974  14.631 -0.2926  0.2097 -0.6016
 6520TIP3    H140975   4.342   2.009  14.708 -1.1837  1.2699 -1.5622
 6520TIP3    H240976   4.359   1.883  14.626 -1.5442  0.5645 -0.5636
 6521TIP3   OH240977   0.847   4.908  16.044  0.2193 -0.5754  0.0756
 6521TIP3    H140978   0.932   4.951  16.052 -0.1821  0.3328 -0.4278
 6521TIP3    H240979   0.796   4.939  16.119 -0.2087  0.1899 -0.5099
 6522TIP3   OH240980   6.571   6.333  14.817 -0.1717 -0.0332  0.0268
 6522TIP3    H140981   6.490   6.292  14.787  0.1317 -1.1439  0.6802
 6522TIP3    H240982   6.549   6.426  14.824 -0.8719 -0.0478 -1.4856
 6523TIP3   OH240983   2.410   5.800  14.413 -0.2746 -0.0848  0.4070
 6523TIP3    H140984   2.365   5.743  14.475 -2.5624  0.5144 -0.5854
 6523TIP3    H240985   2.434   5.742  14.341 -1.1082 -0.1090  0.1387
 6524TIP3   OH240986   4.630   6.064  17.089 -0.1664 -0.3782  0.8351
 6524TIP3    H140987   4.678   5.982  17.094 -0.7718 -0.9570 -1.4633
 6524TIP3    H240988   4.697   6.131  17.075  0.1445 -1.1412 -2.0251
 6525TIP3   OH240989   2.948   0.178  13.803  0.4980 -0.0513 -0.4486
 6525TIP3    H140990   2.855   0.199  13.813  0.6265 -0.0371  0.8095
 6525TIP3    H240991   2.971   0.216  13.718 -0.2180  1.5497  0.0226
 6526TIP3   OH240992   6.357   2.694  16.842  0.4123  0.7563 -0.3936
 6526TIP3    H140993   6.444   2.732  16.841 -0.3514  2.6219  0.4177
 6526TIP3    H240994   6.298   2.768  16.854 -1.2987 -0.4528 -0.9461
 6527TIP3   OH240995   4.266   4.404  13.876 -0.3206  0.6071  0.6463
 6527TIP3    H140996   4.337   4.446  13.828  0.2525 -0.8149  0.1923
 6527TIP3    H240997   4.187   4.452  13.849  0.2873  1.3149  0.0824
 6528TIP3   OH240998   2.429   2.255   5.770 -1.5108 -0.0723  0.0030
 6528TIP3    H140999   2.450   2.205   5.849 -0.5018 -0.8001 -0.6994
 6528TIP3    H241000   2.411   2.343   5.801 -1.1950 -0.3678  1.0549
 6529TIP3   OH241001   2.145   4.428   2.332  0.2017  0.4554  0.7803
 6529TIP3    H141002   2.225   4.470   2.299 -0.4837  0.2296 -1.3614
 6529TIP3    H241003   2.130   4.356   2.271 -1.7763  0.6596  0.9739
 6530TIP3   OH241004   3.564   5.376  17.075  0.0281 -0.0582 -0.4912
 6530TIP3    H141005   3.585   5.440  17.007 -1.0307 -0.3156 -1.0824
 6530TIP3    H241006   3.570   5.292  17.031 -0.2266 -0.2571 -0.1498
 6531TIP3   OH241007   5.674   2.396  16.342  0.7966 -0.5622 -0.2065
 6531TIP3    H141008   5.646   2.306  16.322  1.6559 -1.1502  1.0663
 6531TIP3    H241009   5.685   2.396  16.437  0.2338  1.0831 -0.1269
 6532TIP3   OH241010   6.164   6.640  14.542  0.3576 -0.2544 -0.0577
 6532TIP3    H141011   6.104   6.580  14.499 -0.7668 -0.2457  1.4286
 6532TIP3    H241012   6.226   6.666  14.473 -1.0880 -0.5666 -1.5376
 6533TIP3   OH241013   6.698   6.475  16.632  0.7061 -0.0407 -0.4948
 6533TIP3    H141014   6.763   6.485  16.702 -0.5359  1.5921  0.5288
 6533TIP3    H241015   6.690   6.563  16.595  0.4278 -0.6291 -1.8838
 6534TIP3   OH241016   2.854   3.225  11.888  0.1829  0.1160 -0.2500
 6534TIP3    H141017   2.845   3.238  11.793 -0.3887  0.1032 -0.2010
 6534TIP3    H241018   2.928   3.279  11.913 -0.8059  1.5984 -0.3952
 6535TIP3   OH241019   5.204   3.527  10.834 -0.0651  0.7296  0.3037
 6535TIP3    H141020   5.279   3.477  10.867 -1.6220 -1.1715  1.1716
 6535TIP3    H241021   5.208   3.514  10.739  0.2846 -0.0244  0.4080
 6536TIP3   OH241022   1.969   2.777  12.440  0.0913 -0.1321  0.8853
 6536TIP3    H141023   1.960   2.721  12.517  0.1741 -2.8865 -0.9799
 6536TIP3    H241024   1.879   2.804  12.419 -0.1322 -0.7946  0.9702
 6537TIP3   OH241025   3.309   4.562   6.543 -0.5978  0.4447 -0.3674
 6537TIP3    H141026   3.282   4.525   6.459  1.1121 -1.7007 -0.0689
 6537TIP3    H241027   3.401   4.587   6.530 -0.0994 -0.5447  1.0114
 6538TIP3   OH241028   3.867   4.509  10.935  0.6164 -0.2094  0.4281
 6538TIP3    H141029   3.891   4.584  10.991  0.9772 -1.1903  1.6352
 6538TIP3    H241030   3.951   4.479  10.899  0.3807  0.4315 -0.6790
 6539TIP3   OH241031   5.957   6.421  14.499  0.5383  0.0844  0.2214
 6539TIP3    H141032   6.026   6.431  14.433  0.8820 -0.9565  0.3956
 6539TIP3    H241033   5.932   6.328  14.493 -0.5505  0.3470  0.4601
 6540TIP3   OH241034   0.645   5.846  13.728 -0.6081  0.8583  0.3925
 6540TIP3    H141035   0.675   5.834  13.638 -0.7584  0.4741  0.3922
 6540TIP3    H241036   0.567   5.792  13.734  0.0999 -0.1192  1.1134
 6541TIP3   OH241037   4.579   4.014   1.827 -0.7734 -0.0395  0.2427
 6541TIP3    H141038   4.579   4.024   1.732 -0.8066 -0.7029  0.1673
 6541TIP3    H241039   4.489   3.993   1.849 -1.5843  3.4787  0.8309
 6542TIP3   OH241040   1.003   1.977   5.214  0.0237  0.3109 -0.2148
 6542TIP3    H141041   1.081   2.014   5.173  0.3390 -0.4387 -0.3043
 6542TIP3    H241042   0.941   1.964   5.142 -1.3131  3.4759  0.1567
 6543TIP3   OH241043   3.588   4.831  11.280  0.6522 -0.5977  0.0624
 6543TIP3    H141044   3.582   4.792  11.367  0.8137  0.1758  0.4205
 6543TIP3    H241045   3.527   4.779  11.227  0.9456 -1.4086  0.5063
 6544TIP3   OH241046   5.814   2.705   2.633 -0.2866 -0.1963 -0.3430
 6544TIP3    H141047   5.815   2.799   2.651  0.6084 -0.4212  0.9042
 6544TIP3    H241048   5.818   2.664   2.719  0.1266 -1.3682 -0.9024
 6545TIP3   OH241049   3.239   2.086  16.984  0.1725  0.4712 -0.3285
 6545TIP3    H141050   3.264   2.162  17.037 -1.0676  1.2773 -0.8535
 6545TIP3    H241051   3.189   2.030  17.044  1.0022  0.1106  0.0318
 6546TIP3   OH241052   1.708   6.000  17.000  0.0329  0.1809 -0.1574
 6546TIP3    H141053   1.678   6.086  17.031 -1.1420 -0.6455  1.1216
 6546TIP3    H241054   1.646   5.938  17.039  1.1873 -1.3015 -0.6057
 6547TIP3   OH241055   5.207   5.757  14.585 -0.3293  0.3287  0.2492
 6547TIP3    H141056   5.185   5.778  14.676 -0.8467 -0.0124  0.2049
 6547TIP3    H241057   5.241   5.667  14.589  0.2140  0.5259  0.1861
 6548TIP3   OH241058   6.083   3.135  12.428  0.6785  0.5481 -0.1287
 6548TIP3    H141059   6.046   3.103  12.346  0.9944  1.1632 -0.5185
 6548TIP3    H241060   6.177   3.132  12.415  0.7237  1.2373 -0.0336
 6549TIP3   OH241061   4.953   5.485  11.776  0.0193  0.2894  0.3672
 6549TIP3    H141062   4.984   5.430  11.704  1.5045  1.2543  0.2259
 6549TIP3    H241063   4.884   5.538  11.738  1.5030  1.5516 -0.7016
 6550TIP3   OH241064   2.530   5.690  12.135 -0.3430  0.2592  0.3512
 6550TIP3    H141065   2.585   5.714  12.060 -1.0472  2.1036  0.3874
 6550TIP3    H241066   2.580   5.621  12.179 -0.1971 -1.3555 -2.1319
 6551TIP3   OH241067   4.888   0.037   4.164  0.4974  0.6630  0.4655
 6551TIP3    H141068   4.820   0.027   4.231  0.3634  2.5369  0.6598
 6551TIP3    H241069   4.839   0.041   4.081  0.5605 -0.2621  0.3744
 6552TIP3   OH241070   1.584   1.431  13.878  0.3681 -0.1956 -0.4812
 6552TIP3    H141071   1.504   1.380  13.892  0.8865 -1.7618 -2.6517
 6552TIP3    H241072   1.630   1.429  13.962 -0.4601 -1.8628 -0.0311
 6553TIP3   OH241073   5.478   0.069   5.215 -0.9008 -0.4774 -0.1745
 6553TIP3    H141074   5.566   0.079   5.180 -1.3384 -0.4688 -1.3058
 6553TIP3    H241075   5.477   0.125   5.293  0.0070 -0.2805 -0.2912
 6554TIP3   OH241076   2.898   0.969  15.924 -0.5767  0.3664  0.1340
 6554TIP3    H141077   2.968   1.034  15.934  0.2425 -0.2894 -1.0986
 6554TIP3    H241078   2.920   0.901  15.987  0.8210 -0.5915 -1.3301
 6555TIP3   OH241079   1.644   1.740   2.690 -0.1214  0.0138  0.4145
 6555TIP3    H141080   1.558   1.778   2.703 -0.2453  0.0682 -0.5059
 6555TIP3    H241081   1.666   1.760   2.599  0.7697 -0.1798  0.5776
 6556TIP3   OH241082   2.288   5.463   0.582 -0.6226 -0.0241 -0.3422
 6556TIP3    H141083   2.358   5.467   0.516 -1.4923 -0.7148 -1.3529
 6556TIP3    H241084   2.319   5.518   0.654  1.3226 -0.9554 -0.4020
 6557TIP3   OH241085   4.017   5.430   4.571 -0.3400  0.2002  0.0953
 6557TIP3    H141086   4.025   5.361   4.505 -0.5759  0.7021 -0.4701
 6557TIP3    H241087   3.992   5.508   4.521  1.6279  1.1387  0.4672
 6558TIP3   OH241088   3.229   6.095  11.343  0.1810 -0.2544  0.2092
 6558TIP3    H141089   3.305   6.152  11.347 -0.0722  0.3438 -1.9929
 6558TIP3    H241090   3.191   6.112  11.257 -3.2154  0.4616  1.6922
 6559TIP3   OH241091   0.454   1.625  16.971 -0.5491 -0.2629  0.4141
 6559TIP3    H141092   0.436   1.627  17.065 -2.1387  0.0758  0.1265
 6559TIP3    H241093   0.493   1.710  16.952 -0.0002 -0.4238  0.7995
 6560TIP3   OH241094   3.342   1.806   2.399  0.4855  0.2589 -0.3744
 6560TIP3    H141095   3.258   1.764   2.380 -0.6071  2.4983 -0.9344
 6560TIP3    H241096   3.350   1.802   2.495 -0.4679  0.3244 -0.2803
 6561TIP3   OH241097   3.129   1.694   4.552  0.4329  0.7435 -0.2809
 6561TIP3    H141098   3.190   1.767   4.564  2.1096 -0.7969  1.0583
 6561TIP3    H241099   3.087   1.684   4.638  0.5463 -0.1321 -0.3208
 6562TIP3   OH241100   5.569   2.571   6.128  0.0702  0.0035  0.3896
 6562TIP3    H141101   5.637   2.566   6.194 -1.2990  0.0234  1.8635
 6562TIP3    H241102   5.570   2.663   6.100 -0.2064  0.3123  1.3596
 6563TIP3   OH241103   3.478   2.884   5.028 -0.4495  0.1389  0.3628
 6563TIP3    H141104   3.559   2.924   5.060 -0.3962 -0.7945  1.4975
 6563TIP3    H241105   3.436   2.951   4.976 -0.0244  1.4212  1.6097
 6564TIP3   OH241106   3.021   5.345   5.656 -0.2343  0.6301 -0.4602
 6564TIP3    H141107   3.089   5.298   5.608 -0.5017  0.3084 -0.5274
 6564TIP3    H241108   3.044   5.335   5.748 -1.0203 -0.7862 -0.3949
 6565TIP3   OH241109   4.341   2.938   4.370  0.3032 -0.8128 -0.4784
 6565TIP3    H141110   4.311   2.883   4.297  0.9829 -0.5416 -0.9748
 6565TIP3    H241111   4.406   2.885   4.415  1.0144 -0.4075 -1.0026
 6566TIP3   OH241112   4.496   6.179   0.155  0.1020  0.4753 -0.6973
 6566TIP3    H141113   4.452   6.106   0.112  0.6913 -0.3332  0.0517
 6566TIP3    H241114   4.487   6.162   0.249  2.1388  0.1755 -0.5036
 6567TIP3   OH241115   4.267   3.098  15.805  0.0251  0.0046 -0.0904
 6567TIP3    H141116   4.196   3.088  15.741 -0.2915  1.2593  0.0395
 6567TIP3    H241117   4.314   3.176  15.776  0.4110  0.0784  0.7098
 6568TIP3   OH241118   1.591   1.989  15.295 -0.0271 -0.3659  0.0255
 6568TIP3    H141119   1.617   2.081  15.287  1.6429 -0.9744 -2.2680
 6568TIP3    H241120   1.555   1.983  15.384  2.1858  1.9231  1.2162
 6569TIP3   OH241121   3.350   0.046  10.912 -0.3032  0.2106 -0.1178
 6569TIP3    H141122   3.280  -0.016  10.893 -0.0218  0.1416 -0.9996
 6569TIP3    H241123   3.356   0.100  10.833  0.6532  0.1839 -0.0807
 6570TIP3   OH241124   1.983   5.887   3.714 -0.2095  0.1333 -0.2831
 6570TIP3    H141125   1.940   5.809   3.749  2.4593 -1.4322 -0.2204
 6570TIP3    H241126   1.942   5.900   3.628 -1.8083 -0.3191  0.3629
 6571TIP3   OH241127   1.092   4.585  14.305  0.5113  0.4272  0.1505
 6571TIP3    H141128   1.103   4.658  14.367  0.8283 -0.6596  1.4276
 6571TIP3    H241129   1.070   4.510  14.360  0.8267 -0.5932 -1.0597
 6572TIP3   OH241130   4.800   0.639  11.041 -0.3120 -0.2375 -0.3825
 6572TIP3    H141131   4.764   0.573  10.982 -0.7295 -0.0296 -0.3713
 6572TIP3    H241132   4.723   0.688  11.070  0.0413  0.5326 -0.7317
 6573TIP3   OH241133   0.919   3.216   1.769  0.1603  0.2430  0.1323
 6573TIP3    H141134   0.838   3.169   1.748  0.9763 -0.8191 -0.7938
 6573TIP3    H241135   0.988   3.158   1.737  1.3041  0.9357  1.2884
 6574TIP3   OH241136   5.586   3.689   6.126 -0.0727 -0.1468  0.2829
 6574TIP3    H141137   5.549   3.776   6.109 -2.3628 -1.1222 -0.1104
 6574TIP3    H241138   5.511   3.630   6.121  1.0892 -1.9460  2.4865
 6575TIP3   OH241139   1.440   4.277  15.103 -0.4587  0.1998 -0.1823
 6575TIP3    H141140   1.388   4.237  15.033 -1.1064 -1.2099  1.0484
 6575TIP3    H241141   1.421   4.370  15.097 -3.0712 -0.2485  0.1412
 6576TIP3   OH241142   2.508   3.662   3.365  0.1753 -0.1478 -0.2257
 6576TIP3    H141143   2.517   3.717   3.286  0.0592  0.1982  0.0011
 6576TIP3    H241144   2.581   3.690   3.421  0.6646 -0.8704 -0.4889
 6577TIP3   OH241145   5.796   6.512  11.155  0.4847  0.0232 -0.3535
 6577TIP3    H141146   5.766   6.462  11.079 -2.5022 -0.3726  0.9542
 6577TIP3    H241147   5.843   6.448  11.209  3.2801  0.4709 -2.0693
 6578TIP3   OH241148   1.971   2.610  15.467 -0.0424 -0.5074 -0.1918
 6578TIP3    H141149   1.937   2.682  15.413  0.6327  0.7671  1.0313
 6578TIP3    H241150   1.914   2.536  15.446  0.5731 -0.2692 -3.1310
 6579TIP3   OH241151   1.214   5.209   5.347 -0.0801 -0.0350 -0.2151
 6579TIP3    H141152   1.240   5.145   5.280 -1.5323  0.3137 -1.1685
 6579TIP3    H241153   1.230   5.294   5.306 -0.1327  0.1918  0.2332
 6580TIP3   OH241154   4.850   0.872  11.217  0.2818 -0.1406  0.8912
 6580TIP3    H141155   4.910   0.826  11.158  2.0703  1.4767  1.3379
 6580TIP3    H241156   4.769   0.881  11.167  1.0412 -0.6968 -0.4977
 6581TIP3   OH241157   3.535   6.381  11.156  0.3707 -0.1221 -0.1182
 6581TIP3    H141158   3.523   6.462  11.106  1.2376 -0.0396 -0.2066
 6581TIP3    H241159   3.455   6.374  11.209 -0.3039  0.0889 -1.0759
 6582TIP3   OH241160   3.005   3.455   4.150 -0.0986  0.3676  0.8400
 6582TIP3    H141161   2.958   3.394   4.093  2.0066  0.3714 -1.0366
 6582TIP3    H241162   2.936   3.500   4.198 -1.9459 -0.3697 -0.9640
 6583TIP3   OH241163   4.662   4.272  13.525 -0.3131  0.5833 -0.1087
 6583TIP3    H141164   4.746   4.270  13.479 -0.9200 -1.3770 -1.2489
 6583TIP3    H241165   4.619   4.351  13.493  0.5561  0.8948 -0.5329
 6584TIP3   OH241166   5.275   1.492   5.372  0.4279 -0.0841  0.2490
 6584TIP3    H141167   5.356   1.452   5.404 -0.4348 -0.5367  1.9771
 6584TIP3    H241168   5.282   1.584   5.398 -0.4282 -0.5214  2.2223
 6585TIP3   OH241169   1.713   5.326   3.223 -0.1684 -0.0976  0.0390
 6585TIP3    H141170   1.733   5.261   3.156  0.2229  1.7041 -1.6815
 6585TIP3    H241171   1.734   5.410   3.183 -1.9780  1.2321  1.6581
 6586TIP3   OH241172   6.262   4.673   0.582  0.6363 -0.3090  0.1427
 6586TIP3    H141173   6.277   4.697   0.673  0.8449 -2.0783  0.6187
 6586TIP3    H241174   6.182   4.620   0.583  2.4029 -3.2159 -0.0987
 6587TIP3   OH241175   1.982   3.448  16.545  0.0476  0.2535 -0.1804
 6587TIP3    H141176   1.959   3.358  16.525 -1.0664  0.7666 -1.3355
 6587TIP3    H241177   1.980   3.453  16.640 -0.4330 -0.8002 -0.1243
 6588TIP3   OH241178   2.782   6.196   0.477 -0.0275  0.2058 -0.5605
 6588TIP3    H141179   2.770   6.266   0.413 -0.5482 -0.1567 -0.8635
 6588TIP3    H241180   2.770   6.239   0.562 -1.0076  0.3602 -0.7676
 6589TIP3   OH241181   6.032   5.835  10.326  0.2589  0.2811  0.0353
 6589TIP3    H141182   5.995   5.897  10.264 -2.3142 -0.9008  0.2671
 6589TIP3    H241183   5.963   5.822  10.391  1.2462 -1.7590  0.7614
 6590TIP3   OH241184   0.262   5.912  16.001  0.0723  0.4989 -0.1567
 6590TIP3    H141185   0.244   5.970  15.927  0.3111  0.8609  0.0651
 6590TIP3    H241186   0.200   5.840  15.990 -1.6558  1.7586  0.6293
 6591TIP3   OH241187   6.730   2.988  15.284 -0.4516  0.0976  0.0330
 6591TIP3    H141188   6.683   2.947  15.211 -2.6132 -0.2147  1.5063
 6591TIP3    H241189   6.673   3.060  15.312  0.0770 -0.0907  1.6954
 6592TIP3   OH241190   1.685   5.584  16.201 -0.2167 -0.2959  0.1511
 6592TIP3    H141191   1.730   5.617  16.278 -1.2017 -0.0844  0.6432
 6592TIP3    H241192   1.656   5.496  16.226 -1.9448  0.3693  0.6260
 6593TIP3   OH241193   2.451   1.093   1.693 -0.6856 -0.6379  0.1541
 6593TIP3    H141194   2.425   1.004   1.668 -0.9237 -1.3152  2.5749
 6593TIP3    H241195   2.392   1.116   1.765  0.7018  0.6705  0.9221
 6594TIP3   OH241196   3.624   1.797   5.779  0.1826 -0.2572  1.2506
 6594TIP3    H141197   3.619   1.821   5.871 -3.9685 -1.4649  1.5556
 6594TIP3    H241198   3.598   1.705   5.777  0.9957 -0.5090 -1.0825
 6595TIP3   OH241199   2.760   5.745  12.519 -0.2371  0.3128 -0.2469
 6595TIP3    H141200   2.726   5.784  12.438 -0.6300 -0.4494 -0.4606
 6595TIP3    H241201   2.714   5.791  12.589  1.1885  2.0210 -0.3800
 6596TIP3   OH241202   6.661   2.763   5.843 -0.0877 -0.1075  0.5394
 6596TIP3    H141203   6.679   2.738   5.752 -0.8974 -0.5942  0.5095
 6596TIP3    H241204   6.695   2.852   5.850  1.2499 -0.5547  0.1595
 6597TIP3   OH241205   1.551   3.206   1.345  0.4280 -1.1769  0.0103
 6597TIP3    H141206   1.479   3.231   1.402  0.8776  1.3304 -0.3967
 6597TIP3    H241207   1.602   3.143   1.396  0.4508  0.4767  2.1180
 6598TIP3   OH241208   5.241   5.469   4.725  0.1181 -0.1670 -0.1687
 6598TIP3    H141209   5.319   5.495   4.677 -0.2107 -0.4133 -0.8532
 6598TIP3    H241210   5.261   5.382   4.760  1.0129  0.7210  1.6545
 6599TIP3   OH241211   2.771   2.146  14.017  0.2425  0.4767  0.0108
 6599TIP3    H141212   2.734   2.214  14.072 -1.7247  0.7974 -1.5892
 6599TIP3    H241213   2.710   2.072  14.026  0.7996 -0.0508 -0.4507
 6600TIP3   OH241214   6.586   4.783  15.619  0.0136 -0.1444  0.1024
 6600TIP3    H141215   6.664   4.774  15.564 -0.2502 -0.6359 -0.1999
 6600TIP3    H241216   6.513   4.776  15.557 -0.2660  0.7022  0.3316
 6601TIP3   OH241217   2.762   4.969  16.736 -0.5877 -0.0248  0.1755
 6601TIP3    H141218   2.667   4.979  16.744 -1.0357 -1.6255 -2.2438
 6601TIP3    H241219   2.784   5.009  16.652  0.5921 -1.2030 -0.1186
 6602TIP3   OH241220   6.219   1.613   0.717 -0.6139 -0.2645 -0.2434
 6602TIP3    H141221   6.174   1.649   0.641  1.0748  0.6140 -0.8854
 6602TIP3    H241222   6.272   1.686   0.750 -0.5285 -0.9272  1.1455
 6603TIP3   OH241223   4.154   6.314   2.669 -0.0962 -0.6254 -0.1249
 6603TIP3    H141224   4.185   6.241   2.616  2.0127  0.3350 -0.2987
 6603TIP3    H241225   4.142   6.386   2.607  0.7787  0.0283  0.4525
 6604TIP3   OH241226   1.031   1.586   1.640  0.1348  0.2686  0.1385
 6604TIP3    H141227   1.042   1.614   1.550  0.0525  0.0737  0.0675
 6604TIP3    H241228   0.937   1.568   1.648  0.2417 -0.3267  0.0834
 6605TIP3   OH241229   2.715   3.361   5.358  0.1658  0.4732  0.3931
 6605TIP3    H141230   2.765   3.428   5.404  0.8219 -0.6662  1.3972
 6605TIP3    H241231   2.779   3.293   5.337 -0.3929  0.3343 -1.0116
 6606TIP3   OH241232   0.472   5.904   2.793 -0.2343 -0.1804 -0.1880
 6606TIP3    H141233   0.460   5.845   2.718 -1.5268 -2.9748  2.0563
 6606TIP3    H241234   0.402   5.969   2.784 -1.2935 -1.3545 -0.6592
 6607TIP3   OH241235   4.268   3.166   4.141 -0.4557  0.1048  0.7121
 6607TIP3    H141236   4.296   3.110   4.068 -0.4814  0.6348  0.2924
 6607TIP3    H241237   4.195   3.117   4.181  1.0738 -1.3277  1.8833
 6608TIP3   OH241238   0.765   4.619  12.278  0.3064  0.0412 -0.2447
 6608TIP3    H141239   0.708   4.692  12.255 -1.2670 -1.8881 -2.9634
 6608TIP3    H241240   0.767   4.619  12.374 -1.6544  2.1039 -0.1392
 6609TIP3   OH241241   3.022   1.278  15.083 -0.0431  0.2718  0.8879
 6609TIP3    H141242   2.953   1.310  15.142  0.1320  2.5637 -0.0686
 6609TIP3    H241243   3.104   1.304  15.126  0.1339  0.3027  0.5283
 6610TIP3   OH241244   3.772   5.110  14.107 -0.5597  0.1367  0.4024
 6610TIP3    H141245   3.703   5.111  14.040  0.4020 -1.8075 -0.7037
 6610TIP3    H241246   3.750   5.183  14.165 -0.9128  2.6056 -2.5557
 6611TIP3   OH241247   0.792   6.603  13.302 -0.0435 -0.1177  0.4699
 6611TIP3    H141248   0.778   6.551  13.223  0.4014 -0.2557  0.4776
 6611TIP3    H241249   0.815   6.690  13.269 -2.1290  0.4721  0.4565
 6612TIP3   OH241250   6.623   4.238  15.091 -0.1407  0.3108  0.0146
 6612TIP3    H141251   6.657   4.171  15.030 -0.5133 -0.2557  0.4192
 6612TIP3    H241252   6.702   4.274  15.132  0.1258  0.8072 -0.9068
 6613TIP3   OH241253   4.038   4.858  13.934  0.1211  0.0044  0.0853
 6613TIP3    H141254   4.123   4.847  13.891  0.4647  1.1836  0.4361
 6613TIP3    H241255   3.997   4.772  13.927  0.6378 -0.1344 -1.5912
 6614TIP3   OH241256   5.363   1.826  15.638  0.3805  0.0585  0.3076
 6614TIP3    H141257   5.403   1.757  15.690 -0.4368  0.0347  0.9243
 6614TIP3    H241258   5.269   1.807  15.641  0.1627  1.0772  0.3205
 6615TIP3   OH241259   2.975   5.957   0.001  0.1150 -0.0162  0.3166
 6615TIP3    H141260   2.896   5.928  -0.043  0.3769 -1.5988  0.8455
 6615TIP3    H241261   2.960   6.051   0.018 -1.0856 -0.0069 -0.7172
 6616TIP3   OH241262   0.209   1.737  12.945  0.2792 -0.0129 -0.0752
 6616TIP3    H141263   0.131   1.683  12.933  0.0733  0.0666  0.8160
 6616TIP3    H241264   0.281   1.673  12.950 -0.0985 -0.3488  2.1980
 6617TIP3   OH241265   2.506   4.919  15.666 -0.0482 -0.0647  0.1985
 6617TIP3    H141266   2.436   4.984  15.678  0.8928  0.6655  2.1687
 6617TIP3    H241267   2.463   4.835  15.681 -0.8055  0.2510 -0.1031
 6618TIP3   OH241268   0.764   5.805  12.427 -0.0771  0.0939  0.0439
 6618TIP3    H141269   0.724   5.877  12.377  1.5782 -0.1448 -1.7381
 6618TIP3    H241270   0.776   5.735  12.362  1.0963 -0.6818  1.0610
 6619TIP3   OH241271   2.502   1.264  13.994 -0.3306 -0.0589 -0.7787
 6619TIP3    H141272   2.434   1.327  14.017 -0.5113 -0.8315  0.9089
 6619TIP3    H241273   2.524   1.221  14.076  2.5290  0.4481 -1.1863
 6620TIP3   OH241274   6.317   6.271   3.828 -0.2558 -0.4309 -0.1917
 6620TIP3    H141275   6.404   6.249   3.860 -0.7302 -0.7414  0.9254
 6620TIP3    H241276   6.260   6.265   3.905 -1.3945 -0.9637 -1.0317
 6621TIP3   OH241277   2.657   4.013   4.141 -0.2927  0.1280  0.0652
 6621TIP3    H141278   2.630   3.956   4.214 -1.0186 -1.3884 -1.3012
 6621TIP3    H241279   2.752   4.020   4.150 -0.3667 -0.0198  1.1537
 6622TIP3   OH241280   1.567   1.020   6.576 -0.1693  0.1352  0.1267
 6622TIP3    H141281   1.533   1.108   6.558  0.5719  0.4395  0.1580
 6622TIP3    H241282   1.495   0.975   6.619 -0.3672  0.9237  0.6531
 6623TIP3   OH241283   0.500   1.889  11.668 -0.8472 -0.4170  0.2581
 6623TIP3    H141284   0.405   1.893  11.679 -0.6990  2.0713  1.1197
 6623TIP3    H241285   0.534   1.886  11.758 -0.0696  0.5610  0.0037
 6624TIP3   OH241286   3.750   0.419   4.788  0.1795  0.2279 -0.3803
 6624TIP3    H141287   3.678   0.410   4.850  0.6221  2.0360  0.4954
 6624TIP3    H241288   3.813   0.352   4.814 -0.0908  0.2922  0.4769
 6625TIP3   OH241289   2.528   2.613   4.361 -0.4834  0.0908  0.2111
 6625TIP3    H141290   2.569   2.681   4.413 -0.7511 -0.9758  1.8923
 6625TIP3    H241291   2.439   2.645   4.345  0.1447  1.2227 -1.1774
 6626TIP3   OH241292   5.343   5.440  10.933 -0.0502  0.0895 -0.1318
 6626TIP3    H141293   5.248   5.443  10.933 -0.0721 -0.5601 -0.2130
 6626TIP3    H241294   5.366   5.376  10.866  0.4265 -0.2325  0.3274
 6627TIP3   OH241295   4.354   4.941  13.145  0.4656 -0.1343 -0.1668
 6627TIP3    H141296   4.418   4.999  13.104 -1.5046  2.0236 -0.3457
 6627TIP3    H241297   4.304   4.905  13.071 -0.4198  0.5400  0.0840
 6628TIP3   OH241298   1.205   4.430   4.745  0.2644  0.4380  0.0004
 6628TIP3    H141299   1.128   4.423   4.801 -0.4750  3.1534 -0.5387
 6628TIP3    H241300   1.176   4.400   4.659  0.0106  0.7147 -0.0127
 6629TIP3   OH241301   0.697   0.418  17.120 -0.4129  0.6343  0.3326
 6629TIP3    H141302   0.699   0.482  17.049 -1.5624  0.7032  0.3378
 6629TIP3    H241303   0.768   0.445  17.178  0.6495  0.4743 -0.8615
 6630TIP3   OH241304   3.381   3.401   2.638 -0.3651 -0.0625  0.0445
 6630TIP3    H141305   3.310   3.344   2.610  1.1020 -1.3886 -1.1311
 6630TIP3    H241306   3.419   3.357   2.713 -0.1375  0.1300  0.0435
 6631TIP3   OH241307   1.278   1.881  11.598  0.0850 -0.1947 -0.2931
 6631TIP3    H141308   1.202   1.893  11.541 -0.2164 -0.0604  0.1371
 6631TIP3    H241309   1.252   1.918  11.682  0.3465 -0.8566  0.0877
 6632TIP3   OH241310   5.188   5.468  14.222 -0.2282 -0.2842  0.0313
 6632TIP3    H141311   5.280   5.495  14.220  0.1141 -1.4147  0.1467
 6632TIP3    H241312   5.190   5.373  14.216 -1.2031 -0.6753  3.6669
 6633TIP3   OH241313   5.817   3.968  13.229 -0.1509 -0.4523 -0.2232
 6633TIP3    H141314   5.902   3.993  13.194 -0.6783  0.2294 -1.0603
 6633TIP3    H241315   5.756   4.033  13.193 -1.1647 -1.4526 -0.3896
 6634TIP3   OH241316   4.843   3.241   3.501 -0.0163  0.6910 -0.3179
 6634TIP3    H141317   4.829   3.166   3.444  1.6033  0.1933 -0.1348
 6634TIP3    H241318   4.833   3.205   3.590 -1.9882  1.3382 -0.2429
 6635TIP3   OH241319   2.281   1.522   2.927 -0.1102 -0.1166  0.1655
 6635TIP3    H141320   2.269   1.439   2.974 -0.5722 -0.2519 -0.1850
 6635TIP3    H241321   2.239   1.587   2.983 -2.3662 -0.5498 -0.9312
 6636TIP3   OH241322   1.813   5.179   2.077 -0.0137  0.6663  0.2167
 6636TIP3    H141323   1.781   5.132   2.155 -2.1906  1.9553  0.1898
 6636TIP3    H241324   1.753   5.253   2.068  0.6463  0.9747 -2.2654
 6637TIP3   OH241325   1.874   1.691  11.753  0.1998 -0.5205 -0.1126
 6637TIP3    H141326   1.961   1.651  11.751  0.4629 -0.0393  0.9351
 6637TIP3    H241327   1.890   1.783  11.773 -0.3829  0.2463 -2.7799
 6638TIP3   OH241328   2.158   3.936  14.235  0.1647 -0.0734  0.2935
 6638TIP3    H141329   2.121   3.979  14.157 -0.4100 -1.4942 -0.2491
 6638TIP3    H241330   2.247   3.911  14.208  0.1626 -0.0733  0.2865
 6639TIP3   OH241331   1.517   3.526  15.532 -0.0677 -0.0776 -0.1251
 6639TIP3    H141332   1.539   3.439  15.499 -0.5713  0.1081 -0.9835
 6639TIP3    H241333   1.596   3.556  15.576  0.2135 -0.8349 -0.1041
 6640TIP3   OH241334   3.135   4.419  12.922  0.1064 -0.3361 -0.5104
 6640TIP3    H141335   3.213   4.365  12.931 -0.7944 -1.6312 -0.0684
 6640TIP3    H241336   3.164   4.497  12.875  1.7406 -0.5767  0.0544
 6641TIP3   OH241337   2.574   6.524   3.560 -0.2912 -0.1846 -0.1642
 6641TIP3    H141338   2.625   6.444   3.557 -0.2772 -0.1728 -0.2375
 6641TIP3    H241339   2.583   6.562   3.473  0.6235  0.4705  0.1992
 6642TIP3   OH241340   5.905   2.693  13.558 -0.0290  0.2018 -0.3250
 6642TIP3    H141341   5.822   2.729  13.528  1.1332  2.1351 -1.4340
 6642TIP3    H241342   5.941   2.648  13.482 -0.5513 -1.6889  0.4910
 6643TIP3   OH241343   1.847   5.752  10.642  0.2628 -0.1792 -0.6623
 6643TIP3    H141344   1.799   5.779  10.720 -0.7869 -0.3285 -1.2428
 6643TIP3    H241345   1.887   5.832  10.609 -1.8271  0.5033 -1.6833
 6644TIP3   OH241346   6.235   2.114  11.271 -0.3814 -0.1125 -0.1196
 6644TIP3    H141347   6.312   2.165  11.297  0.5941 -1.0518 -1.0773
 6644TIP3    H241348   6.259   2.023  11.286 -1.0472 -0.4620 -1.0795
 6645TIP3   OH241349   1.402   6.436  15.414 -0.3586 -0.0849  0.0611
 6645TIP3    H141350   1.388   6.379  15.490  0.0786 -0.7207 -0.3269
 6645TIP3    H241351   1.494   6.426  15.392 -1.0531 -2.2848 -2.3762
 6646TIP3   OH241352   6.505   4.951   4.421  0.6584 -0.0413  0.3876
 6646TIP3    H141353   6.501   4.933   4.515  0.3884  3.4506  1.1768
 6646TIP3    H241354   6.595   4.977   4.405  0.6236 -0.3056 -0.2749
 6647TIP3   OH241355   6.675   5.680   5.239  0.7147  0.0106  0.1563
 6647TIP3    H141356   6.721   5.741   5.181 -0.1014 -0.3286 -0.8560
 6647TIP3    H241357   6.590   5.721   5.254  0.7459 -0.1306  0.7693
 6648TIP3   OH241358   1.432   5.756  16.276  0.4408 -0.5417 -0.1992
 6648TIP3    H141359   1.378   5.698  16.330  1.4197 -3.1999 -1.8858
 6648TIP3    H241360   1.514   5.708  16.265  2.2670  2.2597  0.2217
 6649TIP3   OH241361   6.034   0.781   5.082  0.0666  0.3231  0.1137
 6649TIP3    H141362   6.014   0.688   5.090  0.5284  0.3017  1.1636
 6649TIP3    H241363   5.952   0.826   5.104 -0.1443  0.1658 -0.3510
 6650TIP3   OH241364   3.967   5.097   4.531  0.7486  0.2777  0.4010
 6650TIP3    H141365   3.993   5.037   4.601 -0.7059  2.0125  2.5587
 6650TIP3    H241366   4.047   5.145   4.509  1.2498 -0.3704  0.7945
 6651TIP3   OH241367   4.771   4.598  13.435 -0.3106  0.0066  0.4160
 6651TIP3    H141368   4.697   4.626  13.380 -0.2835  2.4065  1.4711
 6651TIP3    H241369   4.848   4.614  13.381 -0.4813 -2.5794 -0.7186
 6652TIP3   OH241370   2.491   1.930  16.176 -0.0831  0.2115 -0.0837
 6652TIP3    H141371   2.456   2.008  16.219  1.4422  0.1747  1.2882
 6652TIP3    H241372   2.480   1.947  16.082 -2.9874  0.5198  0.2107
 6653TIP3   OH241373   1.873   6.013   5.290 -0.3176  0.6413  0.0922
 6653TIP3    H141374   1.886   6.083   5.226 -0.1625  0.5960  0.0746
 6653TIP3    H241375   1.815   5.951   5.247  3.4294 -1.8571 -1.9563
 6654TIP3   OH241376   6.420   2.115   3.698 -0.1241 -0.9266 -0.4416
 6654TIP3    H141377   6.354   2.174   3.661 -0.0201 -0.2802  0.3931
 6654TIP3    H241378   6.424   2.138   3.790  0.4106 -1.7876 -0.2390
 6655TIP3   OH241379   0.904   2.857   2.784  0.5804  0.6911  0.6664
 6655TIP3    H141380   0.841   2.802   2.738  0.7398  0.6101  0.5482
 6655TIP3    H241381   0.953   2.797   2.840  2.0270  0.4050 -0.8221
 6656TIP3   OH241382   6.168   3.276   5.652  0.1611 -0.0282 -0.4572
 6656TIP3    H141383   6.203   3.359   5.620 -0.9481  0.1839 -1.1939
 6656TIP3    H241384   6.178   3.281   5.747  0.9961  0.5196 -0.5618
 6657TIP3   OH241385   1.379   2.162   0.884  0.6469  0.3445  0.0866
 6657TIP3    H141386   1.333   2.090   0.841 -1.2448  2.1048 -1.0304
 6657TIP3    H241387   1.411   2.217   0.813  3.7467 -0.2568  0.8584
 6658TIP3   OH241388   4.476   2.778   1.484  0.2836  0.0378 -0.1071
 6658TIP3    H141389   4.424   2.709   1.441  1.0003  0.6003 -1.9487
 6658TIP3    H241390   4.508   2.832   1.412  1.1977  1.2808  1.1950
 6659TIP3   OH241391   0.826   6.307  14.947 -0.3067 -0.2449 -0.0102
 6659TIP3    H141392   0.815   6.368  14.874  2.1649  1.1311  0.6295
 6659TIP3    H241393   0.841   6.222  14.906  1.3324  0.5564 -1.1782
 6660TIP3   OH241394   6.655   2.552   4.998  0.0863  0.4022  0.2677
 6660TIP3    H141395   6.630   2.588   5.083  1.2574 -0.3901  0.9880
 6660TIP3    H241396   6.703   2.623   4.955  0.4347  0.4626  0.7396
 6661TIP3   OH241397   1.423   4.812  12.819 -0.4936  0.5602  0.3894
 6661TIP3    H141398   1.359   4.881  12.804 -1.0606  0.0440  0.4081
 6661TIP3    H241399   1.440   4.815  12.914 -2.1977 -0.7546  0.7908
 6662TIP3   OH241400   5.443   6.124   3.777 -0.2701  0.1838 -0.7707
 6662TIP3    H141401   5.392   6.198   3.810 -0.8636 -0.7037  0.3818
 6662TIP3    H241402   5.525   6.163   3.746 -0.4778  1.3069  0.0180
 6663TIP3   OH241403   1.703   5.679  14.013  0.1321  0.4130 -0.2155
 6663TIP3    H141404   1.721   5.612  14.079  2.3439  1.0604 -0.0721
 6663TIP3    H241405   1.626   5.725  14.046  0.5861  0.0719  1.3942
 6664TIP3   OH241406   6.705   4.551  16.088 -0.2133  0.0834  0.5249
 6664TIP3    H141407   6.696   4.565  15.994  0.3905 -0.2521  0.4104
 6664TIP3    H241408   6.660   4.625  16.128 -0.9537 -0.0619 -0.0202
 6665TIP3   OH241409   4.967   3.635  12.015  0.2292 -0.1142 -0.4541
 6665TIP3    H141410   5.042   3.669  12.063  1.2607  0.4954 -2.3669
 6665TIP3    H241411   5.004   3.607  11.931 -1.5402 -0.6962 -1.0735
 6666TIP3   OH241412   0.537   4.518  13.446 -0.5293  0.2145  0.8906
 6666TIP3    H141413   0.593   4.578  13.395  1.3087 -0.0187  2.5273
 6666TIP3    H241414   0.487   4.575  13.504  1.5176  0.2523  2.7394
 6667TIP3   OH241415   2.393   5.492  15.943 -0.1227 -0.0324  0.0153
 6667TIP3    H141416   2.409   5.551  15.869  0.1997 -2.0076 -1.6074
 6667TIP3    H241417   2.458   5.517  16.008 -0.8795  2.2315 -0.0272
 6668TIP3   OH241418   1.725   1.357  17.176 -0.3362 -0.3067  0.2971
 6668TIP3    H141419   1.810   1.341  17.218 -0.2708  0.0516  0.2993
 6668TIP3    H241420   1.740   1.433  17.120 -0.7780  0.0595  0.6681
 6669TIP3   OH241421   3.991   2.975  14.820 -0.3533  0.5652 -0.0839
 6669TIP3    H141422   3.979   3.067  14.797  0.1189  0.3013 -1.4686
 6669TIP3    H241423   3.938   2.927  14.756  1.1875 -0.2055 -0.8346
 6670TIP3   OH241424   1.271   2.331  12.331  0.0891  0.7517 -0.0090
 6670TIP3    H141425   1.305   2.347  12.419 -2.4214  0.9143  1.0143
 6670TIP3    H241426   1.322   2.388  12.274  1.9234  0.4639  1.2740
 6671TIP3   OH241427   5.448   2.956  11.139  0.5867  0.3906  0.2572
 6671TIP3    H141428   5.414   2.945  11.228 -0.9241  0.6527 -0.2548
 6671TIP3    H241429   5.433   3.048  11.119  0.1676  0.1631 -0.5371
 6672TIP3   OH241430   4.417   5.393  13.340 -0.2313 -0.0976  0.0729
 6672TIP3    H141431   4.401   5.427  13.252 -0.0079  0.5340  0.2721
 6672TIP3    H241432   4.339   5.342  13.361 -1.5612  2.0367  0.6165
 6673TIP3   OH241433   0.555   5.104  10.708  0.1372  0.3940  0.1433
 6673TIP3    H141434   0.608   5.183  10.699 -0.0927  0.8471  2.1553
 6673TIP3    H241435   0.619   5.034  10.726  0.2530  0.3235 -0.5079
 6674TIP3   OH241436   5.412   0.444   3.079  0.1147  1.1783  0.0786
 6674TIP3    H141437   5.371   0.496   3.009  2.5641  1.2864 -1.3673
 6674TIP3    H241438   5.362   0.363   3.080 -1.9597  2.3779  0.4180
 6675TIP3   OH241439   1.371   5.519   1.072 -0.1315  0.6017 -0.1829
 6675TIP3    H141440   1.304   5.527   1.004  0.1251  0.3985 -0.4599
 6675TIP3    H241441   1.330   5.465   1.139  0.1935 -0.6103 -0.9221
 6676TIP3   OH241442   3.300   2.250  13.733  0.2356 -0.3334  0.4151
 6676TIP3    H141443   3.252   2.172  13.706 -0.2886  0.2506 -0.3632
 6676TIP3    H241444   3.258   2.276  13.815  1.3711 -1.6945  1.5010
 6677TIP3   OH241445   1.426   5.395   4.951  0.2924  0.1687  0.6744
 6677TIP3    H141446   1.413   5.310   4.991 -1.6228 -1.3522 -2.7310
 6677TIP3    H241447   1.338   5.422   4.922  1.0613  2.6188  0.3677
 6678TIP3   OH241448   4.852   4.155   3.522 -0.2782 -0.4672 -0.4310
 6678TIP3    H141449   4.802   4.222   3.569 -0.3641 -0.9196  0.1327
 6678TIP3    H241450   4.917   4.126   3.585 -0.4086 -1.0997 -0.5852
 6679TIP3   OH241451   2.963   3.116   4.157 -0.1955  0.1939  0.1106
 6679TIP3    H141452   2.949   3.174   4.081  0.6636  0.0227 -0.1903
 6679TIP3    H241453   2.984   3.031   4.118 -2.5959 -0.6926  0.5323
 6680TIP3   OH241454   5.058   4.652   0.985 -0.2245 -0.0768 -0.1482
 6680TIP3    H141455   5.124   4.697   1.037 -2.4349  1.4285  1.5331
 6680TIP3    H241456   5.067   4.560   1.010  0.9180  0.1604  0.3851
 6681TIP3   OH241457   4.738   1.672   2.484  0.0005 -0.0738 -0.5535
 6681TIP3    H141458   4.668   1.617   2.449 -1.4421  0.4972  1.2837
 6681TIP3    H241459   4.751   1.640   2.573 -0.1202  1.8143  0.1879
 6682TIP3   OH241460   6.219   6.051  15.969 -0.2369  0.3368 -0.3770
 6682TIP3    H141461   6.289   6.108  15.999 -0.4187  1.3728 -1.8408
 6682TIP3    H241462   6.208   6.072  15.876 -0.0026 -2.4045 -1.1087
 6683TIP3   OH241463   3.913   5.459   4.116 -0.2742  0.3484  0.3803
 6683TIP3    H141464   3.941   5.429   4.202 -1.2630  0.6306  0.8186
 6683TIP3    H241465   3.986   5.439   4.058 -0.1546 -1.1634  1.0115
 6684TIP3   OH241466   4.193   0.710  16.251 -0.2790  0.9777 -0.2274
 6684TIP3    H141467   4.196   0.761  16.333  0.5350  0.4470  0.0834
 6684TIP3    H241468   4.269   0.653  16.256 -0.5236  0.5644 -1.1247
 6685TIP3   OH241469   5.214   2.894   1.244 -0.2940  0.2708  0.0907
 6685TIP3    H141470   5.233   2.923   1.155 -1.2088  0.8834  0.0784
 6685TIP3    H241471   5.299   2.868   1.280  0.0022 -0.5127 -1.1344
 6686TIP3   OH241472   5.569   6.256  16.777  0.3253 -0.8275 -0.0360
 6686TIP3    H141473   5.554   6.255  16.871  0.7794  3.4790  0.3169
 6686TIP3    H241474   5.662   6.234  16.767  0.1407 -1.8403  0.4565
 6687TIP3   OH241475   5.373   5.505  16.750 -0.6979 -0.2434  0.2983
 6687TIP3    H141476   5.368   5.465  16.663 -0.6763  2.2825 -0.9550
 6687TIP3    H241477   5.319   5.584  16.743 -0.9624 -0.1425  2.7120
 6688TIP3   OH241478   1.827   0.068  13.008 -0.3084 -0.5527 -0.1946
 6688TIP3    H141479   1.862   0.106  13.088 -1.6791 -0.3741  0.3448
 6688TIP3    H241480   1.904   0.044  12.957  0.7861  4.2773 -1.2847
 6689TIP3   OH241481   3.613   3.243  13.108 -0.3037  0.0288 -0.1943
 6689TIP3    H141482   3.596   3.170  13.049  1.0836  0.6141 -1.3712
 6689TIP3    H241483   3.600   3.207  13.196 -1.9575 -0.9763 -0.8168
 6690TIP3   OH241484   2.576   1.248   4.077  0.0469  0.4273 -0.2988
 6690TIP3    H141485   2.538   1.316   4.022 -0.5167  0.3815  0.0284
 6690TIP3    H241486   2.666   1.277   4.091 -0.1505  1.0451 -0.2615
 6691TIP3   OH241487   3.936   5.250   2.341  0.1570 -0.1691  0.4383
 6691TIP3    H141488   3.901   5.175   2.389  0.9665 -0.7621  0.1211
 6691TIP3    H241489   3.891   5.326   2.379 -1.9310 -0.9206 -0.3840
 6692TIP3   OH241490   0.987   5.436   3.387  0.3712 -0.0010  0.6144
 6692TIP3    H141491   0.892   5.445   3.394  0.0661 -2.1312 -0.0562
 6692TIP3    H241492   1.000   5.348   3.351  2.5612  0.6849 -0.4436
 6693TIP3   OH241493   5.357   2.794   3.989 -0.0916  0.1046  0.3525
 6693TIP3    H141494   5.397   2.820   3.906 -1.4489 -0.2210 -0.4284
 6693TIP3    H241495   5.366   2.699   3.991  0.8074  0.1858  1.0663
 6694TIP3   OH241496   3.445   0.325   6.433 -0.3647  0.3959 -0.2255
 6694TIP3    H141497   3.418   0.236   6.410  0.1373  0.2528 -0.2603
 6694TIP3    H241498   3.524   0.314   6.485  0.1941  0.8505 -0.9565
 6695TIP3   OH241499   0.856   4.885  14.182  0.1739  0.0413  0.3639
 6695TIP3    H141500   0.852   4.872  14.276 -0.4275  0.3416  0.3878
 6695TIP3    H241501   0.902   4.808  14.149  2.4274  1.0051  1.0899
 6696TIP3   OH241502   4.891   4.539  12.649  0.4755 -0.4521 -0.7858
 6696TIP3    H141503   4.799   4.544  12.676  0.3316  1.7896 -1.5026
 6696TIP3    H241504   4.934   4.493  12.720 -1.1651 -1.4214 -0.3602
 6697TIP3   OH241505   2.153   5.112   6.215  0.0641 -0.6148  0.4843
 6697TIP3    H141506   2.123   5.023   6.232 -0.3363 -0.3055  1.5120
 6697TIP3    H241507   2.175   5.146   6.302 -1.0801  0.7345  0.2819
 6698TIP3   OH241508   3.649   2.274   3.717 -0.1043 -0.1251 -0.4181
 6698TIP3    H141509   3.559   2.292   3.688 -0.8601  1.3974  2.4227
 6698TIP3    H241510   3.682   2.359   3.747  1.4087 -1.0676  0.7285
 6699TIP3   OH241511   1.158   3.057   4.751  0.0408  0.0007  0.0664
 6699TIP3    H141512   1.245   3.018   4.746  0.7063  1.4360  0.0638
 6699TIP3    H241513   1.174   3.150   4.766 -1.4746  0.4813 -1.0478
 6700TIP3   OH241514   3.851   2.370   6.062  0.5091 -0.4252  0.9032
 6700TIP3    H141515   3.863   2.343   6.153 -1.0366 -1.9947  0.6756
 6700TIP3    H241516   3.940   2.387   6.031  1.1421 -0.8106  2.4041
 6701TIP3   OH241517   1.823   2.326  14.635 -0.1889  0.9327 -0.6394
 6701TIP3    H141518   1.887   2.377  14.685 -0.8264  1.4752 -0.3601
 6701TIP3    H241519   1.865   2.314  14.549  1.3859 -0.9478  0.3102
 6702TIP3   OH241520   5.214   1.418   3.922  0.6374  0.3858  0.1713
 6702TIP3    H141521   5.276   1.381   3.860 -0.1042 -0.4839 -0.0708
 6702TIP3    H241522   5.130   1.418   3.875  0.5688  2.2516  0.2034
 6703TIP3   OH241523   2.389   0.598   5.915 -0.1142 -0.2211  0.1989
 6703TIP3    H141524   2.328   0.534   5.880 -0.2482 -0.7176  1.3100
 6703TIP3    H241525   2.335   0.673   5.938 -0.6513 -1.3406  2.8989
 6704TIP3   OH241526   0.896   3.460  13.410 -0.3410  0.8930 -0.0419
 6704TIP3    H141527   0.946   3.383  13.382 -1.7797 -0.2434  0.3642
 6704TIP3    H241528   0.925   3.476  13.500  0.3021  1.1193 -0.2875
 6705TIP3   OH241529   0.278   2.955   1.470 -0.3726 -0.2505  0.0461
 6705TIP3    H141530   0.320   2.965   1.385  0.2649  0.0169  0.3842
 6705TIP3    H241531   0.187   2.978   1.455 -0.2429 -0.0974 -0.5373
 6706TIP3   OH241532   0.108   6.249   0.592 -0.5563 -0.0159 -0.2611
 6706TIP3    H141533   0.160   6.202   0.657 -0.5741 -1.7808 -1.4431
 6706TIP3    H241534   0.050   6.305   0.644 -0.4125 -1.1837  1.2451
 6707TIP3   OH241535   5.278   1.983   6.199 -0.6391 -0.0174 -0.0877
 6707TIP3    H141536   5.308   1.931   6.125 -2.6110 -3.6358  1.3768
 6707TIP3    H241537   5.186   2.002   6.180 -0.1581  2.4938 -0.2356
 6708TIP3   OH241538   3.576   6.749  11.931 -0.1498  0.1305  0.8153
 6708TIP3    H141539   3.599   6.767  12.022 -0.8979  3.0647  0.5117
 6708TIP3    H241540   3.638   6.800  11.879 -0.1199 -1.0134 -0.3273
 6709TIP3   OH241541   6.405   0.752   2.691  0.0323  0.6207  0.4261
 6709TIP3    H141542   6.424   0.790   2.606  4.0459 -1.4842  0.1401
 6709TIP3    H241543   6.379   0.662   2.672 -2.8327  1.1251  1.3856
 6710TIP3   OH241544   0.862   6.778  11.962  0.8064  0.0067  0.3437
 6710TIP3    H141545   0.924   6.781  11.889  0.0593  1.8267 -0.2747
 6710TIP3    H241546   0.822   6.865  11.963  0.0062 -0.3369  2.2523
 6711TIP3   OH241547   2.833   4.353   0.253  0.1676  0.1889 -0.1973
 6711TIP3    H141548   2.856   4.262   0.239 -0.3264  0.2259 -1.3538
 6711TIP3    H241549   2.865   4.398   0.174 -0.2638  0.8843  0.0192
 6712TIP3   OH241550   0.988   5.387   0.161  0.4039 -0.3838  0.4908
 6712TIP3    H141551   0.947   5.332   0.228  1.5828  0.2692  1.7894
 6712TIP3    H241552   0.983   5.476   0.196  1.0805 -0.0335 -0.2751
 6713TIP3   OH241553   5.655   6.398  13.032 -0.7422  0.0480  0.2050
 6713TIP3    H141554   5.611   6.470  12.987 -1.3372 -0.4290  0.0063
 6713TIP3    H241555   5.655   6.424  13.124 -1.3633  0.0954  0.1944
 6714TIP3   OH241556   3.253   3.065   0.681 -0.0215  1.0215 -0.1808
 6714TIP3    H141557   3.237   2.994   0.742 -2.6921 -0.8881 -2.8062
 6714TIP3    H241558   3.348   3.077   0.683  0.5256 -2.3887  0.7043
 6715TIP3   OH241559   6.610   1.897   2.476  0.0985 -0.0065 -0.4591
 6715TIP3    H141560   6.698   1.905   2.512 -0.7097  3.1499  1.2720
 6715TIP3    H241561   6.553   1.898   2.553 -1.5121  1.2623 -1.5914
 6716TIP3   OH241562   5.605   3.196   6.104 -0.0110  0.3221 -0.6071
 6716TIP3    H141563   5.547   3.127   6.138 -1.6557  1.1239 -1.6932
 6716TIP3    H241564   5.687   3.150   6.085 -0.6384 -1.0786 -0.0958
 6717TIP3   OH241565   2.201   2.143   3.842 -0.1680  0.2877 -0.3659
 6717TIP3    H141566   2.184   2.235   3.864  0.8058  0.3456  0.2187
 6717TIP3    H241567   2.262   2.114   3.910  0.3606 -0.4886 -1.1533
 6718TIP3   OH241568   4.516   3.455  13.972 -0.6316 -0.4236 -0.4164
 6718TIP3    H141569   4.423   3.432  13.964 -0.9228  0.2921  0.6271
 6718TIP3    H241570   4.520   3.510  14.051  0.2234  1.8151 -1.9168
 6719TIP3   OH241571   2.206   3.701   4.724  0.3535 -0.1989  0.1867
 6719TIP3    H141572   2.224   3.788   4.762 -0.9391  0.0910  0.1887
 6719TIP3    H241573   2.124   3.713   4.676  1.3741 -0.8385 -1.8058
 6720TIP3   OH241574   2.931   3.681  15.068 -0.5745 -0.3292  0.1291
 6720TIP3    H141575   2.867   3.742  15.030 -0.1492  0.6752  0.9770
 6720TIP3    H241576   3.013   3.702  15.023 -0.2890  0.1789  0.8653
 6721TIP3   OH241577   1.071   4.765   5.506 -0.1698  0.2095 -0.1088
 6721TIP3    H141578   1.061   4.669   5.502  2.6855 -0.1700 -0.1650
 6721TIP3    H241579   1.077   4.785   5.599  1.8015 -0.0879 -0.1158
 6722TIP3   OH241580   3.794   3.112  15.438  0.0260  0.5045  0.3170
 6722TIP3    H141581   3.880   3.146  15.416 -0.0950  0.2907 -0.5195
 6722TIP3    H241582   3.795   3.102  15.533  1.4607 -0.9548  0.1892
 6723TIP3   OH241583   5.463   1.851  13.055 -0.1629  0.2438  0.0977
 6723TIP3    H141584   5.518   1.838  12.978 -0.0450  1.1731  0.0227
 6723TIP3    H241585   5.428   1.764  13.074  1.2219 -0.3457  0.0702
 6724TIP3   OH241586   3.930   4.117   5.931 -0.1926 -0.4864 -0.7022
 6724TIP3    H141587   4.018   4.081   5.940 -0.1211 -0.4192 -1.1185
 6724TIP3    H241588   3.878   4.045   5.895 -0.3201 -0.5411 -0.4099
 6725TIP3   OH241589   5.365   5.121   3.203 -0.3293  0.0313  0.0841
 6725TIP3    H141590   5.299   5.051   3.201 -1.3359  0.9304  0.4953
 6725TIP3    H241591   5.398   5.124   3.114 -0.3944 -0.8491  0.0143
 6726TIP3   OH241592   1.449   4.085  13.931 -0.0646 -0.4077 -0.3609
 6726TIP3    H141593   1.539   4.052  13.938  0.7149  1.7420  0.8884
 6726TIP3    H241594   1.403   4.043  14.004  0.0182 -1.1689 -0.7325
 6727TIP3   OH241595   1.117   3.768  12.760  0.2540  0.1275 -0.1506
 6727TIP3    H141596   1.140   3.767  12.667  0.8668  1.0080 -0.0148
 6727TIP3    H241597   1.145   3.854  12.791 -0.8429  0.2220  0.6267
 6728TIP3   OH241598   4.351   4.745   1.063  0.4979 -0.0526  0.5217
 6728TIP3    H141599   4.382   4.715   1.149 -0.4161  1.5937  1.4852
 6728TIP3    H241600   4.353   4.667   1.008  2.0616 -0.9477  1.7496
 6729TIP3   OH241601   1.225   0.857  11.926  0.6564  0.2472 -0.0783
 6729TIP3    H141602   1.256   0.775  11.889 -1.1336 -1.5729  2.1503
 6729TIP3    H241603   1.149   0.832  11.979  0.1679  3.3264  0.8719
 6730TIP3   OH241604   3.266   2.631  12.954 -0.0215 -0.0918  0.2270
 6730TIP3    H141605   3.337   2.613  12.892  0.3777 -0.3356  0.7476
 6730TIP3    H241606   3.201   2.564  12.935 -1.6906  2.1140 -2.5590
 6731TIP3   OH241607   5.105   4.384   1.038 -0.3996  0.3582 -0.3838
 6731TIP3    H141608   5.055   4.328   0.977  0.0720 -0.0143 -0.4377
 6731TIP3    H241609   5.195   4.376   1.008 -0.4308  1.9305 -0.9925
 6732TIP3   OH241610   4.163   0.731   3.161  0.5591  0.0886  0.8357
 6732TIP3    H141611   4.105   0.687   3.223  0.4706 -0.2178  0.5344
 6732TIP3    H241612   4.223   0.663   3.131  0.4002  0.1648  0.3408
 6733TIP3   OH241613   3.384   3.939   4.698 -0.0923 -0.2310 -0.3421
 6733TIP3    H141614   3.338   3.940   4.615 -0.2147  3.0325 -0.3711
 6733TIP3    H241615   3.466   3.893   4.680 -0.1809  0.2822 -2.2480
 6734TIP3   OH241616   5.445   5.821   5.492  0.3713 -0.0637  0.2634
 6734TIP3    H141617   5.418   5.908   5.523 -0.4122 -0.5276  0.9319
 6734TIP3    H241618   5.451   5.831   5.397  1.0174  0.9078  0.3806
 6735TIP3   OH241619   5.925   0.751   3.259  0.5465  0.5769  0.2453
 6735TIP3    H141620   5.958   0.820   3.201  0.7786  0.2096 -0.0580
 6735TIP3    H241621   5.973   0.765   3.341  1.1988  0.2695 -0.0776
 6736TIP3   OH241622   0.411   3.740   0.449  0.2965  0.3902  0.0293
 6736TIP3    H141623   0.317   3.738   0.431  0.3762  0.6146 -0.4053
 6736TIP3    H241624   0.446   3.663   0.404  1.0103  2.6680 -3.7285
 6737TIP3   OH241625   2.539   3.459  11.243 -0.1731 -0.6480  0.4461
 6737TIP3    H141626   2.572   3.466  11.154 -0.5887  0.4279  0.3686
 6737TIP3    H241627   2.447   3.432  11.233  0.1999 -2.0411  0.6096
 6738TIP3   OH241628   6.430   2.188   0.603  0.7019  0.8110 -0.0192
 6738TIP3    H141629   6.373   2.208   0.677  0.3419 -0.6173  0.1310
 6738TIP3    H241630   6.519   2.192   0.639  0.4920 -0.8569  0.8027
 6739TIP3   OH241631   4.380   1.833   4.541  0.4030  0.3591 -0.1679
 6739TIP3    H141632   4.460   1.788   4.568 -0.6499 -2.1953 -0.9993
 6739TIP3    H241633   4.309   1.778   4.576 -1.0611  2.9309  1.1825
 6740TIP3   OH241634   5.077   3.997  13.978  0.0097 -0.5958  0.1193
 6740TIP3    H141635   5.119   4.074  14.018 -0.4578 -0.3908  0.2138
 6740TIP3    H241636   5.122   3.987  13.894  1.0462 -1.0728  0.7132
 6741TIP3   OH241637   2.480   2.903   1.927 -0.6244 -0.1180 -0.1209
 6741TIP3    H141638   2.432   2.830   1.966  0.3637 -1.1338 -0.7280
 6741TIP3    H241639   2.447   2.908   1.837 -0.7598  0.2527 -0.0506
 6742TIP3   OH241640   6.228   2.813  11.685 -0.6541  0.1901 -0.1411
 6742TIP3    H141641   6.262   2.889  11.637  0.3995  0.1047  0.4322
 6742TIP3    H241642   6.307   2.769  11.719 -1.3461  0.6197  2.2275
 6743TIP3   OH241643   1.494   0.626  16.429  0.2012 -0.1847 -0.5431
 6743TIP3    H141644   1.415   0.608  16.379 -0.2105  0.9456 -0.3283
 6743TIP3    H241645   1.494   0.721  16.440  2.5586  0.0819 -2.1395
 6744TIP3   OH241646   2.946   4.925   3.067  0.1668  0.0754  0.0914
 6744TIP3    H141647   2.858   4.962   3.060 -0.2147 -0.7630  0.4595
 6744TIP3    H241648   2.982   4.933   2.978  0.1587  1.4520  0.1802
 6745TIP3   OH241649   6.155   1.094  13.900 -0.2335 -0.5485 -1.2409
 6745TIP3    H141650   6.221   1.058  13.959 -1.3281 -1.2874 -0.4309
 6745TIP3    H241651   6.154   1.188  13.921 -1.1154 -0.9122  0.4614
 6746TIP3   OH241652   5.329   2.787   1.739  0.1219 -0.4444  0.6555
 6746TIP3    H141653   5.275   2.749   1.809  0.0381 -0.2157  0.7160
 6746TIP3    H241654   5.285   2.762   1.658 -0.0698 -0.2720  0.7046
 6747TIP3   OH241655   0.385   5.962  16.294 -0.7499 -0.0854 -0.2888
 6747TIP3    H141656   0.376   6.019  16.370 -1.3447 -1.0601  0.3929
 6747TIP3    H241657   0.424   6.018  16.226  0.5775  0.5835  0.9723
 6748TIP3   OH241658   5.415   1.950  11.608  0.6014 -0.5443 -0.2101
 6748TIP3    H141659   5.453   1.917  11.690 -1.4688 -2.9461 -0.1140
 6748TIP3    H241660   5.367   1.876  11.572 -0.8170  1.2435 -2.2351
 6749TIP3   OH241661   5.165   4.730  15.202  0.3081 -0.0580  0.3240
 6749TIP3    H141662   5.076   4.756  15.223  0.3128 -0.2097  0.5304
 6749TIP3    H241663   5.157   4.641  15.167  0.3252  0.1041 -0.0991
 6750TIP3   OH241664   0.278   2.764   2.900 -0.4314 -0.5900 -0.0812
 6750TIP3    H141665   0.246   2.845   2.862  1.4986  1.4023  2.1837
 6750TIP3    H241666   0.224   2.750   2.978  1.2967  0.4490  1.3792
 6751TIP3   OH241667   6.342   5.132  13.583 -0.1017 -0.0607 -0.5401
 6751TIP3    H141668   6.317   5.210  13.632  0.1439 -0.0104 -0.4934
 6751TIP3    H241669   6.382   5.074  13.648 -1.4423 -0.7687 -0.3195
 6752TIP3   OH241670   0.433   4.918   3.996 -0.1089 -0.1164  0.5951
 6752TIP3    H141671   0.472   4.876   3.920  1.7567  0.9646  0.8984
 6752TIP3    H241672   0.379   4.989   3.961 -0.1291 -0.3013  0.2543
 6753TIP3   OH241673   3.111   4.437  13.628 -0.0919 -0.4908  0.0556
 6753TIP3    H141674   3.102   4.487  13.547  0.7682 -1.3071 -0.5736
 6753TIP3    H241675   3.204   4.416  13.632 -0.1330 -0.4873  1.2521
 6754TIP3   OH241676   2.810   5.459   2.471 -0.3632  0.0524 -0.0197
 6754TIP3    H141677   2.856   5.483   2.551 -1.0325  0.1654  0.3407
 6754TIP3    H241678   2.742   5.526   2.462  1.2375  1.5446 -2.0513
 6755TIP3   OH241679   6.089   0.171  12.017 -0.0226 -0.2115  0.0038
 6755TIP3    H141680   6.107   0.246  12.074  1.1070  0.5390 -1.2847
 6755TIP3    H241681   6.006   0.192  11.974 -0.2415 -0.2006  0.4258
 6756TIP3   OH241682   0.024   5.538  15.783 -0.0601 -0.2285  0.1893
 6756TIP3    H141683   0.028   5.611  15.845  1.1926  0.2288 -0.4049
 6756TIP3    H241684   0.114   5.527  15.752  0.0498 -2.8668  1.2033
 6757TIP3   OH241685   2.294   0.871  15.767 -0.4118 -0.0112  0.0883
 6757TIP3    H141686   2.336   0.801  15.716  2.0864  0.6965  1.0008
 6757TIP3    H241687   2.319   0.853  15.858 -5.5710 -1.8093  1.4752
 6758TIP3   OH241688   5.397   1.157   4.831 -0.0062 -0.5136  0.1275
 6758TIP3    H141689   5.416   1.150   4.738 -0.5240  1.9758 -0.2448
 6758TIP3    H241690   5.311   1.199   4.835  1.4789  2.8011  1.5961
 6759TIP3   OH241691   5.854   6.219  15.991  0.7255  0.5371 -0.3378
 6759TIP3    H141692   5.926   6.256  15.939  1.4852  1.1326  1.0901
 6759TIP3    H241693   5.801   6.295  16.015  1.2982  0.5134  1.1003
 6760TIP3   OH241694   1.428   5.769  16.572 -0.9967  0.4760 -0.0734
 6760TIP3    H141695   1.386   5.771  16.658 -0.6370 -0.2722  0.1272
 6760TIP3    H241696   1.397   5.688  16.532 -0.6912  0.5192 -0.4039
 6761TIP3   OH241697   2.093   6.285   3.140 -0.1968 -0.0144  0.2377
 6761TIP3    H141698   2.019   6.279   3.200  1.6351 -0.4865  2.6099
 6761TIP3    H241699   2.162   6.327   3.191  2.0226 -1.9517 -0.9385
 6762TIP3   OH241700   6.545   1.145  12.847 -0.1852  0.2917 -0.3999
 6762TIP3    H141701   6.580   1.056  12.852 -0.3198  0.2278 -0.5883
 6762TIP3    H241702   6.575   1.178  12.762  0.5872  0.7345  0.0358
 6763TIP3   OH241703   5.946   2.446  16.315  0.5067 -0.0714  0.1577
 6763TIP3    H141704   5.851   2.434  16.307  0.4370  1.4039 -2.1395
 6763TIP3    H241705   5.974   2.373  16.370 -1.8221 -1.1568  0.0505
 6764TIP3   OH241706   5.813   2.642  12.057 -0.1675  0.5839 -0.5928
 6764TIP3    H141707   5.876   2.683  11.997  2.6223 -1.3316  0.8011
 6764TIP3    H241708   5.755   2.592  12.000  1.9080 -0.5462 -1.8686
 6765TIP3   OH241709   3.996   0.618   2.179 -0.0850  0.1392  0.6229
 6765TIP3    H141710   4.076   0.665   2.158  0.5173 -1.0681  0.0829
 6765TIP3    H241711   3.955   0.670   2.248  1.2272  0.7220  0.9992
 6766TIP3   OH241712   1.521   1.421  16.775  0.4007  0.1679 -0.4004
 6766TIP3    H141713   1.449   1.445  16.716 -0.5889 -2.2255 -0.2815
 6766TIP3    H241714   1.591   1.392  16.717 -0.5556 -2.1394 -0.4940
 6767TIP3   OH241715   0.730   3.263  16.309 -0.6798 -0.3469 -0.1276
 6767TIP3    H141716   0.738   3.278  16.215 -1.9527 -0.0685 -0.2054
 6767TIP3    H241717   0.802   3.313  16.347 -0.7109  0.2983 -0.8868
 6768TIP3   OH241718   4.040   5.149  12.677 -0.3912 -0.3147  0.6475
 6768TIP3    H141719   4.018   5.239  12.649  2.7994  1.3862  3.0149
 6768TIP3    H241720   4.038   5.098  12.596 -1.4550  2.0396 -0.9388
 6769TIP3   OH241721   2.436   2.799  10.943 -0.4116  0.1523 -0.2616
 6769TIP3    H141722   2.384   2.776  11.020 -1.8543  0.8233 -0.9900
 6769TIP3    H241723   2.521   2.826  10.979  0.0928 -2.5998  0.8400
 6770TIP3   OH241724   2.805   4.083   2.483 -0.0050 -0.1358  0.1079
 6770TIP3    H141725   2.823   4.056   2.393 -0.8922 -1.3986  0.2881
 6770TIP3    H241726   2.752   4.162   2.474  1.6164  0.9644 -0.4301
 6771TIP3   OH241727   4.260   6.375  12.320  0.0935  0.2110 -0.4187
 6771TIP3    H141728   4.193   6.440  12.344 -1.4163 -0.8554 -1.5468
 6771TIP3    H241729   4.282   6.332  12.402  0.8102  1.8397  0.2820
 6772TIP3   OH241730   1.359   3.205   0.578  0.3130  0.0756  0.0740
 6772TIP3    H141731   1.311   3.202   0.496  0.4775 -0.3482 -0.0106
 6772TIP3    H241732   1.439   3.253   0.557  0.9803 -1.1889 -0.3553
 6773TIP3   OH241733   0.588   0.642  14.723  0.4176 -0.0141  0.0661
 6773TIP3    H141734   0.633   0.710  14.672 -0.2479 -0.7743 -1.6157
 6773TIP3    H241735   0.515   0.688  14.765  0.0017  0.3634 -1.0204
 6774TIP3   OH241736   2.981   3.609  16.689 -0.1377 -0.4576 -0.3058
 6774TIP3    H141737   2.919   3.544  16.722 -1.0901  0.7823  0.4305
 6774TIP3    H241738   3.042   3.622  16.762  0.0052 -0.4620 -0.4253
 6775TIP3   OH241739   1.618   1.715  11.605  0.2982 -0.0101  0.1457
 6775TIP3    H141740   1.669   1.751  11.532 -0.1223 -0.3014 -0.3003
 6775TIP3    H241741   1.673   1.730  11.682  0.7689  0.2663 -0.2333
 6776TIP3   OH241742   0.764   5.912  16.871 -0.6819  0.3350 -0.7870
 6776TIP3    H141743   0.783   5.981  16.806 -0.1502  2.2047  1.2247
 6776TIP3    H241744   0.669   5.903  16.868 -0.7133  0.7508 -1.4841
 6777TIP3   OH241745   4.505   1.640  15.050  0.3696  0.2698  0.2632
 6777TIP3    H141746   4.501   1.571  15.115 -0.0828 -0.7428 -0.8151
 6777TIP3    H241747   4.588   1.625  15.004  0.7815  1.0968  0.6985
 6778TIP3   OH241748   5.474   2.142   3.961 -0.6231 -0.4016 -0.4389
 6778TIP3    H141749   5.507   2.209   4.021 -2.1978 -0.3524  0.4367
 6778TIP3    H241750   5.485   2.179   3.874 -1.5256  1.0249  0.0341
 6779TIP3   OH241751   4.844   3.804  13.673 -0.2185  0.7130  0.2245
 6779TIP3    H141752   4.887   3.816  13.758  0.4684  0.2634 -0.0429
 6779TIP3    H241753   4.875   3.878  13.620  1.2229 -0.2323 -0.3374
 6780TIP3   OH241754   0.890   5.261   4.409 -0.0977 -0.3407 -0.4795
 6780TIP3    H141755   0.961   5.277   4.470  2.3537  1.7103 -3.5365
 6780TIP3    H241756   0.888   5.166   4.398  0.2503 -0.6356  1.6998
 6781TIP3   OH241757   6.513   2.126  16.877  0.1864 -0.3026  0.4344
 6781TIP3    H141758   6.518   2.180  16.956  1.0302 -0.8479  0.7677
 6781TIP3    H241759   6.565   2.048  16.898  0.5257 -0.4003 -0.7143
 6782TIP3   OH241760   3.582   4.801  11.757  0.3529 -0.5325  0.1955
 6782TIP3    H141761   3.656   4.809  11.817  1.1399 -2.6791 -0.3750
 6782TIP3    H241762   3.541   4.887  11.757  2.9058  0.7838  0.4600
 6783TIP3   OH241763   1.973   0.501  11.267 -0.1766  0.0811  0.3268
 6783TIP3    H141764   2.063   0.470  11.260 -0.1399  0.3360 -0.5039
 6783TIP3    H241765   1.953   0.535  11.179 -1.8245 -1.9535 -0.1477
 6784TIP3   OH241766   5.826   5.813  12.013  0.3766 -0.0171  0.0296
 6784TIP3    H141767   5.823   5.903  11.982 -2.7521  0.2301  0.7904
 6784TIP3    H241768   5.799   5.761  11.937 -0.6700 -0.0184  0.3897
 6785TIP3   OH241769   3.091   6.174  11.101 -0.3976  0.6529 -0.3634
 6785TIP3    H141770   3.030   6.137  11.037 -0.8300  1.4772 -0.4408
 6785TIP3    H241771   3.124   6.254  11.059 -0.0764  0.7778  0.1236
 6786TIP3   OH241772   5.765   2.787  15.266  0.0280 -0.0427  0.3028
 6786TIP3    H141773   5.782   2.823  15.179  0.6416 -0.7316  0.1281
 6786TIP3    H241774   5.733   2.698  15.250 -1.5993  0.4247  0.7232
 6787TIP3   OH241775   1.138   1.011  15.299  0.0099 -0.0076 -0.0407
 6787TIP3    H141776   1.127   0.959  15.220 -1.2394  0.5080 -0.2348
 6787TIP3    H241777   1.214   1.066  15.281  1.4256 -1.7894  0.2191
 6788TIP3   OH241778   3.260   4.050  14.686  0.4257  0.3687 -0.4005
 6788TIP3    H141779   3.210   4.031  14.766  1.1689  0.3071  0.0563
 6788TIP3    H241780   3.244   4.143  14.670 -1.2717 -0.0232 -1.2814
 6789TIP3   OH241781   1.353   5.580  14.926  0.0134  0.2563  0.2167
 6789TIP3    H141782   1.370   5.541  15.012 -0.8574  0.2968  0.4232
 6789TIP3    H241783   1.420   5.647  14.916 -1.0216  1.6184  1.7585
 6790TIP3   OH241784   2.554   6.771   6.098 -0.3288 -0.3427  0.0235
 6790TIP3    H141785   2.536   6.681   6.124  2.1040 -0.7094  0.6437
 6790TIP3    H241786   2.603   6.764   6.016 -1.1435  0.4934 -0.5622
 6791TIP3   OH241787   0.654   5.891   4.210  0.6507  0.3117  0.0237
 6791TIP3    H141788   0.585   5.950   4.180 -0.5181 -1.4455 -0.9169
 6791TIP3    H241789   0.709   5.876   4.133  0.8365  0.0489  0.2046
 6792TIP3   OH241790   5.534   1.471   0.347 -0.4449  0.2173  0.3981
 6792TIP3    H141791   5.533   1.414   0.424  1.2153 -0.2470  0.1245
 6792TIP3    H241792   5.516   1.558   0.381 -0.0756 -0.0345  1.2628
 6793TIP3   OH241793   2.601   2.319  14.824  0.1804  0.0230 -0.4179
 6793TIP3    H141794   2.680   2.276  14.856  1.3305  0.9996 -1.8506
 6793TIP3    H241795   2.607   2.408  14.859 -0.3617  0.0645 -0.4201
 6794TIP3   OH241796   5.436   0.400   1.793 -0.2022 -0.0957 -0.0659
 6794TIP3    H141797   5.507   0.353   1.835  0.1767  2.6055  2.6646
 6794TIP3    H241798   5.360   0.343   1.804  0.4041 -0.5705  2.2067
 6795TIP3   OH241799   4.546   2.460  16.885 -0.4389 -0.1262 -0.2826
 6795TIP3    H141800   4.501   2.514  16.820 -0.4200  1.0391  0.6585
 6795TIP3    H241801   4.487   2.458  16.960  0.7412  0.8207  0.7009
 6796TIP3   OH241802   5.287   2.750  13.750 -0.0756 -0.3135 -0.3608
 6796TIP3    H141803   5.340   2.775  13.674 -0.5404 -0.0323 -0.5954
 6796TIP3    H241804   5.302   2.820  13.814  0.9257 -0.9433  0.1155
 6797TIP3   OH241805   5.839   6.228  16.737  0.4120 -0.3667 -0.0711
 6797TIP3    H141806   5.909   6.197  16.794  0.9745  0.3823 -0.3489
 6797TIP3    H241807   5.859   6.320  16.721  1.2503 -0.9304 -2.8835
 6798TIP3   OH241808   2.900   2.234  12.269 -0.0997 -0.2471  0.2585
 6798TIP3    H141809   2.938   2.239  12.181  0.7735  0.7501  0.6673
 6798TIP3    H241810   2.883   2.141  12.283  1.1111 -0.5891 -0.4064
 6799TIP3   OH241811   0.838   4.637  16.000  0.2135  0.6211  0.6922
 6799TIP3    H141812   0.782   4.626  15.924 -1.8488  0.2269  2.1744
 6799TIP3    H241813   0.839   4.731  16.017  1.6523  0.8494 -0.4506
 6800TIP3   OH241814   6.301   6.377   1.127 -0.1314  0.1375 -0.0297
 6800TIP3    H141815   6.298   6.466   1.092 -0.7839  0.6487  1.2272
 6800TIP3    H241816   6.243   6.380   1.204  0.6802 -1.0875  0.6653
 6801TIP3   OH241817   1.818   4.220   0.479  0.4015 -0.5015  0.1870
 6801TIP3    H141818   1.796   4.253   0.391 -3.7676 -2.1051  0.3972
 6801TIP3    H241819   1.845   4.129   0.464  1.4015 -0.2735  0.4946
 6802TIP3   OH241820   6.694   1.624  15.694  0.0913 -0.2070 -0.4376
 6802TIP3    H141821   6.724   1.595  15.608 -0.8165 -0.0926 -0.7962
 6802TIP3    H241822   6.769   1.671  15.731  0.3257  0.1717 -1.3712
 6803TIP3   OH241823   5.329   3.830  13.948 -0.4623  0.0211 -0.1984
 6803TIP3    H141824   5.369   3.865  14.028 -0.8747 -1.3975  0.6728
 6803TIP3    H241825   5.304   3.907  13.897 -0.4302  0.9584  1.1632
 6804TIP3   OH241826   4.402   3.851   5.164 -0.6156 -0.0823  0.4544
 6804TIP3    H141827   4.458   3.924   5.139 -0.1460 -0.4811  0.3194
 6804TIP3    H241828   4.450   3.773   5.134 -1.6058 -0.3887 -0.3607
 6805TIP3   OH241829   4.435   4.025   5.916  0.1158  0.1998 -0.1878
 6805TIP3    H141830   4.492   3.949   5.917 -1.5321 -1.2507  3.4062
 6805TIP3    H241831   4.465   4.079   5.989 -1.9740  0.1952  0.7682
 6806TIP3   OH241832   6.448   3.722  15.696 -0.2069  0.3880 -0.3472
 6806TIP3    H141833   6.542   3.706  15.685 -0.4954 -0.5021 -1.8522
 6806TIP3    H241834   6.422   3.660  15.764  0.5279  1.6693  1.1659
 6807TIP3   OH241835   3.075   3.132   1.626  0.1835 -0.2359 -0.6429
 6807TIP3    H141836   3.145   3.130   1.690  1.1253 -1.8143 -1.6673
 6807TIP3    H241837   3.089   3.215   1.579 -0.6717  1.0612  1.2624
 6808TIP3   OH241838   1.803   3.839  14.153  0.1923  0.2829  0.3546
 6808TIP3    H141839   1.862   3.907  14.119  1.3671 -0.4179  0.9322
 6808TIP3    H241840   1.792   3.779  14.080 -1.3551  1.3748 -0.3655
 6809TIP3   OH241841   1.719   1.405   1.319 -1.0163  0.3920 -0.0228
 6809TIP3    H141842   1.644   1.444   1.274 -0.2951  1.3559 -0.4171
 6809TIP3    H241843   1.750   1.337   1.259 -1.2476  0.3451 -0.0929
 6810TIP3   OH241844   4.982   1.859  14.414  0.3748 -0.0359 -0.8673
 6810TIP3    H141845   4.978   1.858  14.509  1.0819 -0.5025 -0.8311
 6810TIP3    H241846   5.044   1.789  14.392 -0.6708 -0.7420 -1.7105
 6811TIP3   OH241847   1.863   6.398  14.015  0.6762 -0.2479 -0.4998
 6811TIP3    H141848   1.947   6.352  14.017 -0.1150 -1.8003  1.4348
 6811TIP3    H241849   1.807   6.342  13.962 -0.1141 -1.2737  1.3254
 6812TIP3   OH241850   4.198   3.447   0.536 -0.2878  0.5880 -0.5566
 6812TIP3    H141851   4.271   3.396   0.573  0.5481  1.5017 -0.9042
 6812TIP3    H241852   4.216   3.449   0.442  0.9443  3.3621 -0.3574
 6813TIP3   OH241853   4.667   5.551  11.752 -0.4258 -0.3904 -0.2326
 6813TIP3    H141854   4.652   5.559  11.846  0.6529  1.1742 -0.1609
 6813TIP3    H241855   4.609   5.617  11.713  0.6170  0.3831 -0.4960
 6814TIP3   OH241856   6.067   1.157  13.270  0.8282 -0.4072  0.0020
 6814TIP3    H141857   6.107   1.242  13.285 -0.1474  0.0529  0.0918
 6814TIP3    H241858   6.137   1.103  13.233  1.0399  0.9138 -1.6323
 6815TIP3   OH241859   4.094   6.085  11.758  0.0874  0.2726 -0.1826
 6815TIP3    H141860   4.127   6.170  11.787  0.2919  0.5814 -1.3028
 6815TIP3    H241861   4.068   6.041  11.839  0.6724  1.1055  0.4705
 6816TIP3   OH241862   4.725   1.892  11.519  0.6959 -0.4862 -0.3115
 6816TIP3    H141863   4.666   1.959  11.554  0.4762 -1.2291  0.7899
 6816TIP3    H241864   4.682   1.861  11.440 -0.3035 -0.8586  0.3565
 6817TIP3   OH241865   4.027   0.260  16.281  0.0215 -0.5569 -0.1680
 6817TIP3    H141866   4.076   0.265  16.199  0.6423 -0.0206  0.2267
 6817TIP3    H241867   4.086   0.213  16.341  0.7655  1.4817  0.7897
 6818TIP3   OH241868   4.008   5.017  16.832 -0.6351 -0.0324 -0.1333
 6818TIP3    H141869   4.034   5.091  16.886 -1.0858  1.2491 -1.5893
 6818TIP3    H241870   3.915   5.005  16.850 -0.4621 -0.5630  0.4420
 6819TIP3   OH241871   5.260   3.624   4.294 -0.0863 -0.5842  0.1699
 6819TIP3    H141872   5.294   3.621   4.205 -1.5084 -0.3159 -0.4029
 6819TIP3    H241873   5.330   3.666   4.345  0.4575 -0.1123 -0.9388
 6820TIP3   OH241874   5.050   2.139   0.864  0.0259  0.3221 -0.4446
 6820TIP3    H141875   5.135   2.123   0.823  0.7092  1.6119  0.3995
 6820TIP3    H241876   5.036   2.233   0.855  0.0720  0.6303  1.9383
 6821TIP3   OH241877   5.844   2.796   5.337 -0.0606 -0.1516 -0.4290
 6821TIP3    H141878   5.780   2.725   5.330  1.9455 -2.2953  1.3564
 6821TIP3    H241879   5.897   2.788   5.257 -0.1847 -0.3089 -0.4962
 6822TIP3   OH241880   1.140   3.335   4.178 -0.1852 -0.0066 -0.7432
 6822TIP3    H141881   1.097   3.314   4.261 -0.7936 -0.7758 -1.2425
 6822TIP3    H241882   1.234   3.336   4.200 -0.0044 -3.5595 -0.6599
 6823TIP3   OH241883   1.846   5.902  11.600 -0.0385 -0.0501  0.5172
 6823TIP3    H141884   1.757   5.936  11.585  0.0289 -0.1433 -0.1437
 6823TIP3    H241885   1.901   5.980  11.604 -0.0003 -0.0321 -0.1832
 6824TIP3   OH241886   1.778   0.819  14.891  0.9179 -0.2144  0.1172
 6824TIP3    H141887   1.811   0.729  14.899 -1.3214 -1.0584  0.7024
 6824TIP3    H241888   1.720   0.816  14.815  0.1853  0.5084  0.6317
 6825TIP3   OH241889   5.486   0.599   6.296 -0.4580 -0.2902 -0.8669
 6825TIP3    H141890   5.414   0.643   6.342  1.0843 -0.8950  2.4089
 6825TIP3    H241891   5.557   0.664   6.296  0.2955 -1.0861 -0.2609
 6826TIP3   OH241892   2.984   3.582  15.366  0.1399  0.2123  0.5227
 6826TIP3    H141893   2.957   3.542  15.448  0.0015  0.7057  0.7225
 6826TIP3    H241894   2.915   3.557  15.304 -0.0118  0.2495  0.6744
 6827TIP3   OH241895   2.461   2.483   0.793  0.0424  0.0783 -0.4331
 6827TIP3    H141896   2.465   2.436   0.877  0.0912  3.1245  1.4131
 6827TIP3    H241897   2.449   2.414   0.728 -0.9926 -2.3917  2.1495
 6828TIP3   OH241898   3.953   1.918   4.717  0.0264  0.3843  0.3127
 6828TIP3    H141899   3.994   1.842   4.675 -0.2064  1.3306 -1.7614
 6828TIP3    H241900   3.859   1.904   4.707 -0.0353  0.5531  0.6511
 6829TIP3   OH241901   1.560   0.363   3.237  0.2539 -0.5548  0.0057
 6829TIP3    H141902   1.594   0.358   3.148 -1.2170 -0.9419 -0.5662
 6829TIP3    H241903   1.612   0.300   3.287  0.5533 -0.9269 -0.7667
 6830TIP3   OH241904   6.057   0.827  13.282  0.1933 -0.0966  0.1541
 6830TIP3    H141905   6.070   0.920  13.263 -0.9096 -0.2170 -1.3640
 6830TIP3    H241906   5.992   0.799  13.218  0.6493 -1.9664  0.4716
 6831TIP3   OH241907   0.869   0.772  11.361 -0.2772 -0.1628  0.0626
 6831TIP3    H141908   0.806   0.725  11.306 -0.8217 -1.5762  1.7973
 6831TIP3    H241909   0.864   0.728  11.446  2.6027  0.0841  0.4592
 6832TIP3   OH241910   6.532   5.798  12.936  0.1628  0.0998 -0.5985
 6832TIP3    H141911   6.465   5.735  12.963  0.1878 -0.4338 -1.7222
 6832TIP3    H241912   6.499   5.836  12.855  0.3449  1.2461 -0.1503
 6833TIP3   OH241913   4.698   1.424  11.939 -0.2730  0.4764  0.4051
 6833TIP3    H141914   4.777   1.436  11.992  0.4386 -1.8030 -0.0178
 6833TIP3    H241915   4.726   1.445  11.850  0.5196 -2.2156 -0.0738
 6834TIP3   OH241916   5.348   3.569  12.552  0.0321  0.1126  0.1577
 6834TIP3    H141917   5.362   3.621  12.473 -1.3448 -0.5952 -0.5834
 6834TIP3    H241918   5.254   3.553  12.554  0.3122 -1.6476  0.8192
 6835TIP3   OH241919   5.777   5.335   4.816  0.0363  0.5253 -0.2993
 6835TIP3    H141920   5.850   5.279   4.791  0.9565  0.7691  1.6375
 6835TIP3    H241921   5.702   5.275   4.825  0.0643  0.2148 -1.8833
 6836TIP3   OH241922   3.415   2.218  13.357 -0.2639 -0.2612  0.2203
 6836TIP3    H141923   3.486   2.282  13.350  0.6966 -1.4567 -2.1197
 6836TIP3    H241924   3.358   2.237  13.283  0.4553 -2.4980 -1.0071
 6837TIP3   OH241925   3.586   3.523   5.294  0.3489 -0.1800 -0.2315
 6837TIP3    H141926   3.589   3.616   5.314  0.5910 -0.3136  0.3735
 6837TIP3    H241927   3.633   3.514   5.212 -0.5823  0.3691 -0.8499
 6838TIP3   OH241928   1.583   2.743  15.696 -0.3679  0.6719  0.2232
 6838TIP3    H141929   1.528   2.668  15.674  0.2568  0.5917 -1.2201
 6838TIP3    H241930   1.534   2.791  15.762 -1.1701 -0.5434  0.5390
 6839TIP3   OH241931   4.434   2.089   0.881  0.1778  0.3321  0.0964
 6839TIP3    H141932   4.478   2.136   0.953 -0.1902  2.9191 -1.2316
 6839TIP3    H241933   4.398   2.011   0.922  2.3259  0.2822  2.1313
 6840TIP3   OH241934   0.064   3.190  14.311  0.3528  0.1875 -0.1061
 6840TIP3    H141935   0.011   3.113  14.289  0.0036 -0.0630  1.5280
 6840TIP3    H241936   0.137   3.156  14.361 -0.8590  1.0494  2.4278
 6841TIP3   OH241937   1.555   3.798  10.696  0.3997  0.3918 -0.1693
 6841TIP3    H141938   1.544   3.875  10.639 -0.2401  0.6860  0.3499
 6841TIP3    H241939   1.622   3.746  10.651  0.8073  1.2225 -0.5574
 6842TIP3   OH241940   4.480   2.482   3.199  0.4762 -0.4978 -0.2490
 6842TIP3    H141941   4.452   2.394   3.225  0.0282 -0.4147 -0.4513
 6842TIP3    H241942   4.414   2.512   3.138  0.4260  0.1321  0.1009
 6843TIP3   OH241943   3.873   3.218  13.440 -0.4470  0.4583  0.2944
 6843TIP3    H141944   3.920   3.159  13.499 -0.9931 -0.9621 -0.6269
 6843TIP3    H241945   3.852   3.163  13.364 -1.3434  1.7478 -0.4225
 6844TIP3   OH241946   0.020   3.151  10.753  0.0851  0.7723 -0.4877
 6844TIP3    H141947   0.071   3.090  10.700 -0.0851  1.6670 -1.7422
 6844TIP3    H241948   0.074   3.230  10.755  0.1135  0.7282  0.7466
 6845TIP3   OH241949   3.632   3.114   2.470 -0.2572  0.0839 -0.1123
 6845TIP3    H141950   3.625   3.132   2.376  0.0878  0.6945 -0.0332
 6845TIP3    H241951   3.577   3.037   2.485  0.4787 -0.6316 -0.9856
 6846TIP3   OH241952   6.493   4.585  17.160 -0.2492  0.4010  0.1015
 6846TIP3    H141953   6.538   4.661  17.197 -0.9749 -0.3248  2.6554
 6846TIP3    H241954   6.433   4.623  17.096  3.1791  1.4508 -2.8171
 6847TIP3   OH241955   0.595   1.611  14.223  0.4914 -0.1087  0.0299
 6847TIP3    H141956   0.517   1.648  14.181  0.6359  0.4361  0.2310
 6847TIP3    H241957   0.667   1.633  14.164  0.8222  1.4127  0.9529
 6848TIP3   OH241958   3.489   4.235   5.780  0.2338 -0.0118 -0.2540
 6848TIP3    H141959   3.493   4.142   5.799  0.0246 -0.3885 -1.8653
 6848TIP3    H241960   3.569   4.253   5.731  0.0481  0.5431 -0.3611
 6849TIP3   OH241961   4.587   4.172  11.710  0.5958  0.1564  0.4211
 6849TIP3    H141962   4.561   4.123  11.632  0.0014  0.7983  0.2012
 6849TIP3    H241963   4.682   4.180  11.703  0.6325 -0.4461  0.1617
 6850TIP3   OH241964   4.408   0.924   6.762  0.7494  0.7835 -0.6590
 6850TIP3    H141965   4.403   0.831   6.786  1.3669  0.4717 -1.6808
 6850TIP3    H241966   4.484   0.930   6.705  2.2774  2.3914  1.4097
 6851TIP3   OH241967   1.867   0.427   3.322  0.1193 -0.0450  0.2089
 6851TIP3    H141968   1.833   0.342   3.350 -0.0073 -0.3792 -0.9425
 6851TIP3    H241969   1.823   0.490   3.379  2.4313 -0.8686  3.2137
 6852TIP3   OH241970   0.528   5.244   1.323  0.3869  0.0747  0.0462
 6852TIP3    H141971   0.486   5.325   1.350  0.0191  0.6992 -2.2228
 6852TIP3    H241972   0.461   5.177   1.337 -0.9755  0.8617 -2.2081
 6853TIP3   OH241973   3.960   1.348   3.797 -0.7530 -0.7054 -0.0627
 6853TIP3    H141974   3.921   1.329   3.883  0.4765 -3.4409 -0.0166
 6853TIP3    H241975   3.943   1.441   3.784 -0.9978 -0.1662  3.1434
 6854TIP3   OH241976   4.038   2.706  12.367  0.4024  0.6470 -0.2505
 6854TIP3    H141977   4.091   2.784  12.381  0.1129  0.8975 -0.5111
 6854TIP3    H241978   4.021   2.705  12.272 -1.3474  1.4385  0.0140
 6855TIP3   OH241979   1.710   2.923  15.517 -0.4258 -0.3760 -0.0360
 6855TIP3    H141980   1.673   2.862  15.581 -0.5312 -0.6712 -0.3801
 6855TIP3    H241981   1.636   2.950  15.463 -0.3302 -0.1530 -0.0542
 6856TIP3   OH241982   4.237   2.445  15.497 -0.4767  0.4706  0.6230
 6856TIP3    H141983   4.201   2.375  15.443  2.3468 -0.8501  0.2351
 6856TIP3    H241984   4.303   2.487  15.442  2.4555 -0.8604  2.8139
 6857TIP3   OH241985   4.377   4.165  12.613 -1.1292 -0.1322  0.1481
 6857TIP3    H141986   4.400   4.249  12.574  0.3989 -0.3847  0.4512
 6857TIP3    H241987   4.333   4.187  12.695 -0.0440  0.3791  0.6034
 6858TIP3   OH241988   6.031   5.350  13.500  0.3027 -0.3271  0.2867
 6858TIP3    H141989   6.001   5.270  13.456 -1.7919  1.7460 -2.3890
 6858TIP3    H241990   6.114   5.370  13.458  0.6379 -0.8608  0.6819
 6859TIP3   OH241991   5.612   1.594  10.971  0.1217 -0.3172  0.5955
 6859TIP3    H141992   5.635   1.664  10.911  1.6278 -0.4146  1.0137
 6859TIP3    H241993   5.673   1.523  10.949 -0.5921 -1.0646  0.9664
 6860TIP3   OH241994   4.217   6.493  14.064 -0.0306  0.1179  0.1864
 6860TIP3    H141995   4.141   6.436  14.047 -0.8025  1.0399  0.4922
 6860TIP3    H241996   4.180   6.580  14.075  1.0226  0.4805  0.9952
 6861TIP3   OH241997   0.657   3.774  13.780 -0.0188 -0.1312 -0.4282
 6861TIP3    H141998   0.679   3.718  13.706 -0.4931 -1.3578  0.3123
 6861TIP3    H241999   0.678   3.862  13.752  2.2984 -0.8257 -1.0697
 6862TIP3   OH242000   6.535   5.242   3.787  0.6802  0.0497 -0.4041
 6862TIP3    H142001   6.619   5.242   3.741  1.1441 -0.0167  0.4242
 6862TIP3    H242002   6.478   5.296   3.733  0.3699 -2.2607 -2.5456
 6863TIP3   OH242003   2.069   2.334   1.436 -0.7584 -0.2987  0.3354
 6863TIP3    H142004   2.137   2.357   1.499 -1.4803 -0.5764  1.2349
 6863TIP3    H242005   2.110   2.272   1.376  0.3232  0.9638 -0.2823
 6864TIP3   OH242006   0.109   1.529   4.250 -0.1594  0.0375  0.2156
 6864TIP3    H142007   0.180   1.493   4.302  1.2453  0.9305 -1.0240
 6864TIP3    H242008   0.040   1.548   4.314  0.8278 -0.5392  1.4877
 6865TIP3   OH242009   4.337   4.255  16.533 -0.3107  0.0023  0.0636
 6865TIP3    H142010   4.373   4.222  16.451 -0.0647 -0.7554  0.4643
 6865TIP3    H242011   4.319   4.176  16.584  0.0002  0.4887  0.9313
 6866TIP3   OH242012   5.615   4.768  16.110  0.2869  0.0129 -0.2323
 6866TIP3    H142013   5.602   4.680  16.076 -0.9800 -0.0313  0.2992
 6866TIP3    H242014   5.706   4.789  16.090  0.4763 -1.2414 -0.7516
 6867TIP3   OH242015   5.563   4.048   6.167  0.2953 -0.4355  0.1975
 6867TIP3    H142016   5.620   4.099   6.224  0.8389 -0.9380  0.1087
 6867TIP3    H242017   5.621   4.010   6.102 -0.0433 -1.4884  0.4974
 6868TIP3   OH242018   6.327   2.556   4.911 -0.3647 -0.7073 -0.6116
 6868TIP3    H142019   6.295   2.645   4.893  0.0526 -0.4120  0.0543
 6868TIP3    H242020   6.400   2.569   4.971 -0.6796 -1.5396 -0.0316
 6869TIP3   OH242021   2.193   6.244  12.637 -0.1485 -0.3033  0.1447
 6869TIP3    H142022   2.182   6.149  12.648  0.2372 -0.2065  1.5476
 6869TIP3    H242023   2.287   6.255  12.621  0.0707 -0.0623  1.4652
 6870TIP3   OH242024   1.348   4.050  12.100 -0.0269  0.1819 -0.2912
 6870TIP3    H142025   1.297   3.975  12.131 -0.1615  0.0969 -0.7113
 6870TIP3    H242026   1.321   4.122  12.156  0.4985 -0.1988  0.4683
 6871TIP3   OH242027   4.636   0.375   2.037  0.6421  0.2728  0.5619
 6871TIP3    H142028   4.675   0.462   2.025  0.5981  0.2856  0.5086
 6871TIP3    H242029   4.708   0.320   2.068  0.4403  0.5802  1.6268
 6872TIP3   OH242030   3.337   1.442   3.057  0.2636  0.0262  0.7584
 6872TIP3    H142031   3.365   1.359   3.096  0.1715  0.9239  2.8496
 6872TIP3    H242032   3.244   1.449   3.077 -0.1481 -0.1212 -0.9199
 6873TIP3   OH242033   3.862   5.681  14.442 -0.5061 -0.5393  0.0788
 6873TIP3    H142034   3.935   5.670  14.382  0.3691  1.5967  0.6594
 6873TIP3    H242035   3.846   5.593  14.477  0.0206 -1.5269 -1.9991
 6874TIP3   OH242036   3.183   5.930  12.005  0.0765 -0.9027  0.1671
 6874TIP3    H142037   3.256   5.919  12.066  1.7102  0.6324 -1.4222
 6874TIP3    H242038   3.165   6.024  12.006 -0.6460 -1.0147 -0.8620
 6875TIP3   OH242039   3.307   1.137   4.255  0.1433 -0.0720 -0.5403
 6875TIP3    H142040   3.266   1.210   4.301  0.6910 -0.2926  0.3102
 6875TIP3    H242041   3.282   1.060   4.306  0.3389 -0.3786 -0.9025
 6876TIP3   OH242042   1.429   5.988   4.326 -0.3913  0.1216 -0.0458
 6876TIP3    H142043   1.494   6.057   4.314 -0.9513  0.8631  1.0373
 6876TIP3    H242044   1.477   5.907   4.308  0.2920  0.7679 -1.2760
 6877TIP3   OH242045   0.899   4.636   5.260  0.2937  0.2131  0.6518
 6877TIP3    H142046   0.951   4.569   5.305  0.9282 -1.6249 -2.4747
 6877TIP3    H242047   0.811   4.599   5.257  0.1895  0.4602  0.6667
 6878TIP3   OH242048   6.098   0.564  14.628  0.1947 -0.4472 -0.2162
 6878TIP3    H142049   6.034   0.494  14.622 -1.5761  0.8483  1.9049
 6878TIP3    H242050   6.128   0.562  14.719  1.4260  0.4519 -0.5738
 6879TIP3   OH242051   2.030   4.317   1.539  0.0850  0.0179  0.7172
 6879TIP3    H142052   1.956   4.281   1.491 -0.6289  1.8082  0.3815
 6879TIP3    H242053   2.044   4.256   1.612 -0.2852 -1.5102 -0.4412
 6880TIP3   OH242054   6.616   2.526   6.700  0.3403  0.6500 -0.4000
 6880TIP3    H142055   6.700   2.505   6.658  1.2520  0.9263  1.2125
 6880TIP3    H242056   6.623   2.618   6.723 -0.4820  0.7130 -0.3787
 6881TIP3   OH242057   6.605   4.533   2.286 -0.3042 -0.4781 -0.3358
 6881TIP3    H142058   6.669   4.520   2.217 -0.4033 -0.2081 -0.4783
 6881TIP3    H242059   6.536   4.586   2.246 -0.6925 -0.8980 -0.2290
 6882TIP3   OH242060   5.762   2.080  14.766 -0.2631  0.3369  0.3967
 6882TIP3    H142061   5.749   2.082  14.671 -0.8208  1.6849  0.4705
 6882TIP3    H242062   5.853   2.052  14.778 -0.4309 -0.6250 -0.4993
 6883TIP3   OH242063   0.908   5.355   3.688  0.2867  0.2177 -0.3231
 6883TIP3    H142064   0.964   5.430   3.669  1.1498 -0.1683  0.5833
 6883TIP3    H242065   0.911   5.302   3.608  0.0826  0.8811 -0.7786
 6884TIP3   OH242066   5.639   2.696   6.606  0.5789  0.1431  0.1249
 6884TIP3    H142067   5.559   2.680   6.557  0.2582  0.6238  0.4899
 6884TIP3    H242068   5.620   2.667   6.695  0.5965  0.8281  0.3625
 6885TIP3   OH242069   5.323   2.948  10.820  0.2395 -0.8696 -0.1192
 6885TIP3    H142070   5.363   2.894  10.888 -1.1906 -1.6358  0.1494
 6885TIP3    H242071   5.371   3.030  10.823  1.0499 -1.3626  0.9248
 6886TIP3   OH242072   5.088   6.535  15.077 -0.4356 -0.0499 -0.0967
 6886TIP3    H142073   5.081   6.457  15.021  0.3020  0.3156 -0.7230
 6886TIP3    H242074   5.131   6.600  15.021 -1.8117  1.0892  0.1327
 6887TIP3   OH242075   3.611   6.237  12.309 -0.2095  0.4686  0.6908
 6887TIP3    H142076   3.525   6.232  12.266 -0.2903 -0.3046  0.9261
 6887TIP3    H242077   3.651   6.316  12.273 -0.5411  0.1984 -0.3207
 6888TIP3   OH242078   1.428   4.081   5.598 -0.1551 -0.4796 -0.0128
 6888TIP3    H142079   1.419   3.986   5.611 -0.1525 -0.4360  0.3392
 6888TIP3    H242080   1.393   4.119   5.679  0.7487 -0.2166  0.2642
 6889TIP3   OH242081   3.445   5.146   5.011 -0.0398 -0.2347 -0.1067
 6889TIP3    H142082   3.496   5.177   5.086 -0.5525  0.8288 -0.1804
 6889TIP3    H242083   3.377   5.213   5.000 -1.2431 -1.4509 -0.2162
 6890TIP3   OH242084   3.379   1.734   3.287  0.3957  0.1185  0.3511
 6890TIP3    H142085   3.290   1.717   3.257 -0.2440  2.0590  0.9617
 6890TIP3    H242086   3.400   1.821   3.252  1.6226  0.1730  1.1433
 6891TIP3   OH242087   1.233   5.423   3.155 -0.0708 -0.2893  0.6667
 6891TIP3    H142088   1.232   5.328   3.161 -1.2619 -0.3474 -0.0958
 6891TIP3    H242089   1.227   5.442   3.061 -1.7897  0.4935  0.8785
 6892TIP3   OH242090   4.376   3.315   3.062  0.1155  0.1618 -0.5463
 6892TIP3    H142091   4.414   3.361   3.137  0.4169  0.2358 -0.7413
 6892TIP3    H242092   4.387   3.222   3.083  0.6481  0.1800 -0.7150
 6893TIP3   OH242093   2.436   3.096   3.367  0.2772  0.1588  0.1030
 6893TIP3    H142094   2.469   3.159   3.302 -2.2244 -0.1346 -1.5902
 6893TIP3    H242095   2.418   3.017   3.316 -1.4593 -0.2023  1.2142
 6894TIP3   OH242096   2.877   0.974  14.742  0.1310  0.0949  0.3149
 6894TIP3    H142097   2.916   0.890  14.719 -0.2126 -0.3749  1.4143
 6894TIP3    H242098   2.936   1.011  14.807  0.1828  0.6327 -0.0274
 6895TIP3   OH242099   1.050   6.600   3.393 -0.1896  0.2666 -0.1120
 6895TIP3    H142100   1.010   6.569   3.312  0.7877  0.0031 -0.4986
 6895TIP3    H242101   1.144   6.590   3.380 -0.0154  0.1394  1.0847
 6896TIP3   OH242102   0.959   1.936   1.714  0.6252 -0.0333 -0.4123
 6896TIP3    H142103   0.979   2.026   1.738  1.6150 -0.5170  0.7059
 6896TIP3    H242104   0.882   1.942   1.659 -1.7189  1.2133  2.7214
 6897TIP3   OH242105   2.887   5.700  13.258  0.2134 -0.9116  0.1609
 6897TIP3    H142106   2.854   5.658  13.178 -1.6300  0.0153  0.3881
 6897TIP3    H242107   2.818   5.684  13.323  0.9614 -0.2852  1.1306
 6898TIP3   OH242108   4.894   2.799   2.005 -0.8501  0.8246  0.1372
 6898TIP3    H142109   4.886   2.781   1.911  1.6986  0.7684 -0.1239
 6898TIP3    H242110   4.868   2.891   2.014 -1.4917  0.7179 -0.5525
 6899TIP3   OH242111   1.945   6.136  15.840  0.2795 -0.4184 -0.1692
 6899TIP3    H142112   1.880   6.099  15.901 -0.5441  0.0955 -0.7048
 6899TIP3    H242113   1.901   6.133  15.755  1.3625 -0.9941 -0.7220
 6900TIP3   OH242114   2.324   0.214   5.038 -0.8784  0.1529  0.3789
 6900TIP3    H142115   2.287   0.300   5.021 -0.9179  0.1563  0.4794
 6900TIP3    H242116   2.332   0.173   4.952  1.3155  1.1390  0.0253
 6901TIP3   OH242117   0.365   0.365  13.868  0.0588 -0.0402  0.0697
 6901TIP3    H142118   0.354   0.306  13.794  2.0094  1.5752 -1.6213
 6901TIP3    H242119   0.452   0.343  13.903 -0.6084 -0.4072  1.6096
 6902TIP3   OH242120   6.696   1.998   3.967  0.8356 -0.1735  0.1238
 6902TIP3    H142121   6.655   1.943   4.035 -0.5327 -0.5187 -0.9265
 6902TIP3    H242122   6.668   2.087   3.988  1.5171 -0.0959  0.7550
 6903TIP3   OH242123   2.622   6.009   0.585 -0.2154 -0.3606  0.0489
 6903TIP3    H142124   2.695   6.055   0.545 -0.4536 -0.3944 -0.4288
 6903TIP3    H242125   2.663   5.940   0.638  0.1439  0.3742  0.7587
 6904TIP3   OH242126   1.443   4.945  13.849  0.9448  0.1745  0.5017
 6904TIP3    H142127   1.350   4.970  13.853  0.0419 -2.8693  1.9786
 6904TIP3    H242128   1.451   4.900  13.765  0.8913 -0.1428  0.6644
 6905TIP3   OH242129   5.217   2.031   3.972  0.2647 -0.1749 -0.0905
 6905TIP3    H142130   5.155   2.095   3.936 -0.6715 -0.5317  0.8285
 6905TIP3    H242131   5.300   2.078   3.977  0.0241  0.3978 -1.0973
 6906TIP3   OH242132   1.969   3.850   2.049 -0.9267 -0.4480 -0.2198
 6906TIP3    H142133   2.054   3.847   2.093  0.2399 -0.0921 -2.3218
 6906TIP3    H242134   1.951   3.944   2.039  0.0124 -0.4681 -2.5637
 6907TIP3   OH242135   1.572   5.013  11.818 -0.2240  0.1831  0.1779
 6907TIP3    H142136   1.611   5.098  11.835  0.2718 -0.0731  0.3247
 6907TIP3    H242137   1.639   4.965  11.769 -0.4940 -0.1285  0.1080
 6908TIP3   OH242138   0.237   5.177   1.310 -0.1676  0.1345 -0.1307
 6908TIP3    H142139   0.273   5.185   1.222 -0.7010  1.3645 -0.2503
 6908TIP3    H242140   0.148   5.211   1.303 -0.9015 -1.5527  0.4690
 6909TIP3   OH242141   2.701   0.936  12.382  0.0408  0.2327 -0.1020
 6909TIP3    H142142   2.606   0.938  12.398  0.0788  2.5695  0.1679
 6909TIP3    H242143   2.740   0.942  12.469  0.3844  1.2719 -0.3133
 6910TIP3   OH242144   2.868   2.137   1.814  0.2394  0.6850 -0.4693
 6910TIP3    H142145   2.938   2.089   1.858 -0.2854 -0.3318 -0.7155
 6910TIP3    H242146   2.800   2.072   1.800 -0.1080  1.2815 -1.6697
 6911TIP3   OH242147   1.823   4.345  12.683  0.1102 -0.0178  0.2408
 6911TIP3    H142148   1.870   4.379  12.607 -0.1055 -1.3042 -0.5073
 6911TIP3    H242149   1.779   4.267  12.650  1.2066 -1.4623  2.0121
 6912TIP3   OH242150   6.229   0.623   5.827 -0.8806  0.3543  0.0722
 6912TIP3    H142151   6.254   0.613   5.919 -1.6491 -2.5437  0.0674
 6912TIP3    H242152   6.303   0.591   5.777 -2.2822 -3.0229 -0.0807
 6913TIP3   OH242153   1.583   4.586  16.538  0.6540  0.6301  0.7337
 6913TIP3    H142154   1.585   4.493  16.517  0.8634  0.9035 -0.5438
 6913TIP3    H242155   1.579   4.589  16.633 -2.2578 -0.7389  0.7852
 6914TIP3   OH242156   4.089   6.356   0.690 -0.0498 -0.8560  0.3079
 6914TIP3    H142157   4.065   6.406   0.612 -1.8390 -1.0038  0.7050
 6914TIP3    H242158   4.168   6.397   0.723  0.6382 -0.6721 -1.4743
 6915TIP3   OH242159   4.150   3.947   5.184  0.4139  0.6432 -0.1405
 6915TIP3    H142160   4.232   3.900   5.171  0.0743  0.2944 -1.0949
 6915TIP3    H242161   4.155   4.022   5.126  0.4255  1.1065  0.4537
 6916TIP3   OH242162   3.097   3.055  15.391  0.3007 -0.1515  0.0343
 6916TIP3    H142163   3.060   2.997  15.325 -0.4527 -0.4807  0.7303
 6916TIP3    H242164   3.087   3.143  15.354 -2.7348 -0.0577  0.8650
 6917TIP3   OH242165   5.051   6.719  16.720 -0.2019 -0.2354 -0.2629
 6917TIP3    H142166   5.100   6.638  16.735 -0.5498 -1.2445 -3.7333
 6917TIP3    H242167   5.011   6.707  16.634 -1.1051  3.2698 -0.4626
 6918TIP3   OH242168   5.842   5.038   0.066 -0.2250  0.3661  0.1383
 6918TIP3    H142169   5.895   4.979   0.012 -2.0826 -1.0062 -0.3065
 6918TIP3    H242170   5.906   5.096   0.107  1.4006  0.4819 -2.3168
 6919TIP3   OH242171   5.270   3.923  12.667  0.6490 -0.5028  0.2025
 6919TIP3    H142172   5.235   3.993  12.724 -0.7823 -1.3961  0.4846
 6919TIP3    H242173   5.331   3.876  12.723  2.1947  0.9261 -0.2097
 6920TIP3   OH242174   6.546   3.386   3.171 -0.6046  0.3367  0.6756
 6920TIP3    H142175   6.553   3.397   3.266 -0.5579  0.3205  0.6735
 6920TIP3    H242176   6.466   3.435   3.148 -0.9814 -0.2077  0.8127
 6921TIP3   OH242177   0.713   6.153   2.242  0.3982 -0.5276  0.2338
 6921TIP3    H142178   0.645   6.108   2.192  0.1418 -0.9112  0.9148
 6921TIP3    H242179   0.791   6.146   2.187 -0.4595  1.4330 -1.3999
 6922TIP3   OH242180   2.655   3.625  16.947  0.1751  0.0858 -0.4108
 6922TIP3    H142181   2.728   3.570  16.974 -0.9130 -1.2968 -0.1783
 6922TIP3    H242182   2.663   3.632  16.852  1.7989  1.7595 -0.2299
 6923TIP3   OH242183   6.593   2.335   2.741 -0.4702 -0.2635  0.1074
 6923TIP3    H142184   6.598   2.420   2.785 -1.1405 -0.4882  0.6376
 6923TIP3    H242185   6.662   2.338   2.675  1.2393 -0.2768  1.7891
 6924TIP3   OH242186   6.303   5.441  15.717  0.1346  0.1493  0.1849
 6924TIP3    H142187   6.331   5.397  15.637  3.0237  1.0779  0.5657
 6924TIP3    H242188   6.242   5.380  15.759 -0.5091 -0.8550 -2.0996
 6925TIP3   OH242189   2.673   2.591   3.844 -0.3064  0.7341 -0.1783
 6925TIP3    H142190   2.584   2.571   3.873  0.3949 -1.2541  0.7482
 6925TIP3    H242191   2.678   2.553   3.756 -0.3374  0.7620 -0.1923
 6926TIP3   OH242192   6.038   2.023  14.802  0.7280 -0.6022 -0.2102
 6926TIP3    H142193   5.996   1.944  14.836 -1.2817  0.0576 -1.0148
 6926TIP3    H242194   6.129   1.998  14.788  0.7606 -1.9893  2.0195
 6927TIP3   OH242195   6.185   5.740   5.505  0.3346  0.3933 -0.1996
 6927TIP3    H142196   6.194   5.761   5.598  2.1625  0.4405 -0.3558
 6927TIP3    H242197   6.107   5.788   5.477  0.1861  0.9747  1.1308
 6928TIP3   OH242198   2.424   3.527   2.399  0.1477 -0.0726  0.0244
 6928TIP3    H142199   2.343   3.573   2.421 -0.1341 -0.5836  0.0877
 6928TIP3    H242200   2.483   3.545   2.471  0.6694  1.6386 -0.7902
 6929TIP3   OH242201   1.854   0.495  15.707 -0.1800  0.3989 -0.3906
 6929TIP3    H142202   1.856   0.582  15.748  0.4110  0.3112 -0.2235
 6929TIP3    H242203   1.761   0.479  15.691 -0.4283  0.4536  0.8740
 6930TIP3   OH242204   3.375   6.591  12.721  0.3790  0.1337  0.7291
 6930TIP3    H142205   3.437   6.527  12.755 -1.2364 -0.3768  2.9018
 6930TIP3    H242206   3.356   6.560  12.632  1.0426 -1.3110  1.0617
 6931TIP3   OH242207   0.830   2.789  13.697 -0.1815 -0.6652  0.0729
 6931TIP3    H142208   0.866   2.859  13.751 -0.3242 -0.4201 -0.1435
 6931TIP3    H242209   0.817   2.716  13.757 -1.3548 -0.0456  0.6038
 6932TIP3   OH242210   5.557   1.968  16.028  0.3013  0.3951 -0.0918
 6932TIP3    H142211   5.580   1.968  15.935 -0.4561 -1.7652 -0.3295
 6932TIP3    H242212   5.639   1.949  16.073  0.5862  1.0395 -0.3222
 6933TIP3   OH242213   3.617   2.227  15.233 -0.0073  0.7045  0.5866
 6933TIP3    H142214   3.595   2.312  15.271  0.1525  0.4514  1.2637
 6933TIP3    H242215   3.533   2.181  15.227  0.2217 -0.0880  2.7375
 6934TIP3   OH242216   1.943   2.851   3.970  0.2598  0.1770  0.3124
 6934TIP3    H142217   1.945   2.756   3.980  0.2654  0.2799  1.3673
 6934TIP3    H242218   1.941   2.865   3.875 -0.3577 -0.8759  0.1591
 6935TIP3   OH242219   0.977   5.130  16.975 -0.2848  0.6654 -0.2810
 6935TIP3    H142220   0.887   5.138  16.942 -0.5365 -0.3947  0.0807
 6935TIP3    H242221   0.970   5.063  17.044  0.5980  1.3172  0.4690
 6936TIP3   OH242222   6.266   4.505  12.929 -0.0117  0.0221 -0.4308
 6936TIP3    H142223   6.319   4.518  13.008 -1.2671  0.6414  0.3282
 6936TIP3    H242224   6.219   4.423  12.944 -0.2719  0.1517 -0.5369
 6937TIP3   OH242225   1.649   4.561  12.678  0.2458  0.4069 -0.2699
 6937TIP3    H142226   1.668   4.572  12.585  0.5575  2.1448 -0.0409
 6937TIP3    H242227   1.716   4.501  12.709 -0.7094 -1.3280 -1.4183
 6938TIP3   OH242228   2.763   1.941  13.167  0.2123  0.1490  0.5572
 6938TIP3    H142229   2.778   1.987  13.085  0.4391  0.2179  0.6379
 6938TIP3    H242230   2.766   1.849  13.144 -0.9548  0.1637  0.2633
 6939TIP3   OH242231   3.849   0.377  13.444 -0.4667  0.0952  0.1222
 6939TIP3    H142232   3.891   0.436  13.381  1.4354 -0.0132  1.1990
 6939TIP3    H242233   3.835   0.296  13.395  0.1904  0.2981 -0.4172
 6940TIP3   OH242234   5.767   0.262  15.764  0.4568  0.8605  0.0796
 6940TIP3    H142235   5.678   0.290  15.740  0.8095  0.8383 -1.3030
 6940TIP3    H242236   5.770   0.273  15.859 -0.8658  1.3274  0.0898
 6941TIP3   OH242237   3.435   4.409  17.224  0.1793 -0.3081  0.2498
 6941TIP3    H142238   3.488   4.428  17.147  0.6239 -3.5577 -0.3500
 6941TIP3    H242239   3.348   4.441  17.202  0.8009  0.8168 -0.6598
 6942TIP3   OH242240   2.057   4.275   1.833  0.3064 -0.0266  1.0431
 6942TIP3    H142241   2.152   4.266   1.838  0.6762  2.1418 -0.9844
 6942TIP3    H242242   2.042   4.364   1.801 -2.4449 -0.0781  1.9327
 6943TIP3   OH242243   4.611   5.136  15.409  0.4830  0.0488 -0.6271
 6943TIP3    H142244   4.577   5.226  15.410  0.9632  0.2619  1.1062
 6943TIP3    H242245   4.707   5.147  15.408  0.5569 -0.3987  0.1728
 6944TIP3   OH242246   2.952   6.759  14.873 -0.2296 -0.7707  0.5497
 6944TIP3    H142247   2.897   6.817  14.820 -2.2175 -2.6548  0.3994
 6944TIP3    H242248   2.926   6.777  14.963  0.4283 -0.2265  0.6406
 6945TIP3   OH242249   5.447   0.439   0.967 -0.6152 -0.0316 -0.5239
 6945TIP3    H142250   5.467   0.523   0.927 -0.3369 -0.5970 -1.6066
 6945TIP3    H242251   5.532   0.405   0.996 -0.9792  1.1863  2.3194
 6946TIP3   OH242252   5.329   5.734  13.979 -0.1134 -0.2388 -0.2056
 6946TIP3    H142253   5.334   5.650  14.025 -1.4305  0.5525  1.5031
 6946TIP3    H242254   5.236   5.744  13.958  0.0127  0.8254 -0.3090
 6947TIP3   OH242255   6.584   6.503   0.420 -0.2621  0.5473 -0.7437
 6947TIP3    H142256   6.667   6.545   0.400  0.0180  0.1702 -0.3718
 6947TIP3    H242257   6.556   6.543   0.503  0.2093 -0.2856 -0.1687
 6948TIP3   OH242258   2.326   2.262   0.329 -0.6875  0.1308  0.1116
 6948TIP3    H142259   2.331   2.176   0.288 -2.7653 -0.1785  0.3950
 6948TIP3    H242260   2.398   2.312   0.290 -0.4615 -1.2231 -1.2869
 6949TIP3   OH242261   6.204   3.402  15.635 -0.2539  0.1860 -0.0841
 6949TIP3    H142262   6.170   3.375  15.720 -0.8995 -0.8864 -0.6518
 6949TIP3    H242263   6.298   3.383  15.640  0.3045  2.8977  1.3913
 6950TIP3   OH242264   2.687   2.390   3.100 -0.4679  0.1029  0.0600
 6950TIP3    H142265   2.741   2.313   3.086 -0.9206 -0.2384  0.1801
 6950TIP3    H242266   2.675   2.395   3.195  0.6910  1.1079  0.1865
 6951TIP3   OH242267   1.349   5.188  13.532  0.0161 -0.0432 -0.0790
 6951TIP3    H142268   1.285   5.204  13.600  1.7361  0.0957  1.5950
 6951TIP3    H242269   1.405   5.265  13.532  0.4464 -0.3226 -1.2083
 6952TIP3   OH242270   1.235   1.975  13.185  0.2793  0.3818 -0.5539
 6952TIP3    H142271   1.217   2.028  13.107 -0.1978 -1.1827 -1.5598
 6952TIP3    H242272   1.330   1.973  13.191  0.3056  1.1392 -0.6447
 6953TIP3   OH242273   0.110   5.489   3.890  0.5506  0.2679  0.5715
 6953TIP3    H142274   0.032   5.517   3.842  0.1856  1.9139  2.0175
 6953TIP3    H242275   0.177   5.477   3.822 -1.1033 -1.9568 -0.7962
 6954TIP3   OH242276   3.905   2.174   0.010 -0.7835  0.4045  0.0019
 6954TIP3    H142277   3.828   2.122   0.032 -0.8597  1.1441  1.6702
 6954TIP3    H242278   3.898   2.189  -0.085 -1.6767 -1.1014 -0.1933
 6955TIP3   OH242279   3.333   0.261   5.341  0.4147  0.2158 -0.0650
 6955TIP3    H142280   3.403   0.298   5.395  1.3519  0.4504 -1.3753
 6955TIP3    H242281   3.284   0.337   5.311  0.0417  0.1040  0.2586
 6956TIP3   OH242282   2.506   3.803  14.862 -0.6838  0.3340 -0.3081
 6956TIP3    H142283   2.465   3.760  14.787 -2.4107 -0.7585  1.1936
 6956TIP3    H242284   2.458   3.884  14.873  0.0405  0.8457 -0.7685
 6957TIP3   OH242285   6.052   3.268   5.074  0.1712 -0.0811  0.0348
 6957TIP3    H142286   5.979   3.207   5.079  0.5475 -0.6059 -0.7472
 6957TIP3    H242287   6.024   3.342   5.128 -0.0136 -1.2040  1.5433
 6958TIP3   OH242288   0.666   2.293  12.453  0.3582 -0.2158  0.1393
 6958TIP3    H142289   0.735   2.358  12.467  0.1548 -0.2584  1.4273
 6958TIP3    H242290   0.708   2.226  12.397  1.2207 -0.0210  0.5348
 6959TIP3   OH242291   0.810   2.056   2.351 -1.0281  1.2711 -0.3023
 6959TIP3    H142292   0.776   2.039   2.263  0.1620  3.5614 -1.2875
 6959TIP3    H242293   0.810   2.151   2.359  0.4801  1.1722  1.5250
 6960TIP3   OH242294   4.407   2.717   6.071  0.1980  0.4836  0.0307
 6960TIP3    H142295   4.432   2.800   6.031  0.7270  0.9911  1.3615
 6960TIP3    H242296   4.365   2.742   6.154 -0.0592 -0.5528  0.2234
 6961TIP3   OH242297   4.852   5.256   3.992  0.0218  0.2497 -0.1157
 6961TIP3    H142298   4.834   5.226   3.903  2.5218 -0.4061 -0.4718
 6961TIP3    H242299   4.802   5.197   4.048 -2.5628  1.4096 -1.0189
 6962TIP3   OH242300   1.989   3.619  16.833 -0.0373 -0.1514 -0.0996
 6962TIP3    H142301   1.917   3.674  16.800  0.1425  0.2314  0.1382
 6962TIP3    H242302   1.998   3.644  16.925 -0.1304 -0.7788  0.0849
 6963TIP3   OH242303   1.933   2.045   3.315 -0.3203 -0.2502  0.6369
 6963TIP3    H142304   1.987   2.084   3.384  1.2156 -2.4654  0.8195
 6963TIP3    H242305   1.863   2.001   3.363 -0.6081  0.1748  0.6087
 6964TIP3   OH242306   3.135   3.490   5.563 -0.1748 -0.8976  0.1415
 6964TIP3    H142307   3.204   3.466   5.501 -0.4548  0.2769 -0.6309
 6964TIP3    H242308   3.173   3.467   5.649  0.0946 -2.8109 -0.4347
 6965TIP3   OH242309   1.265   0.602  12.583 -0.0411  0.2519 -0.1205
 6965TIP3    H142310   1.285   0.644  12.499  0.0694 -0.1485 -0.3009
 6965TIP3    H242311   1.173   0.578  12.577  0.0254  0.0145 -0.2254
 6966TIP3   OH242312   2.882   4.497   4.973 -0.0332  0.0874 -0.8128
 6966TIP3    H142313   2.971   4.488   4.938  0.2418  1.0221 -0.3710
 6966TIP3    H242314   2.884   4.578   5.024 -0.1641 -1.6466  2.1668
 6967TIP3   OH242315   6.627   5.910   0.437  0.6467  0.1973 -0.0734
 6967TIP3    H142316   6.638   5.911   0.532  3.8779  0.3992 -0.3501
 6967TIP3    H242317   6.676   5.986   0.406  0.6648 -0.5347 -1.9869
 6968TIP3   OH242318   3.817   0.363   4.227  0.3749 -0.9509  0.0984
 6968TIP3    H142319   3.755   0.395   4.162  1.8407 -0.1007 -0.9614
 6968TIP3    H242320   3.763   0.334   4.300 -1.2339  0.2091 -0.5675
 6969TIP3   OH242321   3.112   0.045  12.469 -0.6551  0.3162 -0.6933
 6969TIP3    H142322   3.025   0.016  12.497 -0.5644  0.4851 -0.2317
 6969TIP3    H242323   3.107   0.046  12.374 -1.1267  0.2193 -0.6738
 6970TIP3   OH242324   2.356   5.662   3.546  0.4534  0.2028 -0.0529
 6970TIP3    H142325   2.394   5.718   3.614  2.0021 -0.0309 -0.6755
 6970TIP3    H242326   2.390   5.698   3.464  0.7665 -1.0947 -0.5217
 6971TIP3   OH242327   5.233   2.393   2.905  0.1021  0.7620 -0.0827
 6971TIP3    H142328   5.268   2.431   2.824 -0.9902  3.1872  0.4967
 6971TIP3    H242329   5.138   2.389   2.890  0.1156 -1.5327  0.0363
 6972TIP3   OH242330   1.039   0.268   5.253  0.3849  0.2847  0.1528
 6972TIP3    H142331   1.040   0.174   5.271 -0.5382  0.1425 -0.5063
 6972TIP3    H242332   1.129   0.296   5.271  0.0847 -0.2251  2.8499
 6973TIP3   OH242333   4.362   3.677   2.841 -0.3619  0.7769 -0.6227
 6973TIP3    H142334   4.378   3.602   2.784  1.2001 -0.5055  1.3511
 6973TIP3    H242335   4.450   3.707   2.866 -0.9699  1.1705  1.1966
 6974TIP3   OH242336   5.801   6.760   0.593  0.7455 -0.3514  0.5435
 6974TIP3    H142337   5.816   6.808   0.512  1.1330  1.5918  1.6993
 6974TIP3    H242338   5.706   6.745   0.595  0.6829 -0.0465 -0.0775
 6975TIP3   OH242339   1.981   6.355  16.263 -1.1083 -0.0952  0.0849
 6975TIP3    H142340   1.967   6.364  16.168 -0.2259 -1.5096 -0.2140
 6975TIP3    H242341   1.903   6.308  16.293 -0.8479 -0.6869 -0.1503
 6976TIP3   OH242342   1.352   2.692   2.191 -0.3213 -0.3145 -0.2404
 6976TIP3    H142343   1.442   2.666   2.211 -0.1644  0.1986 -0.2584
 6976TIP3    H242344   1.352   2.704   2.096 -0.0694  0.9199 -0.0944
 6977TIP3   OH242345   1.462   4.334   5.218 -0.0687 -0.6325  0.2678
 6977TIP3    H142346   1.456   4.240   5.238  0.9285 -0.7705  0.0181
 6977TIP3    H242347   1.474   4.337   5.123  0.8707 -0.3249  0.3824
 6978TIP3   OH242348   3.631   1.802   6.053  0.2386 -0.4876 -0.1294
 6978TIP3    H142349   3.574   1.769   6.123  0.3285 -0.5247 -0.0739
 6978TIP3    H242350   3.716   1.814   6.095  0.2482 -0.3423 -0.1893
 6979TIP3   OH242351   0.337   2.172   4.745  0.0270 -0.6765  0.1903
 6979TIP3    H142352   0.330   2.096   4.803  0.1301 -0.1230  0.9467
 6979TIP3    H242353   0.409   2.224   4.782 -1.2868  0.7476  0.8308
 6980TIP3   OH242354   2.458   0.441   3.606 -0.0222  0.4140 -0.4545
 6980TIP3    H142355   2.553   0.427   3.610  0.0383  0.5661 -1.2396
 6980TIP3    H242356   2.428   0.423   3.695  0.5216 -1.1959 -0.5697
 6981TIP3   OH242357   2.921   5.846   1.694 -0.1248 -0.5094 -0.1891
 6981TIP3    H142358   2.931   5.941   1.698  0.9209 -0.6300  0.3803
 6981TIP3    H242359   2.990   5.813   1.751 -0.5750 -1.6078 -0.2716
 6982TIP3   OH242360   2.611   2.157   4.162  0.1232 -0.1166  0.3239
 6982TIP3    H142361   2.570   2.194   4.241  1.0039 -0.7979  1.1175
 6982TIP3    H242362   2.675   2.223   4.135  0.1040 -0.0651  0.4024
 6983TIP3   OH242363   1.314   1.303   0.821  0.2823  0.1797  0.1072
 6983TIP3    H142364   1.337   1.336   0.908 -0.1653 -1.6921  0.9853
 6983TIP3    H242365   1.238   1.354   0.795 -0.4981 -0.2246  1.5013
 6984TIP3   OH242366   2.487   2.784   4.829 -0.3051 -0.2085  0.3101
 6984TIP3    H142367   2.558   2.832   4.787  0.1502  0.6454  1.9785
 6984TIP3    H242368   2.526   2.701   4.857 -0.5568 -0.6894 -0.7231
 6985TIP3   OH242369   3.522   6.441  12.030 -0.2279  0.6335  0.1797
 6985TIP3    H142370   3.436   6.475  12.056  0.0033  0.3561  1.3463
 6985TIP3    H242371   3.502   6.364  11.977 -0.7092  1.3888 -0.7890
 6986TIP3   OH242372   5.735   1.022  17.140  0.7349  0.2162  0.3551
 6986TIP3    H142373   5.722   1.095  17.200 -0.0971  0.7344 -0.4271
 6986TIP3    H242374   5.806   1.050  17.083 -1.3626  1.7038 -1.7535
 6987TIP3   OH242375   0.083   5.555   4.610 -0.8663  1.1220  0.1057
 6987TIP3    H142376   0.098   5.539   4.703  1.8688  0.7308 -0.3035
 6987TIP3    H242377   0.105   5.647   4.598  0.9098  0.6686 -0.4453
 6988TIP3   OH242378   5.010   3.130  15.644  0.1530 -1.2314 -0.4692
 6988TIP3    H142379   5.093   3.169  15.671 -0.1777 -1.2641  0.6605
 6988TIP3    H242380   5.032   3.077  15.568  0.7819  0.3651 -1.4277
 6989TIP3   OH242381   4.028   5.565   3.589 -0.0754  0.3267 -0.9045
 6989TIP3    H142382   4.071   5.573   3.504 -0.3748 -0.6597 -1.1655
 6989TIP3    H242383   3.941   5.602   3.576  0.8644  3.0319 -0.1740
 6990TIP3   OH242384   1.503   2.313  10.774 -0.2448 -0.2098  0.0210
 6990TIP3    H142385   1.471   2.259  10.846 -2.0436  1.5077  0.6093
 6990TIP3    H242386   1.433   2.310  10.708  1.5677 -2.1555 -2.0001
 6991TIP3   OH242387   3.518   3.706  12.155  0.0019  0.2054  0.1466
 6991TIP3    H142388   3.596   3.703  12.100  0.0695  2.1044  0.0731
 6991TIP3    H242389   3.451   3.660  12.104 -0.0355  2.2102 -1.7463
 6992TIP3   OH242390   0.585   4.684   5.636 -0.5445 -0.2462 -0.1918
 6992TIP3    H142391   0.641   4.686   5.713 -1.2250 -3.3970  0.5173
 6992TIP3    H242392   0.613   4.759   5.584  2.4073 -0.0877  1.4058
 6993TIP3   OH242393   0.913   2.507   0.866 -0.0650  0.3997  0.0673
 6993TIP3    H142394   0.882   2.576   0.807 -1.1401 -0.2775 -0.1917
 6993TIP3    H242395   0.870   2.428   0.835  1.4935 -0.4901  0.0918
 6994TIP3   OH242396   6.092   4.259  17.178  0.3168  0.2809  0.0667
 6994TIP3    H142397   6.181   4.288  17.164  0.6137 -0.1345  0.9877
 6994TIP3    H242398   6.045   4.337  17.209  0.1872  0.6556 -1.0287
 6995TIP3   OH242399   5.126   6.628   2.183  0.3169 -0.9374 -0.3949
 6995TIP3    H142400   5.215   6.664   2.188 -0.6947  1.6312  0.6086
 6995TIP3    H242401   5.084   6.656   2.264 -2.4225  0.9981 -2.2854
 6996TIP3   OH242402   1.199   6.706  14.098 -0.4668  0.0988 -0.8368
 6996TIP3    H142403   1.112   6.715  14.136  0.4894  0.9724  1.3264
 6996TIP3    H242404   1.184   6.666  14.013 -3.1005  1.4848 -1.1400
 6997TIP3   OH242405   5.504   2.699   5.063 -0.0512 -0.5876  0.2925
 6997TIP3    H142406   5.516   2.794   5.074  1.9521 -0.9138  1.2589
 6997TIP3    H242407   5.524   2.683   4.971  0.6496 -0.2009  0.3707
 6998TIP3   OH242408   0.821   3.653   3.045  0.0557 -0.4310 -0.8150
 6998TIP3    H142409   0.810   3.633   2.952  1.7372 -1.9984 -0.7414
 6998TIP3    H242410   0.901   3.706   3.048 -0.8620  0.9778 -0.3778
 6999TIP3   OH242411   2.062   1.638  14.118 -0.3134 -0.1939  0.2328
 6999TIP3    H142412   2.118   1.677  14.051 -0.4212  0.5391  0.5663
 6999TIP3    H242413   2.002   1.581  14.069  1.3706 -1.8474 -0.0532
 7000TIP3   OH242414   0.418   3.876  11.200 -0.3107  0.0106  0.3159
 7000TIP3    H142415   0.338   3.928  11.212  0.0378  0.4909  0.6131
 7000TIP3    H242416   0.396   3.790  11.236 -1.2537 -0.3998 -1.1765
 7001TIP3   OH242417   0.724   3.813  10.589 -0.1284  0.6319 -0.9378
 7001TIP3    H142418   0.802   3.772  10.552  0.6722  0.2518  1.0027
 7001TIP3    H242419   0.656   3.800  10.524  0.7227 -1.5873 -1.4864
 7002TIP3   OH242420   3.148   2.337  13.948  0.0412 -0.4830  0.4481
 7002TIP3    H142421   3.078   2.336  13.882 -0.0457  0.4048  0.5160
 7002TIP3    H242422   3.104   2.318  14.031 -0.1565  0.2199  0.5126
 7003TIP3   OH242423   5.080   1.067   4.943  0.3307 -0.0727 -0.2228
 7003TIP3    H142424   5.036   1.077   5.027 -0.6473 -0.4722 -0.6709
 7003TIP3    H242425   5.076   1.154   4.903  1.5445  0.3304  0.4740
 7004TIP3   OH242426   5.938   6.257  10.888  0.5795  0.5538  0.1406
 7004TIP3    H142427   5.919   6.206  10.810  1.7261  0.2849  0.0120
 7004TIP3    H242428   5.885   6.216  10.957 -1.6387  1.7596 -0.7687
 7005TIP3   OH242429   5.300   4.619  14.350  0.2491  0.0099  0.5213
 7005TIP3    H142430   5.336   4.545  14.301 -0.3091 -0.3563  0.6559
 7005TIP3    H242431   5.316   4.695  14.294 -1.1157 -0.5046 -0.6385
 7006TIP3   OH242432   4.135   5.225  14.912  0.0657  0.2100 -0.4075
 7006TIP3    H142433   4.201   5.294  14.916 -0.6745  0.9672 -0.8588
 7006TIP3    H242434   4.157   5.167  14.984  1.4634  0.2169 -0.7809
 7007TIP3   OH242435   5.643   3.893  15.679  0.0961  0.2579 -0.3819
 7007TIP3    H142436   5.642   3.864  15.588 -2.1743  3.9462 -1.7645
 7007TIP3    H242437   5.555   3.930  15.694  1.0892  1.7815  2.5644
 7008TIP3   OH242438   5.175   4.674   1.966 -0.7131 -0.0385  0.0828
 7008TIP3    H142439   5.166   4.675   2.061 -3.7126  2.8104 -0.0362
 7008TIP3    H242440   5.115   4.606   1.937  0.0986 -0.8119  0.1702
 7009TIP3   OH242441   1.935   0.097   2.109  0.4081 -0.2781  0.5910
 7009TIP3    H142442   2.028   0.075   2.114  0.4815  0.0911  0.9026
 7009TIP3    H242443   1.912   0.083   2.017  0.6515 -0.8381  0.6085
 7010TIP3   OH242444   2.688   2.601   2.080  0.2488 -0.1919 -0.0826
 7010TIP3    H142445   2.742   2.561   2.148 -1.0895  0.5330  1.4754
 7010TIP3    H242446   2.616   2.539   2.067  0.5541 -0.3801 -0.9550
 7011TIP3   OH242447   5.340   6.382  15.428  0.5995  0.6197 -0.1091
 7011TIP3    H142448   5.264   6.418  15.472 -0.2341 -0.9773 -0.1724
 7011TIP3    H242449   5.361   6.446  15.360  0.2166  1.7696  0.8237
 7012TIP3   OH242450   6.312   1.356  11.946 -0.4155 -0.0344 -0.7928
 7012TIP3    H142451   6.347   1.413  11.877 -0.7714  1.6151  0.3450
 7012TIP3    H242452   6.253   1.412  11.997  0.0411 -1.1118  1.0241
 7013TIP3   OH242453   1.863   1.222  11.341 -0.3363  0.0399  0.2631
 7013TIP3    H142454   1.814   1.293  11.299 -1.0107 -0.4115  0.2665
 7013TIP3    H242455   1.801   1.184  11.403 -0.2188 -0.9919 -0.2296
 7014TIP3   OH242456   2.949   5.299  16.776 -0.5914 -0.0445 -0.4684
 7014TIP3    H142457   2.896   5.300  16.856  1.0135 -0.7911  0.6818
 7014TIP3    H242458   2.945   5.389  16.744 -3.9594 -0.4364 -1.4988
 7015TIP3   OH242459   6.298   2.928   5.055 -0.2507 -0.9165 -0.3298
 7015TIP3    H142460   6.358   2.867   5.011  0.3043 -0.3059 -0.4456
 7015TIP3    H242461   6.350   3.008   5.065 -0.3462 -1.0471  1.4764
 7016TIP3   OH242462   6.397   0.071  16.456 -0.3864 -0.2581 -0.2497
 7016TIP3    H142463   6.348   0.154  16.459  2.2940  1.4291  1.2331
 7016TIP3    H242464   6.349   0.018  16.393 -2.1611  2.4802 -1.4340
 7017TIP3   OH242465   4.440   6.245   3.152 -0.3035 -0.5352  0.2100
 7017TIP3    H142466   4.372   6.264   3.087  0.0568 -0.0064 -0.0153
 7017TIP3    H242467   4.521   6.239   3.101  0.0963  0.5965  0.6892
 7018TIP3   OH242468   6.623   4.190   3.328 -0.4461 -0.0276 -0.5902
 7018TIP3    H142469   6.676   4.119   3.367  0.0717  0.1989 -0.8703
 7018TIP3    H242470   6.618   4.167   3.235  0.1008  0.5242 -0.7665
 7019TIP3   OH242471   3.160   3.985   1.012  0.4886 -0.0653 -0.0062
 7019TIP3    H142472   3.155   3.910   1.071 -1.1255 -0.1355 -0.1930
 7019TIP3    H242473   3.143   4.061   1.068 -2.4193 -0.2246 -0.4813
 7020TIP3   OH242474   1.101   5.873  12.284 -0.0593  0.4053  0.4861
 7020TIP3    H142475   1.119   5.803  12.347 -2.5926  0.2160  1.0981
 7020TIP3    H242476   1.042   5.932  12.330 -0.1350  1.4995 -0.9570
 7021TIP3   OH242477   0.545   5.554   2.235 -0.1121  0.2493  0.3132
 7021TIP3    H142478   0.625   5.510   2.206 -0.8389 -0.4739 -0.7004
 7021TIP3    H242479   0.494   5.566   2.154  0.4436  3.8857  0.3321
 7022TIP3   OH242480   5.944   2.541   1.559  0.1617  0.1021  0.2915
 7022TIP3    H142481   5.912   2.600   1.627  1.1763  0.6236  0.3265
 7022TIP3    H242482   5.864   2.509   1.516 -0.4775  0.0627  1.4612
 7023TIP3   OH242483   5.060   3.518   1.255 -0.0663 -0.4115  0.6236
 7023TIP3    H142484   5.069   3.430   1.219 -2.5636 -0.6555  0.4475
 7023TIP3    H242485   5.119   3.519   1.331 -0.3716 -2.4012  0.9428
 7024TIP3   OH242486   1.186   4.660  14.713 -0.2335  0.3163  0.0223
 7024TIP3    H142487   1.103   4.689  14.751 -0.1943  0.6102 -0.1127
 7024TIP3    H242488   1.182   4.565  14.716  0.0360  0.3399  1.3205
 7025TIP3   OH242489   5.557   2.913   4.130  0.4026  0.3241 -0.4589
 7025TIP3    H142490   5.493   2.850   4.095 -0.9288  2.1918 -1.5756
 7025TIP3    H242491   5.637   2.897   4.078 -0.4828  0.7158 -2.0081
 7026TIP3   OH242492   4.535   6.070   2.577 -0.2606 -0.0072  0.3733
 7026TIP3    H142493   4.523   6.122   2.497  1.1699  1.6803  1.1976
 7026TIP3    H242494   4.594   5.999   2.551 -2.0279 -1.1882 -0.6955
 7027TIP3   OH242495   4.116   0.760  16.755  0.7792  0.1236  0.4125
 7027TIP3    H142496   4.175   0.776  16.829  1.1340 -0.8012  0.3471
 7027TIP3    H242497   4.100   0.665  16.757  0.0893  0.2193 -0.1683
 7028TIP3   OH242498   5.950   1.053   2.878  0.2061  0.2365 -0.1045
 7028TIP3    H142499   5.880   1.046   2.813 -0.8415  1.7416  0.8036
 7028TIP3    H242500   6.023   1.092   2.831 -0.2285  0.4582 -0.6069
 7029TIP3   OH242501   0.100   5.748   1.629  0.1902 -0.0550 -0.5444
 7029TIP3    H142502   0.120   5.824   1.683  1.1330 -1.1830  0.7745
 7029TIP3    H242503   0.179   5.733   1.578 -0.7119  1.0314 -2.3592
 7030TIP3   OH242504   6.686   3.311   4.769 -0.3156  0.1552  0.2790
 7030TIP3    H142505   6.677   3.377   4.837  1.7982  1.3744 -0.5119
 7030TIP3    H242506   6.727   3.236   4.813 -0.5238  0.2893  0.6990
 7031TIP3   OH242507   4.675   6.565  16.389  0.1742 -0.2861  0.9615
 7031TIP3    H142508   4.753   6.518  16.418  0.9761  0.2729 -0.2112
 7031TIP3    H242509   4.625   6.582  16.470  2.1773  0.9751  2.0071
 7032TIP3   OH242510   2.492   4.933  13.823 -0.9417 -0.0094  0.1199
 7032TIP3    H142511   2.401   4.940  13.852 -0.6422 -0.1266  1.1122
 7032TIP3    H242512   2.518   4.844  13.846 -0.6701 -0.0861 -0.4673
 7033TIP3   OH242513   3.262   0.376  16.685 -0.4038  0.1197 -0.8567
 7033TIP3    H142514   3.307   0.293  16.667 -2.6223 -1.0554 -1.4857
 7033TIP3    H242515   3.208   0.357  16.762 -1.4307  0.7308 -1.3999
 7034TIP3   OH242516   2.786   4.812   4.111  0.0120 -0.3529 -0.2762
 7034TIP3    H142517   2.851   4.836   4.046 -1.5486  0.7804 -1.5130
 7034TIP3    H242518   2.797   4.718   4.124  2.4590 -0.0409  0.2748
 7035TIP3   OH242519   1.640   4.761  10.945 -0.0414 -0.7898 -0.0007
 7035TIP3    H142520   1.615   4.815  10.870  1.9124  1.2638  0.7262
 7035TIP3    H242521   1.730   4.735  10.927  0.0701 -1.2332  1.1183
 7036TIP3   OH242522   5.078   0.284   3.063 -0.2539 -0.3904  0.2470
 7036TIP3    H142523   5.057   0.222   2.994 -0.9765 -0.0701  0.1634
 7036TIP3    H242524   5.153   0.245   3.109  0.7467 -0.2258 -1.1858
 7037TIP3   OH242525   4.869   3.912   1.060  0.4675  0.5720 -0.5802
 7037TIP3    H142526   4.776   3.917   1.082  0.2370 -0.4760 -1.3097
 7037TIP3    H242527   4.913   3.945   1.139 -0.4405 -0.8733  0.5772
 7038TIP3   OH242528   3.716   1.608   2.582  0.2363 -0.4467  0.3148
 7038TIP3    H142529   3.636   1.556   2.587  0.2082 -0.3121  3.9873
 7038TIP3    H242530   3.702   1.681   2.642  1.8499  1.6202 -1.6125
 7039TIP3   OH242531   3.103   4.724   3.183 -0.3572 -0.5795 -0.1125
 7039TIP3    H142532   3.188   4.707   3.143 -0.2906 -0.9870  0.1873
 7039TIP3    H242533   3.065   4.794   3.131  0.6930  0.4762  0.4994
 7040TIP3   OH242534   5.566   6.758  11.698  0.0370  0.8273 -0.0038
 7040TIP3    H142535   5.494   6.819  11.715 -1.5004 -1.2187  1.3582
 7040TIP3    H242536   5.597   6.732  11.785 -0.3605 -1.3906 -0.4637
 7041TIP3   OH242537   4.490   1.640   4.309 -0.0995 -0.6307  0.0984
 7041TIP3    H142538   4.514   1.549   4.323  0.0670 -0.4089  1.3173
 7041TIP3    H242539   4.532   1.688   4.380 -0.5978  0.3376 -0.2335
 7042TIP3   OH242540   2.313   1.698  16.273  0.0229 -0.1240 -0.1107
 7042TIP3    H142541   2.241   1.761  16.269 -0.4426 -0.6002  0.5300
 7042TIP3    H242542   2.364   1.725  16.350  1.2227  0.9221 -1.2304
 7043TIP3   OH242543   0.476   3.719   1.783 -0.4703 -0.5525 -0.1361
 7043TIP3    H142544   0.468   3.794   1.724  0.7541 -0.4510 -0.2167
 7043TIP3    H242545   0.531   3.657   1.734  0.2177 -0.6353  0.7182
 7044TIP3   OH242546   5.598   0.720  14.450 -0.1254 -0.1856 -0.1173
 7044TIP3    H142547   5.566   0.798  14.406  0.0508  0.3353  0.6686
 7044TIP3    H242548   5.520   0.664  14.459 -0.4807  0.3663  0.2933
 7045TIP3   OH242549   2.212   1.031  15.262  0.2580  0.1036  0.2932
 7045TIP3    H142550   2.207   0.940  15.291  1.2360 -0.3945 -0.9681
 7045TIP3    H242551   2.295   1.036  15.214  0.5855  1.8588  0.9664
 7046TIP3   OH242552   0.555   2.934   5.057  0.3030  0.4835  0.2908
 7046TIP3    H142553   0.637   2.897   5.025  0.1989 -0.3529  0.9535
 7046TIP3    H242554   0.547   2.901   5.146  0.6824  2.8850  1.3037
 7047TIP3   OH242555   1.604   1.134  10.940  0.2233 -0.9724  0.3950
 7047TIP3    H142556   1.566   1.222  10.948 -1.2706 -1.6226  0.6334
 7047TIP3    H242557   1.644   1.133  10.853 -0.1353 -0.2113  0.2136
 7048TIP3   OH242558   3.441   0.597  15.281 -0.2554 -0.7271  0.4571
 7048TIP3    H142559   3.495   0.520  15.265 -0.3342 -1.2284  2.4532
 7048TIP3    H242560   3.491   0.650  15.343 -1.2974 -0.3929  1.0371
 7049TIP3   OH242561   6.438   6.502   2.936 -0.2577 -0.3479 -0.2624
 7049TIP3    H142562   6.425   6.561   2.862 -1.7628  0.0443  0.2634
 7049TIP3    H242563   6.526   6.466   2.924  0.5113  1.6052 -0.8941
 7050TIP3   OH242564   3.672   6.111  14.950  0.0615  0.4261  0.1957
 7050TIP3    H142565   3.684   6.025  14.909  0.5549  0.3987  0.3895
 7050TIP3    H242566   3.578   6.115  14.970 -0.2044  0.4778 -1.0012
 7051TIP3   OH242567   5.842   3.203   0.087  0.2803 -0.2751 -0.7177
 7051TIP3    H142568   5.883   3.125   0.125  0.0517 -0.7168 -1.3610
 7051TIP3    H242569   5.748   3.185   0.091  0.1578  0.5074  0.2686
 7052TIP3   OH242570   6.323   1.386   1.473  0.2521  0.3445 -0.4025
 7052TIP3    H142571   6.280   1.361   1.390 -0.1832 -0.7154  0.1189
 7052TIP3    H242572   6.265   1.451   1.511 -1.1793 -1.3568  0.4793
 7053TIP3   OH242573   2.620   2.191  14.396  1.3522  0.2429 -0.2979
 7053TIP3    H142574   2.581   2.133  14.331 -2.5610  0.9151  1.1795
 7053TIP3    H242575   2.645   2.270  14.347  2.5835 -0.8906 -1.5773
 7054TIP3   OH242576   5.157   2.075  10.796 -0.1089 -0.0742  1.0872
 7054TIP3    H142577   5.092   2.015  10.761  1.7118 -1.8651  0.5607
 7054TIP3    H242578   5.155   2.150  10.738  0.8003 -1.7122 -1.1918
 7055TIP3   OH242579   0.447   6.153  17.192 -0.0962  0.1462 -0.0151
 7055TIP3    H142580   0.407   6.068  17.175 -0.1562 -0.2586  1.9467
 7055TIP3    H242581   0.377   6.205  17.232  0.9771 -0.2706  2.5978
 7056TIP3   OH242582   4.533   2.135   2.418  0.1320 -0.3322  0.0613
 7056TIP3    H142583   4.623   2.167   2.432  0.1204  0.7940 -2.0102
 7056TIP3    H242584   4.479   2.191   2.474  0.5370  0.3486 -0.2163
 7057TIP3   OH242585   3.704   1.822   3.772 -0.1022  0.4242 -0.6525
 7057TIP3    H142586   3.659   1.739   3.787  0.6981  0.2803  1.1818
 7057TIP3    H242587   3.652   1.887   3.822  1.0191  0.4463  0.5416
 7058TIP3   OH242588   2.518   5.190   5.525  0.0474 -0.0797 -0.2063
 7058TIP3    H142589   2.551   5.166   5.439  0.4279  0.2590 -0.1572
 7058TIP3    H242590   2.591   5.236   5.567  0.3670 -1.4941  0.8467
 7059TIP3   OH242591   4.494   0.459  11.189  0.7466  0.0997  0.2329
 7059TIP3    H142592   4.556   0.430  11.122 -1.1914  0.5753 -1.8710
 7059TIP3    H242593   4.521   0.549  11.209  1.6198 -0.2052  0.4674
 7060TIP3   OH242594   6.592   4.482  16.399 -0.2319 -0.2383 -0.2193
 7060TIP3    H142595   6.553   4.397  16.417 -0.7851 -0.0823 -0.6850
 7060TIP3    H242596   6.670   4.463  16.346 -0.1547 -0.4779 -0.0194
 7061TIP3   OH242597   1.190   5.189   1.495 -0.0520 -0.2867  0.2833
 7061TIP3    H142598   1.136   5.111   1.504 -1.0755  0.4385  0.7270
 7061TIP3    H242599   1.280   5.158   1.505 -0.3902 -1.5029 -0.2794
 7062TIP3   OH242600   4.240   6.471  15.474 -0.4265 -0.5222 -0.0344
 7062TIP3    H142601   4.324   6.489  15.518 -0.9168 -2.2952  1.8046
 7062TIP3    H242602   4.187   6.548  15.491  0.9695  0.9065 -1.7526
 7063TIP3   OH242603   6.032   4.945   0.797 -1.1768  0.6147 -0.3182
 7063TIP3    H142604   6.033   4.947   0.701  2.2337 -2.0131 -0.5249
 7063TIP3    H242605   6.095   5.012   0.823  0.3559 -0.8447 -0.1436
 7064TIP3   OH242606   4.686   5.851   2.797 -0.2876  0.3225 -0.1474
 7064TIP3    H142607   4.758   5.795   2.826 -1.2922  0.0070  1.9414
 7064TIP3    H242608   4.718   5.940   2.811  1.1776  0.3550 -3.1358
 7065TIP3   OH242609   0.206   4.778  11.207 -0.3179  0.1489 -0.4438
 7065TIP3    H142610   0.218   4.762  11.301 -1.6863  0.8166 -0.1176
 7065TIP3    H242611   0.292   4.807  11.176  0.0941  0.1565  0.6569
 7066TIP3   OH242612   3.293   0.130   5.010 -0.0947 -0.4156 -0.0588
 7066TIP3    H142613   3.378   0.115   5.051  0.5613  2.3795 -0.2228
 7066TIP3    H242614   3.230   0.111   5.079  0.7623 -0.4489  0.7312
 7067TIP3   OH242615   1.137   2.985  11.225  0.2332  0.6336 -0.1067
 7067TIP3    H142616   1.057   3.027  11.192  0.1320 -0.2362 -1.0448
 7067TIP3    H242617   1.108   2.897  11.250  0.8338  0.4198 -0.1640
 7068TIP3   OH242618   2.371   3.392  13.359  0.4984  0.1493 -0.2263
 7068TIP3    H142619   2.330   3.471  13.395  1.3906  0.8509 -0.7091
 7068TIP3    H242620   2.329   3.379  13.274 -1.8623 -1.7087  1.0872
 7069TIP3   OH242621   6.076   2.021  15.738 -0.0468 -0.1737 -0.2328
 7069TIP3    H142622   6.071   2.116  15.742  0.8749 -0.0714 -1.0958
 7069TIP3    H242623   6.003   1.990  15.792 -0.5723  1.0171 -0.2470
 7070TIP3   OH242624   2.998   5.708   6.664 -0.4732 -0.6552 -0.3022
 7070TIP3    H142625   2.997   5.686   6.571 -2.2178 -0.4130 -0.3821
 7070TIP3    H242626   3.091   5.719   6.686 -0.0824  0.6106 -2.3330
 7071TIP3   OH242627   2.587   4.923  15.218 -0.1927 -0.0435  0.4558
 7071TIP3    H142628   2.520   4.966  15.270 -0.6855 -2.2209  1.7542
 7071TIP3    H242629   2.666   4.927  15.272  0.7417  2.2222 -0.9265
 7072TIP3   OH242630   6.686   6.195  15.061  0.1097 -0.7338 -0.5430
 7072TIP3    H142631   6.666   6.228  14.974 -1.3143 -1.3432 -0.4685
 7072TIP3    H242632   6.620   6.128  15.078  2.3646 -3.1009 -0.3693
 7073TIP3   OH242633   2.159   1.236   4.445 -0.4640 -0.7910 -0.0293
 7073TIP3    H142634   2.091   1.174   4.419 -0.8709 -1.0875  1.6284
 7073TIP3    H242635   2.117   1.290   4.512  1.1908 -1.6911  1.8594
 7074TIP3   OH242636   1.818   5.190  17.152  0.2247  0.3771  0.6620
 7074TIP3    H142637   1.883   5.234  17.207 -0.6143  0.5861  1.5098
 7074TIP3    H242638   1.734   5.225  17.182 -0.3239 -0.3965  0.0529
 7075TIP3   OH242639   4.693   0.779   1.044  0.2501 -0.1572 -0.1304
 7075TIP3    H142640   4.675   0.800   0.952  2.4453 -0.6195 -0.7360
 7075TIP3    H242641   4.695   0.864   1.088  0.3100  0.1678 -0.7403
 7076TIP3   OH242642   3.474   1.785  13.891  0.0175 -0.0875  0.0206
 7076TIP3    H142643   3.549   1.727  13.907 -0.8458 -1.3543 -0.3135
 7076TIP3    H242644   3.398   1.727  13.900 -0.8659  0.9255 -0.7314
 7077TIP3   OH242645   6.491   0.815  14.689 -0.7345 -0.5613  0.6693
 7077TIP3    H142646   6.467   0.740  14.635 -2.6428  1.6263 -1.7622
 7077TIP3    H242647   6.536   0.776  14.764 -0.3988 -3.9939 -1.0891
 7078TIP3   OH242648   5.088   5.837   2.278  0.0428 -0.4863  0.1032
 7078TIP3    H142649   5.136   5.770   2.230  1.7661  0.1724  0.8294
 7078TIP3    H242650   5.121   5.831   2.368  1.5656  2.4263 -0.1400
 7079TIP3   OH242651   4.894   6.457  16.484  0.2536 -0.1052  0.6338
 7079TIP3    H142652   4.970   6.498  16.443 -0.4851  0.5002 -0.1760
 7079TIP3    H242653   4.920   6.445  16.575  1.2905  0.1628  0.3942
 7080TIP3   OH242654   3.744   1.152  11.517 -0.1440  0.2126  0.5304
 7080TIP3    H142655   3.670   1.158  11.577  0.3585 -3.1764  1.7038
 7080TIP3    H242656   3.728   1.221  11.452 -2.9038  1.2803  2.1629
 7081TIP3   OH242657   5.749   5.494  12.125 -0.1228  0.2863  0.3752
 7081TIP3    H142658   5.814   5.565  12.128  0.6217 -0.3416 -0.4428
 7081TIP3    H242659   5.671   5.534  12.087  0.2979  0.6713 -0.0972
 7082TIP3   OH242660   3.826   1.796   1.068  0.1739 -0.3031  0.8586
 7082TIP3    H142661   3.733   1.773   1.065 -0.1930  1.1543 -0.9987
 7082TIP3    H242662   3.829   1.879   1.115  0.6231 -0.6374  1.4301
 7083TIP3   OH242663   4.590   1.480   0.232  0.1356 -0.0970  0.0555
 7083TIP3    H142664   4.651   1.551   0.246  0.4678 -0.5761  1.2331
 7083TIP3    H242665   4.640   1.401   0.251 -0.0746 -0.6950 -1.7641
 7084TIP3   OH242666   1.864   5.406   1.578  0.5587 -0.3828  0.1929
 7084TIP3    H142667   1.940   5.387   1.634  1.3784 -2.5325 -1.5152
 7084TIP3    H242668   1.802   5.336   1.597  0.1928 -0.2363 -0.4332
 7085TIP3   OH242669   2.118   1.424   1.190  0.3588 -0.2793 -0.0264
 7085TIP3    H142670   2.088   1.363   1.258  0.7115 -0.8199 -0.3519
 7085TIP3    H242671   2.080   1.508   1.216 -0.6538 -0.7497  0.0887
 7086TIP3   OH242672   0.514   4.083  14.313  0.1936 -0.2812  0.5486
 7086TIP3    H142673   0.453   4.106  14.383 -0.2839 -0.5589  0.2335
 7086TIP3    H242674   0.595   4.130  14.334 -0.1703  0.1891  0.9058
 7087TIP3   OH242675   0.439   6.038   2.321  0.3186 -0.7684 -0.1528
 7087TIP3    H142676   0.433   6.016   2.228  0.6033 -2.2259  0.1511
 7087TIP3    H242677   0.473   5.959   2.362 -1.4512 -0.7634  1.4552
 7088TIP3   OH242678   6.693   3.985  13.287 -0.0849  0.2896 -0.8002
 7088TIP3    H142679   6.701   3.955  13.377  0.9748  0.2538 -0.9040
 7088TIP3    H242680   6.600   3.973  13.267  0.1772 -2.4969 -0.6891
 7089TIP3   OH242681   2.991   0.111   3.949  0.0556 -0.5023  0.2371
 7089TIP3    H142682   3.049   0.120   3.874 -0.8479  0.4164 -0.3869
 7089TIP3    H242683   2.998   0.018   3.974  0.1489 -0.9047 -1.1812
 7090TIP3   OH242684   3.285   5.799   0.889  0.1274  0.2013 -0.3587
 7090TIP3    H142685   3.224   5.866   0.919 -1.7366 -1.3806 -0.4541
 7090TIP3    H242686   3.329   5.769   0.969 -0.4708  0.1705 -0.0374
 7091TIP3   OH242687   4.569   2.126  11.554 -0.0597 -0.1410  0.2309
 7091TIP3    H142688   4.660   2.152  11.539 -0.0154 -0.9790 -1.0268
 7091TIP3    H242689   4.540   2.185  11.624  0.9802  1.1805 -0.3933
 7092TIP3   OH242690   5.144   5.081  11.098  0.1667 -0.1998 -0.0552
 7092TIP3    H142691   5.215   5.036  11.145  0.5660  0.2223 -0.2445
 7092TIP3    H242692   5.145   5.042  11.011 -0.5279 -0.9330  0.2460
 7093TIP3   OH242693   5.570   5.279   6.005  0.5133 -0.4745 -0.1822
 7093TIP3    H142694   5.640   5.303   6.066  1.2861  0.4334 -1.3755
 7093TIP3    H242695   5.505   5.349   6.015 -0.3661 -1.4322  1.0850
 7094TIP3   OH242696   5.898   5.364  14.504  0.3248  0.2045 -0.4541
 7094TIP3    H142697   5.924   5.379  14.413  0.5254  0.6261 -0.3269
 7094TIP3    H242698   5.972   5.316  14.542 -0.6888 -2.0064 -1.1049
 7095TIP3   OH242699   4.706   4.699   1.262  0.0598 -1.2350 -0.3094
 7095TIP3    H142700   4.707   4.794   1.255  2.7019 -1.1681 -0.0440
 7095TIP3    H242701   4.699   4.669   1.171  1.1092 -0.7390 -0.5726
 7096TIP3   OH242702   5.733   2.194  17.012 -0.2813 -0.4600 -0.0007
 7096TIP3    H142703   5.806   2.153  17.057 -0.5790 -0.2483  0.6842
 7096TIP3    H242704   5.660   2.190  17.074 -1.7664 -3.3314 -1.6705
 7097TIP3   OH242705   0.022   1.469   0.137  0.1185  0.6727 -0.1392
 7097TIP3    H142706   0.061   1.431   0.216  2.7553 -0.3331 -1.7957
 7097TIP3    H242707   0.075   1.546   0.118 -1.8008  2.1665  0.1224
 7098TIP3   OH242708   5.908   3.875   4.494 -0.0488  0.1259 -0.1189
 7098TIP3    H142709   5.918   3.967   4.519  0.9191 -0.5449  2.2332
 7098TIP3    H242710   5.849   3.838   4.560  1.3736 -1.4154  0.3670
 7099TIP3   OH242711   3.337   5.057  12.008 -0.1321 -0.2108  0.3743
 7099TIP3    H142712   3.273   5.004  11.960 -0.1388  0.0532  0.0898
 7099TIP3    H242713   3.367   5.121  11.944 -0.8148  0.7279  0.9695
 7100TIP3   OH242714   2.784   4.103   2.189 -0.5013  0.3553  0.4256
 7100TIP3    H142715   2.836   4.039   2.139 -1.7467 -0.0668 -0.3819
 7100TIP3    H242716   2.716   4.131   2.128  0.5453  3.2172  0.4266
 7101TIP3   OH242717   1.796   0.421  14.107  0.0903  0.2569 -0.0123
 7101TIP3    H142718   1.780   0.489  14.171 -0.5782  0.2352 -0.1517
 7101TIP3    H242719   1.874   0.450  14.059  0.9920 -0.0387  1.2216
 7102TIP3   OH242720   2.277   5.843  13.978  0.4541  0.3494  0.2292
 7102TIP3    H142721   2.292   5.882  14.065 -1.6994 -0.2826  0.9584
 7102TIP3    H242722   2.212   5.774  13.994  1.1272 -0.8086 -1.6774
 7103TIP3   OH242723   3.314   5.161   3.713  0.4562 -0.4400  0.3487
 7103TIP3    H142724   3.404   5.130   3.724  0.8651  0.7568  0.5288
 7103TIP3    H242725   3.323   5.253   3.692 -0.7487 -0.1950  0.8248
 7104TIP3   OH242726   0.947   0.394   0.728  0.0174  0.1704 -0.0079
 7104TIP3    H142727   0.900   0.329   0.780 -1.6823  1.0944 -0.3135
 7104TIP3    H242728   0.971   0.462   0.790 -0.3684  0.3977 -0.1059
 7105TIP3   OH242729   2.608   2.875  16.315  0.7543  0.2325  0.1665
 7105TIP3    H142730   2.521   2.914  16.304  0.5142  0.3657  2.2346
 7105TIP3    H242731   2.611   2.804  16.251 -1.0393 -0.0497  0.3587
 7106TIP3   OH242732   0.798   4.880  11.081 -0.5983  0.0795  0.1289
 7106TIP3    H142733   0.821   4.810  11.020 -1.3549 -0.1093  0.0508
 7106TIP3    H242734   0.880   4.901  11.126 -0.4543 -1.2270  0.5349
 7107TIP3   OH242735   5.984   4.315   4.178 -0.2360  0.3141 -0.6154
 7107TIP3    H142736   6.028   4.235   4.207  2.0372  1.5503 -0.4741
 7107TIP3    H242737   5.960   4.297   4.087 -1.0906 -1.0285 -0.1595
 7108TIP3   OH242738   4.111   5.152  10.898 -0.3366  0.5558  0.1323
 7108TIP3    H142739   4.207   5.155  10.899 -0.3671  1.8209  1.1023
 7108TIP3    H242740   4.083   5.243  10.906 -1.6523  0.3673 -1.7374
 7109TIP3   OH242741   1.792   0.538   1.053  0.8668 -0.6271 -0.2516
 7109TIP3    H142742   1.831   0.451   1.054  1.6307 -0.2909 -0.0654
 7109TIP3    H242743   1.718   0.533   1.113  1.0577 -1.0745 -0.0541
 7110TIP3   OH242744   5.573   0.773   0.101  0.4237 -0.2181  0.0680
 7110TIP3    H142745   5.523   0.694   0.123 -0.2490  0.0933 -0.3305
 7110TIP3    H242746   5.519   0.845   0.132  1.2111  0.0918  0.7726
 7111TIP3   OH242747   3.528   1.710   1.754  0.0423 -0.0898  0.1427
 7111TIP3    H142748   3.490   1.686   1.669  0.1580 -1.8990  0.5833
 7111TIP3    H242749   3.557   1.801   1.741 -1.9030  0.4318 -1.0603
 7112TIP3   OH242750   2.091   6.247   4.425  0.6624  0.0843  0.2293
 7112TIP3    H142751   2.103   6.299   4.505  2.9703 -0.6664  0.4562
 7112TIP3    H242752   2.143   6.293   4.359  0.5276 -0.4675 -0.2643
 7113TIP3   OH242753   5.401   0.948   4.371  0.0857 -0.5979  0.5807
 7113TIP3    H142754   5.430   1.016   4.433  0.8598  0.4071 -0.8181
 7113TIP3    H242755   5.332   0.901   4.418  1.4431 -0.6587  2.6557
 7114TIP3   OH242756   1.666   3.797  16.504  0.2072  0.2956  0.2717
 7114TIP3    H142757   1.704   3.711  16.487  0.2889  0.0787  1.4260
 7114TIP3    H242758   1.689   3.850  16.428 -0.3058 -0.8455 -0.7078
 7115TIP3   OH242759   5.417   2.043   1.914 -0.4783 -0.3014  0.1817
 7115TIP3    H142760   5.343   2.080   1.866  0.4907  2.7617  0.8135
 7115TIP3    H242761   5.399   2.063   2.005  0.9597  0.2707  0.3768
 7116TIP3   OH242762   6.753   0.702   3.031 -0.3147  0.2298 -0.4305
 7116TIP3    H142763   6.659   0.714   3.018 -0.0463  0.8426 -2.1002
 7116TIP3    H242764   6.791   0.718   2.945  1.3168 -0.1444  0.1826
 7117TIP3   OH242765   3.657   0.837   5.506 -0.0034  0.2445 -0.3883
 7117TIP3    H142766   3.697   0.916   5.471 -0.8359  0.3954 -1.0201
 7117TIP3    H242767   3.585   0.868   5.561 -0.8131 -0.0881 -1.2487
 7118TIP3   OH242768   5.402   0.271  11.915  0.3714  0.4279 -0.0405
 7118TIP3    H142769   5.364   0.195  11.959 -1.9059 -0.1967 -2.8114
 7118TIP3    H242770   5.494   0.247  11.900  0.1911 -0.9330  0.8492
 7119TIP3   OH242771   5.427   3.788   5.289 -0.1065  0.1322 -0.7290
 7119TIP3    H142772   5.448   3.706   5.245  1.5881  0.0631  0.1135
 7119TIP3    H242773   5.440   3.855   5.223 -0.1584 -0.1594 -1.0395
 7120TIP3   OH242774   3.056   3.602   2.725 -0.1687  0.1810  0.0471
 7120TIP3    H142775   3.149   3.624   2.734 -0.1199 -0.2932  0.8167
 7120TIP3    H242776   3.035   3.624   2.634  0.2343  2.0067  0.3577
 7121TIP3   OH242777   4.137   0.811   5.906  0.6192  0.0895  0.2598
 7121TIP3    H142778   4.103   0.745   5.845  0.1271 -0.0097  0.6279
 7121TIP3    H242779   4.058   0.855   5.940  0.9564  1.1771 -0.3180
 7122TIP3   OH242780   1.721   6.016  14.551  0.0830  0.2508  0.3445
 7122TIP3    H142781   1.673   5.976  14.478  0.1216  0.0545  0.4263
 7122TIP3    H242782   1.799   6.054  14.511 -1.1633  2.4467 -0.1470
 7123TIP3   OH242783   2.706   1.420   3.529  0.1508 -0.1591 -0.1495
 7123TIP3    H142784   2.648   1.355   3.490 -1.0538 -2.0500  4.1302
 7123TIP3    H242785   2.654   1.499   3.534  0.0221 -0.1472 -1.4194
 7124TIP3   OH242786   4.362   0.908   3.236  0.7129 -0.7212  0.4445
 7124TIP3    H142787   4.386   0.957   3.157  2.8371 -2.7684 -0.3047
 7124TIP3    H242788   4.290   0.852   3.208  1.3471 -1.3179 -0.0406
 7125TIP3   OH242789   5.825   1.950   6.090 -0.1924  0.1103  0.1997
 7125TIP3    H142790   5.815   2.038   6.127 -0.9247  0.6253 -1.1647
 7125TIP3    H242791   5.918   1.931   6.099 -0.0577  0.9344  0.6991
 7126TIP3   OH242792   2.418   3.964   2.510  0.8461  0.0515  0.3072
 7126TIP3    H142793   2.351   3.902   2.539  0.3606  0.0686 -0.7164
 7126TIP3    H242794   2.382   4.050   2.530 -0.3115  0.1529 -1.8522
 7127TIP3   OH242795   4.112   2.781  17.161 -0.0256 -0.5156 -0.4566
 7127TIP3    H142796   4.036   2.835  17.139  0.4394 -0.6203 -2.5564
 7127TIP3    H242797   4.183   2.843  17.174 -0.2824 -0.4589  0.7813
 7128TIP3   OH242798   5.675   1.768   1.460 -0.3195  0.3000  0.3304
 7128TIP3    H142799   5.701   1.820   1.537  0.5055 -0.3444  0.5007
 7128TIP3    H242800   5.623   1.697   1.496 -0.5370  0.3985  0.2121
 7129TIP3   OH242801   0.644   2.190   4.819 -0.1028  0.3481  0.1535
 7129TIP3    H142802   0.672   2.249   4.889 -1.2328  2.0752 -0.7656
 7129TIP3    H242803   0.721   2.138   4.799  0.5280  0.5081  1.9775
 7130TIP3   OH242804   6.064   6.242  11.500 -0.1004 -0.1210  0.0089
 7130TIP3    H142805   5.983   6.271  11.456 -0.9698 -0.9752  0.9865
 7130TIP3    H242806   6.043   6.248  11.593  1.0442 -0.1999  0.2814
 7131TIP3   OH242807   2.023   4.290   4.985 -0.0984 -0.6153 -0.0465
 7131TIP3    H142808   1.939   4.310   5.025  0.6824 -0.8120  1.8075
 7131TIP3    H242809   2.054   4.212   5.032  1.6247  0.1537  0.1770
 7132TIP3   OH242810   0.939   3.078  12.557 -0.3517 -0.5003  0.1267
 7132TIP3    H142811   0.873   3.138  12.523  1.1179  0.5213 -1.0597
 7132TIP3    H242812   0.977   3.125  12.632 -0.9014 -1.0546  0.7632
 7133TIP3   OH242813   2.270   4.973   5.796  0.2746 -0.2908 -0.0720
 7133TIP3    H142814   2.241   4.938   5.712  0.3567 -1.5226  0.3896
 7133TIP3    H242815   2.236   4.910   5.861  1.2370 -0.0226  0.7150
 7134TIP3   OH242816   6.499   1.383   5.311  0.1873  0.0998 -0.3023
 7134TIP3    H142817   6.493   1.476   5.336  2.3590  0.4089 -0.7677
 7134TIP3    H242818   6.590   1.371   5.286  0.6624 -2.8259  2.2792
 7135TIP3   OH242819   6.177   4.559  12.427  0.3731  0.2673  0.3425
 7135TIP3    H142820   6.255   4.576  12.479  0.6818 -0.8479  0.2583
 7135TIP3    H242821   6.114   4.625  12.457  1.1177  0.7480  0.8839
 7136TIP3   OH242822   0.631   5.925  15.206 -0.3195 -0.0290 -0.2011
 7136TIP3    H142823   0.611   6.018  15.197  1.2568  0.4176  0.4629
 7136TIP3    H242824   0.551   5.886  15.240 -0.5260  1.3777  1.0188
 7137TIP3   OH242825   0.403   0.375  12.253  0.2677 -0.4082  0.5073
 7137TIP3    H142826   0.321   0.385  12.302  0.1037 -0.5567  0.2632
 7137TIP3    H242827   0.470   0.369  12.320 -0.1910 -3.1109  0.8365
 7138TIP3   OH242828   5.690   3.574   6.927  0.1034  0.3605  0.3287
 7138TIP3    H142829   5.616   3.627   6.957 -2.0193 -1.8314 -0.7113
 7138TIP3    H242830   5.692   3.500   6.988  0.1152 -0.6280 -0.8473
 7139TIP3   OH242831   3.646   5.693  12.125 -0.0916  0.0818 -0.1690
 7139TIP3    H142832   3.582   5.628  12.097  0.5917 -0.5143 -0.3888
 7139TIP3    H242833   3.624   5.711  12.216 -0.9623  0.3699 -0.4231
 7140TIP3   OH242834   1.280   4.892   3.161  0.7159 -0.2619  0.8458
 7140TIP3    H142835   1.270   4.836   3.239  0.1295  0.5408  1.3612
 7140TIP3    H242836   1.220   4.853   3.097 -1.6078  1.1658  2.0270
 7141TIP3   OH242837   5.933   3.008  11.606 -0.3804 -0.1561 -0.0574
 7141TIP3    H142838   5.922   2.927  11.556 -0.6909  0.7631 -1.5314
 7141TIP3    H242839   6.026   3.008  11.631 -0.1596 -0.5272 -0.8553
 7142TIP3   OH242840   5.639   3.570  12.692 -0.3029 -0.5381  0.3755
 7142TIP3    H142841   5.714   3.534  12.740  0.7757  0.6377 -0.3447
 7142TIP3    H242842   5.608   3.497  12.639 -0.1875 -1.2698  1.2803
 7143TIP3   OH242843   6.396   4.141   3.605 -0.4240 -0.5115 -0.3347
 7143TIP3    H142844   6.313   4.096   3.621 -0.4918 -0.0057  0.8297
 7143TIP3    H242845   6.456   4.072   3.575 -0.0601 -1.7902  2.9153
 7144TIP3   OH242846   3.592   4.079  17.111 -0.0587  0.2642 -0.2754
 7144TIP3    H142847   3.552   4.156  17.070 -0.3617  1.0710  1.4534
 7144TIP3    H242848   3.682   4.107  17.130 -0.1785  0.2218  0.3844
 7145TIP3   OH242849   2.546   5.801   1.413 -0.0605  0.4513 -0.3243
 7145TIP3    H142850   2.631   5.810   1.455 -0.6416  1.3523  0.7043
 7145TIP3    H242851   2.483   5.815   1.483 -1.0713  2.1876 -1.4985
 7146TIP3   OH242852   3.064   0.622   4.918 -0.2073 -0.6439 -0.1193
 7146TIP3    H142853   3.127   0.694   4.920  0.3159 -1.0255 -1.6385
 7146TIP3    H242854   3.115   0.545   4.943 -0.4261 -0.7153  0.1053
 7147TIP3   OH242855   6.052   3.531   4.934 -0.2221 -0.0305  0.3635
 7147TIP3    H142856   6.079   3.511   5.024 -1.1799  0.6732  0.8263
 7147TIP3    H242857   5.989   3.602   4.943  1.2865  1.6000 -1.0198
 7148TIP3   OH242858   5.654   2.126   0.894 -0.0739 -0.7261 -0.7238
 7148TIP3    H142859   5.725   2.080   0.848  0.1568 -0.3179 -0.7805
 7148TIP3    H242860   5.576   2.106   0.842 -0.0198 -1.2609 -0.6040
 7149TIP3   OH242861   1.024   5.054   0.263  0.5176 -0.4255 -0.0490
 7149TIP3    H142862   1.096   5.103   0.224  0.2109  0.7340  0.7797
 7149TIP3    H242863   0.985   5.006   0.190  0.8934  0.4989 -0.8829
 7150TIP3   OH242864   6.262   5.982  14.768  0.2676  0.1535 -0.9222
 7150TIP3    H142865   6.289   6.073  14.753  0.1033  0.2677 -0.5427
 7150TIP3    H242866   6.166   5.985  14.768  0.2545 -0.1079 -1.4137
 7151TIP3   OH242867   4.627   6.664   2.783  0.3155 -0.4099  0.1948
 7151TIP3    H142868   4.544   6.706   2.764  1.1059  1.1274 -0.0218
 7151TIP3    H242869   4.615   6.625   2.870  0.3327  2.6127  1.6964
 7152TIP3   OH242870   2.603   4.514  13.745  0.0481 -0.6200 -0.3714
 7152TIP3    H142871   2.605   4.585  13.809 -1.9684  0.3871 -1.3347
 7152TIP3    H242872   2.693   4.508  13.712  0.9115 -0.5518  1.8331
 7153TIP3   OH242873   5.082   1.712  12.719 -0.9490  0.1480 -0.0097
 7153TIP3    H142874   5.172   1.741  12.730 -1.3719  0.8520  2.1939
 7153TIP3    H242875   5.085   1.650  12.646  1.3222  0.0719  0.0877
 7154TIP3   OH242876   6.454   1.326  14.820 -0.7340 -0.0533 -0.2856
 7154TIP3    H142877   6.520   1.385  14.786  0.1304 -0.8364 -0.0094
 7154TIP3    H242878   6.500   1.272  14.884 -1.9499  0.2875  0.9312
 7155TIP3   OH242879   5.931   2.167   1.486 -0.6103  0.2042 -0.1359
 7155TIP3    H142880   5.840   2.173   1.456 -1.2535  1.1086  1.8537
 7155TIP3    H242881   5.927   2.180   1.581  1.8550  3.4563 -0.2898
 7156TIP3   OH242882   2.655   5.750   3.991  0.4283 -0.0387  0.4097
 7156TIP3    H142883   2.743   5.716   4.005 -0.1073 -1.3338  0.7148
 7156TIP3    H242884   2.623   5.770   4.079  0.3872  0.3715  0.3033
 7157TIP3   OH242885   6.195   0.132  13.829 -0.6728  0.2928 -0.0911
 7157TIP3    H142886   6.179   0.039  13.842  0.2975  0.1461  0.1281
 7157TIP3    H242887   6.165   0.149  13.740 -0.3099 -0.3592 -0.3424
 7158TIP3   OH242888   0.688   3.922  15.854 -0.1464  0.8971  0.3765
 7158TIP3    H142889   0.707   4.012  15.881  2.2688  0.4509  0.3079
 7158TIP3    H242890   0.756   3.869  15.895 -0.4062 -0.6685 -1.1034
 7159TIP3   OH242891   6.530   2.105  13.636 -0.6564  0.3635  0.3434
 7159TIP3    H142892   6.551   2.088  13.728  0.8889  0.9589  0.1284
 7159TIP3    H242893   6.607   2.076  13.587 -0.3951  2.3305 -0.5304
 7160TIP3   OH242894   2.532   4.955   6.487 -0.0947  0.1164 -0.3789
 7160TIP3    H142895   2.592   4.905   6.543 -0.7271  0.0398  0.2421
 7160TIP3    H242896   2.526   4.902   6.407  0.0842 -0.2514 -0.1568
 7161TIP3   OH242897   2.804   3.984  15.053 -0.4630 -0.8160 -0.4070
 7161TIP3    H142898   2.853   4.048  15.000  1.0516 -0.7853  0.9719
 7161TIP3    H242899   2.723   4.030  15.076  0.5939  0.6555  0.5582
 7162TIP3   OH242900   6.279   0.478  13.166 -0.2361 -0.1092 -0.3268
 7162TIP3    H142901   6.250   0.429  13.089 -0.5320  0.4124 -0.5492
 7162TIP3    H242902   6.365   0.512  13.142 -0.6424  0.6695 -0.7091
 7163TIP3   OH242903   1.474   6.392   6.068 -0.0215  0.7331  0.1351
 7163TIP3    H142904   1.420   6.470   6.084 -0.2310  0.7369 -0.5711
 7163TIP3    H242905   1.497   6.361   6.156 -1.2033  0.7119  0.4582
 7164TIP3   OH242906   5.689   5.700   1.002 -0.0056  0.3052 -0.3018
 7164TIP3    H142907   5.630   5.626   0.988 -0.5410  0.6701  0.0088
 7164TIP3    H242908   5.656   5.769   0.943  0.9134  0.0761 -1.1190
 7165TIP3   OH242909   5.003   1.602   0.101 -0.4409  0.1081 -0.1720
 7165TIP3    H142910   5.021   1.519   0.146 -1.0766 -0.4425 -0.8951
 7165TIP3    H242911   4.985   1.576   0.011  1.2678  1.2385 -0.8726
 7166TIP3   OH242912   5.644   4.374   1.520  0.7452 -0.0916 -0.3171
 7166TIP3    H142913   5.721   4.326   1.490  0.2194 -0.3740 -1.2303
 7166TIP3    H242914   5.576   4.308   1.531  0.6729  0.1240  0.7019
 7167TIP3   OH242915   3.616   4.339  16.486  0.2321 -0.0816 -0.5566
 7167TIP3    H142916   3.531   4.317  16.446 -0.5705 -1.4734  1.7198
 7167TIP3    H242917   3.595   4.407  16.550  0.6407 -1.0562  0.6441
 7168TIP3   OH242918   2.169   0.713  11.392 -0.1487  0.6000  0.2855
 7168TIP3    H142919   2.244   0.751  11.437  0.5311 -1.0808  0.6613
 7168TIP3    H242920   2.124   0.662  11.460  1.8787 -3.4512 -1.0638
 7169TIP3   OH242921   5.661   1.275  15.061 -0.0475  0.2295 -0.0757
 7169TIP3    H142922   5.592   1.338  15.038 -0.2867 -0.2822 -0.7698
 7169TIP3    H242923   5.654   1.265  15.156 -0.8176  0.3067 -0.1220
 7170TIP3   OH242924   2.149   1.983  15.657  0.0529  0.1468  0.2239
 7170TIP3    H142925   2.220   1.940  15.609  0.1807 -0.6345  1.1034
 7170TIP3    H242926   2.126   2.058  15.601 -0.7537 -1.5006 -1.7728
 7171TIP3   OH242927   3.840   4.633   5.096  0.0297 -0.3954 -0.3300
 7171TIP3    H142928   3.868   4.599   5.011  0.7729 -2.2841  0.6288
 7171TIP3    H242929   3.790   4.562   5.136  0.0438  0.3101  0.9958
 7172TIP3   OH242930   3.436   6.572   2.355  0.4314 -0.3190 -0.1169
 7172TIP3    H142931   3.484   6.654   2.350  0.7977 -0.5520 -0.4700
 7172TIP3    H242932   3.404   6.557   2.267  1.6061 -1.2775 -0.4197
 7173TIP3   OH242933   4.001   0.842  12.754  0.1352 -0.1678 -0.0962
 7173TIP3    H142934   4.008   0.925  12.709  0.7231  0.6643  1.4582
 7173TIP3    H242935   3.954   0.785  12.693 -0.0131  1.1988 -1.2958
 7174TIP3   OH242936   1.789   1.848   0.604  0.3224 -0.4733  0.6718
 7174TIP3    H142937   1.717   1.785   0.607 -1.4813  1.4254 -0.4665
 7174TIP3    H242938   1.750   1.928   0.569  3.8343 -0.5006 -4.2059
 7175TIP3   OH242939   6.624   3.031   2.936  0.2983  0.5347  0.2660
 7175TIP3    H142940   6.673   2.951   2.954 -0.4951  0.0766  0.4216
 7175TIP3    H242941   6.568   3.009   2.861 -1.3783  0.2964  1.5335
 7176TIP3   OH242942   3.436   6.012  12.860 -0.5173 -0.2884 -0.2757
 7176TIP3    H142943   3.357   5.964  12.837 -0.4832 -0.5846  0.2097
 7176TIP3    H242944   3.418   6.046  12.948 -0.4284  0.3422 -0.4937
 7177TIP3   OH242945   3.545   6.790  14.100  0.9856  0.2785  0.4093
 7177TIP3    H142946   3.594   6.871  14.111  0.9394  0.4769 -0.6712
 7177TIP3    H242947   3.454   6.818  14.088  1.2045  0.2457 -1.7872
 7178TIP3   OH242948   5.842   0.031   3.422  0.6512  0.0369  0.4020
 7178TIP3    H142949   5.828   0.058   3.513  1.5183  0.4489  0.4204
 7178TIP3    H242950   5.885  -0.054   3.429 -0.9129 -0.7871  0.3510
 7179TIP3   OH242951   5.144   2.454   1.670  0.1800  1.1224  0.1449
 7179TIP3    H142952   5.212   2.458   1.737  1.2623  1.0406 -0.9194
 7179TIP3    H242953   5.158   2.370   1.626 -3.3289 -1.0253  2.6250
 7180TIP3   OH242954   3.362   4.217   3.367 -0.0627 -0.4585  0.2748
 7180TIP3    H142955   3.320   4.260   3.292 -0.4299 -2.2011 -0.5593
 7180TIP3    H242956   3.426   4.158   3.329 -0.8156 -1.9726  1.2797
 7181TIP3   OH242957   6.026   2.523  14.235  0.2123  0.0299  0.2520
 7181TIP3    H142958   6.009   2.539  14.328 -0.9122 -0.0668  0.0754
 7181TIP3    H242959   6.032   2.610  14.196 -0.2539  0.0689  0.2613
 7182TIP3   OH242960   2.370   5.685   3.085 -0.3967 -0.3911  0.2873
 7182TIP3    H142961   2.342   5.752   3.022 -1.9379 -0.4806  0.8296
 7182TIP3    H242962   2.464   5.677   3.072 -0.8160 -1.4454 -3.0521
 7183TIP3   OH242963   3.318   6.186  16.047  0.4530  0.5384 -0.3926
 7183TIP3    H142964   3.279   6.210  16.132  0.8068 -0.5371  0.0865
 7183TIP3    H242965   3.244   6.177  15.988 -0.0572 -1.2368  0.4483
 7184TIP3   OH242966   4.207   5.774  10.416  0.3751  0.1083  0.3171
 7184TIP3    H142967   4.235   5.865  10.414  1.8124 -0.2867 -1.7856
 7184TIP3    H242968   4.119   5.776  10.453 -0.7121  2.6894 -2.0755
 7185TIP3   OH242969   1.463   3.928   0.066 -0.1836  0.4014 -0.2499
 7185TIP3    H142970   1.396   3.908   0.001 -1.7146  0.1041  1.3464
 7185TIP3    H242971   1.546   3.907   0.022 -1.1976 -0.5777 -1.8017
 7186TIP3   OH242972   1.393   2.401   0.732 -0.2219  0.1727  0.0769
 7186TIP3    H142973   1.300   2.397   0.710 -0.0611  3.4127 -1.8613
 7186TIP3    H242974   1.402   2.483   0.782  1.8608  1.3210 -1.9716
 7187TIP3   OH242975   3.438   3.571   5.913 -0.0078  0.2217  0.5330
 7187TIP3    H142976   3.389   3.653   5.907  0.8681  0.7591  0.4976
 7187TIP3    H242977   3.472   3.570   6.002 -2.2319 -1.4366  1.4536
 7188TIP3   OH242978   1.533   5.331   2.068 -0.3689  0.0590  0.1048
 7188TIP3    H142979   1.558   5.354   2.157  0.9608  1.1017 -0.5014
 7188TIP3    H242980   1.530   5.415   2.021  0.6084 -0.6088 -1.2182
 7189TIP3   OH242981   3.787   5.900   1.805  0.1399  0.0557  0.3940
 7189TIP3    H142982   3.719   5.883   1.869  1.3965  0.5566  1.9246
 7189TIP3    H242983   3.869   5.898   1.855  1.0114  2.6515 -0.7461
 7190TIP3   OH242984   0.437   5.703  16.464 -0.3052  0.1442  0.1595
 7190TIP3    H142985   0.524   5.744  16.462  0.2683 -1.0351 -2.4168
 7190TIP3    H242986   0.396   5.729  16.381 -1.5789 -1.0645  0.3746
 7191TIP3   OH242987   0.962   3.257  14.840  0.1891 -0.0873 -0.3244
 7191TIP3    H142988   1.014   3.186  14.804 -0.6112 -1.0079  0.2985
 7191TIP3    H242989   0.872   3.225  14.838 -0.0484  0.4117  1.0999
 7192TIP3   OH242990   3.932   1.593   3.405  0.1911 -0.2993  0.1028
 7192TIP3    H142991   3.982   1.553   3.334  0.0107  0.6739 -0.5911
 7192TIP3    H242992   3.853   1.627   3.363  0.9955  2.0759  0.3513
 7193TIP3   OH242993   0.977   1.713  12.936  0.3671 -0.0411 -0.0748
 7193TIP3    H142994   1.071   1.721  12.918  0.2674 -0.5072 -0.8244
 7193TIP3    H242995   0.971   1.714  13.031  1.1234  0.0896 -0.0227
 7194TIP3   OH242996   5.954   4.995   3.159  0.4297  0.0899  0.1457
 7194TIP3    H142997   5.920   5.028   3.242 -2.0077  0.1532 -0.7922
 7194TIP3    H242998   6.047   5.018   3.160 -0.2139  3.1061  1.4415
 7195TIP3   OH242999   6.078   3.694  15.905 -0.0688 -0.0224  0.1644
 7195TIP3    H143000   6.114   3.759  15.846  0.4411 -0.9544 -0.5810
 7195TIP3    H243001   5.990   3.726  15.927 -1.3122 -0.8585 -3.0911
 7196TIP3   OH243002   0.370   3.689   6.443  0.3559  0.2093 -0.1573
 7196TIP3    H143003   0.380   3.767   6.388  0.1548  0.6794  0.4685
 7196TIP3    H243004   0.415   3.710   6.525  0.1003 -0.2430  0.1093
 7197TIP3   OH243005   4.073   2.968  11.979 -0.6457 -0.3917 -0.9003
 7197TIP3    H143006   4.147   3.028  11.968 -0.5071 -0.4680 -0.3845
 7197TIP3    H243007   3.997   3.019  11.952 -1.1161  1.4155  3.0991
 7198TIP3   OH243008   2.351   5.357  11.774  0.4883  0.3324  0.3733
 7198TIP3    H143009   2.442   5.328  11.773 -0.0718 -1.6201  1.5653
 7198TIP3    H243010   2.343   5.415  11.697  2.3090 -0.7540 -0.6850
 7199TIP3   OH243011   6.158   3.866  12.745  0.0504  0.2960 -0.0602
 7199TIP3    H143012   6.103   3.793  12.773  1.1653  0.1798  2.0528
 7199TIP3    H243013   6.103   3.944  12.754 -1.0609 -0.1842 -2.0769
 7200TIP3   OH243014   2.840   1.192   0.184  0.0031  0.1102  0.2851
 7200TIP3    H143015   2.755   1.149   0.176 -0.0337 -0.0750  1.5206
 7200TIP3    H243016   2.903   1.125   0.161 -0.1387 -0.0632  0.3996
 7201TIP3   OH243017   1.582   0.056  14.970 -0.0146 -0.2968  0.1917
 7201TIP3    H143018   1.673   0.026  14.977  0.7094  1.7413  0.5431
 7201TIP3    H243019   1.570   0.073  14.877 -0.2644 -1.1695  0.0581
 7202TIP3   OH243020   5.468   5.190   3.463 -0.6995 -0.8197 -0.0947
 7202TIP3    H143021   5.557   5.164   3.488 -0.1077  0.9019 -0.2867
 7202TIP3    H243022   5.462   5.164   3.371 -1.0302 -2.4666  0.3598
 7203TIP3   OH243023   5.588   0.418   4.538  0.1355  0.2817  0.3813
 7203TIP3    H143024   5.613   0.416   4.630  0.1989  0.8249  0.3793
 7203TIP3    H243025   5.589   0.511   4.515 -0.4820  0.1986 -0.0025
 7204TIP3   OH243026   2.026   1.089   0.995 -0.1969 -0.2935  0.0062
 7204TIP3    H143027   2.060   1.166   0.948 -1.9615  0.5199 -0.0045
 7204TIP3    H243028   2.087   1.019   0.972  2.1609  1.3230  0.9261
 7205TIP3   OH243029   2.419   1.677   6.206  0.3696 -0.3193  0.0271
 7205TIP3    H143030   2.498   1.726   6.231  1.4680 -2.6816  1.4522
 7205TIP3    H243031   2.350   1.713   6.262  0.9806  0.0697  0.5438
 7206TIP3   OH243032   3.371   3.104  14.025 -0.1538 -0.0451  0.1887
 7206TIP3    H143033   3.451   3.080  13.978  0.8317  1.5067  0.9990
 7206TIP3    H243034   3.306   3.039  13.996  1.2437 -1.0401 -0.8696
 7207TIP3   OH243035   3.358   3.206  11.004 -0.2705  0.6246 -0.0590
 7207TIP3    H143036   3.419   3.277  11.024 -0.8249  1.5416 -1.5366
 7207TIP3    H243037   3.402   3.154  10.937 -0.4499  0.3700  0.0195
 7208TIP3   OH243038   6.304   4.360  16.457  0.3559  0.4662  0.3399
 7208TIP3    H143039   6.296   4.299  16.384 -0.2657  1.0291 -0.0730
 7208TIP3    H243040   6.229   4.340  16.513  1.7031 -1.0699  1.6991
 7209TIP3   OH243041   2.686   6.680   2.851  0.1947  0.0162 -0.0074
 7209TIP3    H143042   2.711   6.694   2.942  1.2823  0.1757 -0.3153
 7209TIP3    H243043   2.767   6.695   2.801 -0.6389  1.0611 -1.1076
 7210TIP3   OH243044   3.788   3.315   3.693 -0.3160  0.3620 -0.8904
 7210TIP3    H143045   3.828   3.316   3.780  0.4060  3.7907 -1.1282
 7210TIP3    H243046   3.840   3.252   3.643  1.3524  0.7300  0.3082
 7211TIP3   OH243047   3.136   6.042   6.057 -0.6335  0.0950 -0.0694
 7211TIP3    H143048   3.112   6.115   5.999  0.0912 -1.9032 -3.0854
 7211TIP3    H243049   3.101   5.964   6.014  1.8264 -1.7468  1.0470
 7212TIP3   OH243050   1.309   5.919   3.062  0.3627  0.2102 -0.4425
 7212TIP3    H143051   1.393   5.955   3.091  1.1538 -2.3842  0.8891
 7212TIP3    H243052   1.252   5.927   3.138 -0.6011  1.7947 -1.2866
 7213TIP3   OH243053   4.922   1.853   6.854  0.5860 -0.1506 -0.3296
 7213TIP3    H143054   4.912   1.885   6.764 -0.2855 -0.4016 -0.3365
 7213TIP3    H243055   4.932   1.759   6.844  0.1129 -0.2238 -0.1521
 7214TIP3   OH243056   2.200   0.277  11.650 -0.4655  0.0034 -0.2061
 7214TIP3    H143057   2.153   0.254  11.571  0.2777  0.0022 -0.6571
 7214TIP3    H243058   2.200   0.197  11.703 -0.2688 -0.2299 -0.5569
 7215TIP3   OH243059   0.097   3.910   4.236  0.4679  0.0484  0.0236
 7215TIP3    H143060   0.188   3.887   4.258  0.4509 -0.4830 -0.4407
 7215TIP3    H243061   0.086   3.998   4.273  1.4603  0.5007 -0.6906
 7216TIP3   OH243062   1.617   4.610  10.392  0.6196 -0.1248 -0.0366
 7216TIP3    H143063   1.605   4.632  10.484  2.5609  1.9521 -0.2118
 7216TIP3    H243064   1.574   4.681  10.344  0.4859 -0.6697 -0.7534
 7217TIP3   OH243065   2.234   4.638   1.319 -0.5109 -0.3629  0.0844
 7217TIP3    H143066   2.243   4.545   1.296  2.7066  0.1729 -1.3903
 7217TIP3    H243067   2.271   4.684   1.243  1.7066  1.9478  2.3942
 7218TIP3   OH243068   3.568   5.953   5.028  0.0073 -0.5669 -0.3532
 7218TIP3    H143069   3.582   5.877   4.972  1.3333  0.0378 -0.8859
 7218TIP3    H243070   3.559   6.027   4.967 -2.2982 -0.3897  0.1030
 7219TIP3   OH243071   6.351   1.911  14.495 -0.6958 -0.1327 -0.1327
 7219TIP3    H143072   6.271   1.950  14.461 -2.3696 -0.4718  3.0811
 7219TIP3    H243073   6.346   1.819  14.471 -1.1959 -0.1241 -0.0617
 7220TIP3   OH243074   1.520   3.660   1.920 -0.4134 -0.3197 -0.1647
 7220TIP3    H143075   1.498   3.752   1.930  1.4100 -0.0643  2.5237
 7220TIP3    H243076   1.615   3.656   1.930 -0.5215 -2.5688  0.6587
 7221TIP3   OH243077   4.517   1.880   4.007 -0.2541  0.0395 -0.0541
 7221TIP3    H143078   4.598   1.838   4.036 -0.1738  0.1782 -0.0784
 7221TIP3    H243079   4.468   1.897   4.088  0.6340  1.8172  0.1597
 7222TIP3   OH243080   3.065   5.073   5.833  0.4183 -0.4795  0.5638
 7222TIP3    H143081   3.004   5.024   5.777  1.3250 -0.8940 -0.0737
 7222TIP3    H243082   3.008   5.125   5.890 -0.5267 -0.0186 -0.7715
 7223TIP3   OH243083   3.120   3.165  15.720  0.2584 -0.3258 -0.4312
 7223TIP3    H143084   3.203   3.213  15.718 -0.2533  0.6766  0.9571
 7223TIP3    H243085   3.109   3.142  15.812 -2.0778  1.5032 -0.1812
 7224TIP3   OH243086   4.505   4.606   3.860 -0.0388  0.3078  0.1669
 7224TIP3    H143087   4.515   4.516   3.891 -1.5941 -0.3680 -1.1773
 7224TIP3    H243088   4.594   4.641   3.862  0.5118 -1.0324  1.3196
 7225TIP3   OH243089   1.387   1.951   0.112  0.5701 -0.2902 -0.3271
 7225TIP3    H143090   1.381   2.042   0.141  2.0363  0.7552 -2.9584
 7225TIP3    H243091   1.314   1.940   0.052  0.5299 -0.7824 -0.1917
 7226TIP3   OH243092   0.296   4.041   3.985 -0.1027  0.1653  0.0231
 7226TIP3    H143093   0.229   3.972   3.992 -0.7455  0.8572  0.7989
 7226TIP3    H243094   0.324   4.057   4.075  0.5830  0.4041 -0.2269
 7227TIP3   OH243095   6.389   0.916   0.338  0.0361  0.3546  0.5205
 7227TIP3    H143096   6.300   0.942   0.313  0.7218  1.0915 -1.3239
 7227TIP3    H243097   6.435   0.999   0.352  0.5305 -0.0205  1.1959
 7228TIP3   OH243098   3.627   4.016   0.189  0.9863 -0.0596  0.1775
 7228TIP3    H143099   3.533   4.032   0.180  0.8379 -1.3801 -1.1055
 7228TIP3    H243100   3.634   3.950   0.257  1.1828  1.4974  1.7290
 7229TIP3   OH243101   0.968   2.214  15.835 -0.2504 -0.2725 -0.3464
 7229TIP3    H143102   0.886   2.210  15.884  0.6573 -0.0711  1.2684
 7229TIP3    H243103   0.946   2.180  15.748 -1.8101 -1.1877  0.3585
 7230TIP3   OH243104   0.062   4.065   5.605 -0.0311 -0.0365 -0.1058
 7230TIP3    H143105   0.097   4.152   5.628  0.7184 -0.1596 -0.7680
 7230TIP3    H243106   0.071   4.014   5.686  1.0760  0.0118 -0.1920
 7231TIP3   OH243107   5.326   6.004   3.564  0.6071 -0.1013  0.1532
 7231TIP3    H143108   5.379   6.039   3.635 -0.0841 -1.3985  1.3566
 7231TIP3    H243109   5.379   5.932   3.528  0.7810  0.2948 -0.3992
 7232TIP3   OH243110   4.991   1.331  10.666  0.2207 -0.7263  0.4429
 7232TIP3    H143111   5.051   1.257  10.658  0.4382 -0.4623 -0.4371
 7232TIP3    H243112   5.029   1.399  10.610 -0.6111 -0.3587  0.3142
 7233TIP3   OH243113   2.887   0.893  11.328  0.7060  0.5922 -0.2772
 7233TIP3    H143114   2.885   0.902  11.233 -0.7723  0.1320 -0.3280
 7233TIP3    H243115   2.891   0.983  11.361  0.2067  0.8077 -0.7844
 7234TIP3   OH243116   0.384   4.639   4.051 -0.1681 -0.4676 -0.2186
 7234TIP3    H143117   0.336   4.646   3.968 -0.1672 -0.6072 -0.2321
 7234TIP3    H243118   0.414   4.728   4.070 -1.4952 -0.1268  0.4253
 7235TIP3   OH243119   3.508   6.720  15.551  0.3569  0.2971  0.0580
 7235TIP3    H143120   3.520   6.738  15.458  0.3678 -0.6768 -0.1394
 7235TIP3    H243121   3.484   6.805  15.589 -0.2744  0.5815 -0.9329
 7236TIP3   OH243122   6.567   4.823  13.162 -0.0701  0.0314  0.0520
 7236TIP3    H143123   6.636   4.888  13.148 -0.6100  0.1874 -2.4491
 7236TIP3    H243124   6.486   4.870  13.146 -0.5449 -0.9132 -0.3995
 7237TIP3   OH243125   4.363   0.884  17.215 -0.5840 -0.3608 -0.2986
 7237TIP3    H143126   4.431   0.942  17.183 -0.9400 -0.2034 -0.7824
 7237TIP3    H243127   4.379   0.801  17.171 -1.1224 -0.1208 -0.9677
 7238TIP3   OH243128   6.283   3.473   6.774 -0.3868 -0.2228 -0.3777
 7238TIP3    H143129   6.311   3.562   6.793 -0.9917 -0.0915 -0.1073
 7238TIP3    H243130   6.198   3.482   6.732  0.2646 -0.5854 -1.8714
 7239TIP3   OH243131   1.664   4.331   4.011  0.1097  0.0003  0.4201
 7239TIP3    H143132   1.619   4.302   4.090 -0.0123 -0.9612  0.0107
 7239TIP3    H243133   1.740   4.380   4.043 -0.9489  1.2430  1.1132
 7240TIP3   OH243134   0.651   4.807   0.707 -0.1841  0.2239 -0.2664
 7240TIP3    H143135   0.562   4.834   0.730 -0.8192 -0.2120 -2.0089
 7240TIP3    H243136   0.641   4.764   0.622  1.9134  1.5013 -1.2217
 7241TIP3   OH243137   5.279   6.722   3.005 -0.3593 -0.6631  0.4229
 7241TIP3    H143138   5.278   6.725   2.909  0.6209  0.6602  0.4280
 7241TIP3    H243139   5.223   6.648   3.027  0.5946 -1.9637 -1.2156
 7242TIP3   OH243140   0.365   3.506   4.603  0.0772 -0.1516  0.7520
 7242TIP3    H143141   0.325   3.586   4.570  0.6669  0.3721  1.2743
 7242TIP3    H243142   0.341   3.503   4.696  2.2592  0.8675  1.4097
 7243TIP3   OH243143   3.892   5.949  12.701 -0.1583 -0.7001 -0.6884
 7243TIP3    H143144   3.801   5.922  12.691 -1.1940  2.0532  0.3471
 7243TIP3    H243145   3.895   6.037  12.664  2.0188 -0.6074 -0.4011
 7244TIP3   OH243146   2.025   5.489  16.759 -0.3861 -0.2083  0.1411
 7244TIP3    H143147   2.076   5.481  16.840 -0.1040  0.2560  0.0139
 7244TIP3    H243148   1.977   5.571  16.770  4.2114  3.3488 -2.6225
 7245TIP3   OH243149   2.110   2.216  13.960  0.2969  0.4138  0.0478
 7245TIP3    H143150   2.023   2.176  13.969  1.5452 -3.6536 -3.1933
 7245TIP3    H243151   2.164   2.171  14.024  0.4092  2.0309  1.1622
 7246TIP3   OH243152   0.679   3.033  14.120 -0.4692 -0.1232  0.0927
 7246TIP3    H143153   0.597   2.999  14.154  0.1698  0.8115  2.8385
 7246TIP3    H243154   0.743   2.963  14.137 -0.0710  0.4993  1.2294
 7247TIP3   OH243155   0.801   5.381  15.203  0.3335 -0.8918  0.2524
 7247TIP3    H143156   0.735   5.313  15.191  0.2943 -0.7137 -0.6486
 7247TIP3    H243157   0.752   5.461  15.221  0.3640 -1.0163  0.9151
 7248TIP3   OH243158   5.252   2.040   0.651  0.0890  0.3115 -0.1533
 7248TIP3    H143159   5.248   2.001   0.564 -0.0186 -0.7206  0.3050
 7248TIP3    H243160   5.298   1.976   0.705 -0.8667  0.3988  0.8248
 7249TIP3   OH243161   1.176   6.765   3.767 -0.1030 -0.7603 -0.6924
 7249TIP3    H143162   1.109   6.752   3.834  0.4573 -2.2122 -0.3596
 7249TIP3    H243163   1.257   6.779   3.817 -0.1558  1.1542 -1.0868
 7250TIP3   OH243164   1.375   1.096   1.876 -0.1244  0.0619 -0.3980
 7250TIP3    H143165   1.294   1.136   1.908  0.1146  1.3006 -1.2688
 7250TIP3    H243166   1.353   1.004   1.860 -0.6606 -0.2555  1.7942
 7251TIP3   OH243167   1.188   2.820   6.564 -0.2256  0.0942  0.0148
 7251TIP3    H143168   1.244   2.756   6.607 -1.5994 -1.9080 -1.0589
 7251TIP3    H243169   1.210   2.813   6.471 -0.7843  0.8175 -0.1845
 7252TIP3   OH243170   0.264   5.365  13.661  0.2988 -0.1102  0.5279
 7252TIP3    H143171   0.327   5.297  13.636  0.2995  0.2869 -0.5996
 7252TIP3    H243172   0.318   5.437  13.693  0.2851 -0.7506  2.1267
 7253TIP3   OH243173   3.809   1.381  12.462  0.3664  0.4488  0.2529
 7253TIP3    H143174   3.775   1.468  12.441 -3.3713 -0.8503  0.2043
 7253TIP3    H243175   3.796   1.373  12.557  1.4864  0.2214  0.3968
 7254TIP3   OH243176   0.383   2.588  12.275 -0.1178 -0.3435  0.6248
 7254TIP3    H143177   0.422   2.636  12.348  0.5863  0.6564 -0.3796
 7254TIP3    H243178   0.412   2.635  12.197 -0.3135 -1.7739 -0.3428
 7255TIP3   OH243179   0.340   2.619  15.255 -0.4196 -0.5233  0.1317
 7255TIP3    H143180   0.306   2.632  15.344  0.2252  0.3796  0.2695
 7255TIP3    H243181   0.279   2.559  15.214 -0.8576 -0.7775  1.1188
 7256TIP3   OH243182   0.741   0.869  12.421 -0.3625  0.5908  0.1229
 7256TIP3    H143183   0.720   0.879  12.328 -0.7618 -0.2725  0.1112
 7256TIP3    H243184   0.707   0.782  12.444  0.7814  0.2961  0.7803
 7257TIP3   OH243185   4.081   4.595  16.541  0.0486  0.8348 -0.6667
 7257TIP3    H143186   4.090   4.678  16.587 -1.2381  0.5026  0.2373
 7257TIP3    H243187   3.990   4.596  16.509  0.2889  0.1484 -1.3878
 7258TIP3   OH243188   1.848   3.523  14.590  0.0322 -0.2343 -0.2649
 7258TIP3    H143189   1.840   3.617  14.607  0.2303 -0.0523 -1.1091
 7258TIP3    H243190   1.873   3.518  14.497 -2.5963 -1.1828 -1.0130
 7259TIP3   OH243191   1.192   2.246   4.750  0.1578  0.4718  0.3267
 7259TIP3    H143192   1.129   2.252   4.822  0.4819  0.0232  0.6513
 7259TIP3    H243193   1.272   2.287   4.785 -0.6251  3.2786 -0.8918
 7260TIP3   OH243194   2.504   4.919   2.692 -0.1566 -0.1878  0.2586
 7260TIP3    H143195   2.565   4.873   2.635  1.7604  2.0242  0.3480
 7260TIP3    H243196   2.496   5.006   2.653 -0.6915  0.6147  2.0257
 7261TIP3   OH243197   6.405   0.597  17.185 -0.0702  0.3392  0.4397
 7261TIP3    H143198   6.428   0.657  17.256  0.2433  0.1693  0.4812
 7261TIP3    H243199   6.476   0.533  17.184 -1.0499 -0.8148  1.2710
 7262TIP3   OH243200   2.077   5.536  12.648 -0.1015  0.1056 -0.5698
 7262TIP3    H143201   2.014   5.471  12.679 -2.1810  2.0481 -0.4463
 7262TIP3    H243202   2.079   5.524  12.553 -0.0888 -0.4460 -0.5028
 7263TIP3   OH243203   6.282   5.653   4.200  0.2877 -0.2665  0.7279
 7263TIP3    H143204   6.239   5.737   4.217 -1.5705 -1.0733  0.3137
 7263TIP3    H243205   6.302   5.619   4.287  0.5952  0.3817  0.9181
 7264TIP3   OH243206   1.247   4.473   0.004 -0.5116  0.1941 -0.2969
 7264TIP3    H143207   1.315   4.406   0.008 -1.7597 -1.2205 -1.3216
 7264TIP3    H243208   1.293   4.553  -0.020  0.7579 -0.7944 -1.3181
 7265TIP3   OH243209   2.585   6.150  16.982  0.3580 -0.6201  0.1204
 7265TIP3    H143210   2.494   6.173  16.998 -0.6414 -1.8494 -2.9660
 7265TIP3    H243211   2.622   6.227  16.940  0.4782 -0.4405  0.5554
 7266TIP3   OH243212   4.789   0.596  15.566 -0.2609 -0.4229  0.3779
 7266TIP3    H143213   4.714   0.609  15.624 -0.5625  1.3079 -0.3181
 7266TIP3    H243214   4.770   0.515  15.519 -2.1776  0.4195 -0.4207
 7267TIP3   OH243215   2.643   1.934   1.732  0.8179 -0.7146 -0.1636
 7267TIP3    H143216   2.637   1.869   1.803  0.9507  1.8060  2.3612
 7267TIP3    H243217   2.560   1.981   1.736  2.1797  1.7990  0.8846
 7268TIP3   OH243218   5.571   2.215   3.720 -0.3715  0.2203 -0.3063
 7268TIP3    H143219   5.663   2.241   3.729 -0.5403  1.6190 -2.0103
 7268TIP3    H243220   5.531   2.289   3.674 -2.0865 -0.8972 -0.6643
 7269TIP3   OH243221   0.469   1.257   0.647  0.4399 -0.2172 -0.0167
 7269TIP3    H143222   0.467   1.337   0.595  0.3513 -0.6798 -0.7314
 7269TIP3    H243223   0.547   1.265   0.701  0.4301  0.3503 -0.0817
 7270TIP3   OH243224   0.622   2.816  13.898 -0.3045  0.6487 -0.2709
 7270TIP3    H143225   0.622   2.867  13.817  2.1782  2.0241  0.4712
 7270TIP3    H243226   0.576   2.872  13.961  1.0050  1.3142  0.1372
 7271TIP3   OH243227   1.447   5.375   5.528 -0.0044 -0.6035 -0.0657
 7271TIP3    H143228   1.523   5.350   5.476 -0.0281  0.2408 -0.5117
 7271TIP3    H243229   1.433   5.468   5.509 -0.3967 -0.4346  0.9637
 7272TIP3   OH243230   3.160   4.375   2.404 -0.4578 -0.2918 -0.1880
 7272TIP3    H143231   3.107   4.310   2.357  1.3337 -2.6386  0.8056
 7272TIP3    H243232   3.179   4.442   2.338 -2.0221 -0.9662 -1.4139
 7273TIP3   OH243233   6.016   4.969  15.191  0.3153  0.4792 -0.3353
 7273TIP3    H143234   5.973   5.053  15.176  1.5792  1.2976  0.4917
 7273TIP3    H243235   5.969   4.930  15.265  0.8658  1.2755  0.4365
 7274TIP3   OH243236   6.608   0.910   1.119  0.1794 -0.4284  0.1421
 7274TIP3    H143237   6.622   0.959   1.200  1.8216 -0.2224 -0.2300
 7274TIP3    H243238   6.661   0.831   1.129 -1.3825 -1.5401  0.1691
 7275TIP3   OH243239   0.077   3.789   6.657 -0.0870 -0.4839 -0.2354
 7275TIP3    H143240   0.142   3.725   6.689  0.2183  1.2853  3.0614
 7275TIP3    H243241   0.008   3.735   6.618  1.6583 -2.6112 -0.6099
 7276TIP3   OH243242   5.282   5.521  12.186  0.6073 -0.2807  0.5646
 7276TIP3    H143243   5.273   5.510  12.092  1.5550 -1.7177  0.6198
 7276TIP3    H243244   5.239   5.444  12.224 -0.9532  0.9391  1.3811
 7277TIP3   OH243245   2.337   0.692   3.793 -0.7638  0.4867 -0.3351
 7277TIP3    H143246   2.277   0.755   3.831 -0.6399  0.4554 -0.0802
 7277TIP3    H243247   2.311   0.608   3.830  0.3548  0.6691  0.9537
 7278TIP3   OH243248   1.314   0.709  14.506 -0.2513  0.6880 -0.5674
 7278TIP3    H143249   1.400   0.694  14.546 -0.4194 -0.3085 -0.5481
 7278TIP3    H243250   1.312   0.803  14.487 -0.3771  1.3513  2.2719
 7279TIP3   OH243251   5.209   5.559   4.299  0.6430  0.2035  0.1729
 7279TIP3    H143252   5.288   5.597   4.261  0.8063 -2.0760 -2.0025
 7279TIP3    H243253   5.224   5.465   4.296 -1.8584 -0.2664  0.4288
 7280TIP3   OH243254   3.649   0.402   6.192 -0.3262  0.3905  0.0832
 7280TIP3    H143255   3.719   0.459   6.161 -0.7822  1.5210  1.0418
 7280TIP3    H243256   3.688   0.315   6.195  0.5601  0.7311 -0.8675
 7281TIP3   OH243257   2.081   3.520  13.081  0.0043 -0.3636  0.5984
 7281TIP3    H143258   2.134   3.561  13.149  1.1930  0.1939 -0.6427
 7281TIP3    H243259   2.002   3.573  13.077  2.2604  3.1843 -2.2883
 7282TIP3   OH243260   2.968   1.843   4.315  0.4589  0.2477 -0.3958
 7282TIP3    H143261   3.015   1.760   4.325 -0.0825  0.1225  1.4571
 7282TIP3    H243262   2.876   1.818   4.308  0.2100  0.6884  0.9734
 7283TIP3   OH243263   2.104   5.774   5.088  0.7286  0.4662 -0.0181
 7283TIP3    H143264   2.126   5.839   5.020 -0.3726 -0.1651 -1.0143
 7283TIP3    H243265   2.182   5.719   5.093  0.4901 -0.0632 -1.5069
 7284TIP3   OH243266   3.469   4.376  13.290 -0.4658 -0.1596 -0.0329
 7284TIP3    H143267   3.551   4.331  13.309  1.9731  4.1376  0.8909
 7284TIP3    H243268   3.485   4.423  13.209 -1.1999  2.2838  1.1467
 7285TIP3   OH243269   5.684   6.079   1.837 -0.2912 -0.0382  0.0478
 7285TIP3    H143270   5.686   6.162   1.790 -0.6299  0.5398  1.0160
 7285TIP3    H243271   5.615   6.029   1.794  1.1768 -0.6103 -1.7729
 7286TIP3   OH243272   4.972   2.419  17.168  0.3004 -0.3100 -0.4663
 7286TIP3    H143273   4.996   2.422  17.261  0.5194  0.4014 -0.5404
 7286TIP3    H243274   4.878   2.438  17.167  0.0521 -1.4956 -0.3019
 7287TIP3   OH243275   2.281   1.813  11.228 -0.0261  0.0128  0.0447
 7287TIP3    H143276   2.198   1.785  11.266 -0.1466  1.0303  0.5659
 7287TIP3    H243277   2.271   1.907  11.215  1.0686  0.1599  0.1654
 7288TIP3   OH243278   5.064   2.692   6.789  0.0403  0.8046 -0.2820
 7288TIP3    H143279   4.979   2.666   6.823  0.3674 -2.9972 -1.7592
 7288TIP3    H243280   5.051   2.779   6.752 -3.0880  0.5251 -0.0604
 7289TIP3   OH243281   1.481   4.946   4.795 -0.3362  0.0041 -0.4567
 7289TIP3    H143282   1.442   4.908   4.716  0.1413 -0.9160 -0.2638
 7289TIP3    H243283   1.440   4.898   4.867  1.7389 -1.6546 -0.2660
 7290TIP3   OH243284   1.743   3.969   5.787  0.5442  0.6806 -0.2770
 7290TIP3    H143285   1.708   3.933   5.706 -2.5126 -0.2843  1.3038
 7290TIP3    H243286   1.724   4.063   5.782  0.2513  0.6046 -0.6239
 7291TIP3   OH243287   4.181   0.189   0.745 -0.5905 -0.4798 -0.6155
 7291TIP3    H143288   4.102   0.185   0.800  0.3281  0.7403  0.8932
 7291TIP3    H243289   4.208   0.280   0.750  2.1165 -1.2660  0.7375
 7292TIP3   OH243290   4.350   2.051  16.290 -0.2858  0.3862  0.0594
 7292TIP3    H143291   4.426   2.005  16.253  0.3278  0.9070  0.6624
 7292TIP3    H243292   4.375   2.143  16.290 -1.6111  0.7901 -1.3784
 7293TIP3   OH243293   6.133   2.551   2.622 -0.1134 -0.4027 -0.1334
 7293TIP3    H143294   6.142   2.638   2.662  0.0227 -0.5124  0.0782
 7293TIP3    H243295   6.066   2.562   2.555  2.0021  0.6147 -2.2248
 7294TIP3   OH243296   5.699   0.256   4.339  0.0671 -0.4316 -0.6925
 7294TIP3    H143297   5.661   0.299   4.415 -1.4787  0.7381 -2.0387
 7294TIP3    H243298   5.773   0.312   4.314  0.2214 -0.4984 -0.3841
 7295TIP3   OH243299   5.223   4.200   3.921 -0.1467  0.0802 -0.4274
 7295TIP3    H143300   5.166   4.274   3.903  0.4268  0.4504 -0.7373
 7295TIP3    H243301   5.167   4.138   3.967 -0.9891  0.1402 -1.3331
 7296TIP3   OH243302   1.021   5.991   2.893 -0.1318 -0.1637  0.0096
 7296TIP3    H143303   1.025   5.966   2.985  1.8326 -3.2511 -0.7449
 7296TIP3    H243304   1.112   6.011   2.870 -0.6238  0.7838 -1.2219
 7297TIP3   OH243305   4.714   4.654   2.965  0.2490 -0.5029  0.5552
 7297TIP3    H143306   4.660   4.619   2.895  0.2952 -0.4588  0.4975
 7297TIP3    H243307   4.681   4.743   2.979  1.3621  0.1274 -0.6023
 7298TIP3   OH243308   4.820   5.915   5.799 -0.6454 -0.3961 -0.7933
 7298TIP3    H143309   4.831   5.851   5.729  1.0607 -2.6300  1.3672
 7298TIP3    H243310   4.735   5.894   5.838  0.6208 -2.6229  0.9773
 7299TIP3   OH243311   3.131   4.547  15.146  0.1847 -0.3245  0.6011
 7299TIP3    H143312   3.054   4.546  15.090  0.1768  0.0524  0.6040
 7299TIP3    H243313   3.097   4.541  15.235  0.2167 -1.3962  0.5569
 7300TIP3   OH243314   0.449   4.059  13.882 -0.1903  0.0777  0.7424
 7300TIP3    H143315   0.387   4.033  13.814 -1.2137  2.9858  0.4420
 7300TIP3    H243316   0.530   4.078  13.836  0.1994 -1.2335  0.8283
 7301TIP3   OH243317   0.970   2.369  13.351 -0.4416 -0.6475 -0.0119
 7301TIP3    H143318   0.943   2.332  13.267 -0.3445  2.1305 -1.3979
 7301TIP3    H243319   0.892   2.415  13.383  0.4058  1.1097 -0.3127
 7302TIP3   OH243320   0.350   2.154  11.622 -0.0230 -0.4187  0.2756
 7302TIP3    H143321   0.330   2.085  11.685  2.0805  0.7370  2.3806
 7302TIP3    H243322   0.444   2.145  11.605 -0.1606  0.5185 -1.2205
 7303TIP3   OH243323   1.195   3.176  15.138 -0.0289 -0.0950  0.0198
 7303TIP3    H143324   1.117   3.229  15.123  0.3137  0.4124 -0.0090
 7303TIP3    H243325   1.244   3.225  15.205 -0.4905 -1.2174  1.2222
 7304TIP3   OH243326   1.345   3.184  11.017 -0.1993  0.0585  0.1394
 7304TIP3    H143327   1.288   3.189  11.094 -0.1620  0.3935  0.1473
 7304TIP3    H243328   1.421   3.237  11.041 -0.1294  0.0554 -0.0763
 7305TIP3   OH243329   5.778   1.629   2.820 -0.1053 -0.5447 -0.0229
 7305TIP3    H143330   5.860   1.634   2.870 -0.1132 -0.4825 -0.0154
 7305TIP3    H243331   5.726   1.563   2.866 -0.5391  0.2735  0.6838
 7306TIP3   OH243332   5.751   0.026   4.945  0.5250  0.3435  0.6604
 7306TIP3    H143333   5.821   0.055   5.004  0.4201  0.2481  0.8319
 7306TIP3    H243334   5.711  -0.048   4.991 -0.0981  0.7934  0.8503
 7307TIP3   OH243335   1.452   2.511  14.696  0.5181  0.2532  0.4745
 7307TIP3    H143336   1.447   2.445  14.766  2.8699  0.5231  0.9846
 7307TIP3    H243337   1.542   2.544  14.701 -0.2607  2.7237 -0.4940
 7308TIP3   OH243338   4.233   6.001  11.508 -0.4382 -0.1670  0.3784
 7308TIP3    H143339   4.159   6.021  11.566 -0.7105  2.4006 -0.7121
 7308TIP3    H243340   4.303   5.975  11.566 -1.2664  0.5006  1.7258
 7309TIP3   OH243341   4.530   1.649   3.813 -0.3914  0.0544  0.8831
 7309TIP3    H143342   4.565   1.578   3.867  2.1462  1.0968  0.7571
 7309TIP3    H243343   4.529   1.725   3.872  2.0277  1.1099 -0.3090
 7310TIP3   OH243344   6.065   1.834   0.053 -0.0392  0.1437  0.5622
 7310TIP3    H143345   6.054   1.745   0.087  2.7269 -1.4012 -2.0445
 7310TIP3    H243346   6.123   1.823  -0.023 -1.2017  3.9633 -1.1100
 7311TIP3   OH243347   1.371   5.524   3.947  0.7946 -0.2346 -0.2537
 7311TIP3    H143348   1.421   5.596   3.907  0.3858  0.5525  0.6083
 7311TIP3    H243349   1.427   5.494   4.019  0.1364  0.5405  0.6128
 7312TIP3   OH243350   4.259   6.075  12.920  0.4117 -0.0648  0.4376
 7312TIP3    H143351   4.302   6.130  12.985  1.0522  0.5215 -0.4599
 7312TIP3    H243352   4.165   6.092  12.932  0.6024  1.4425  0.0060
 7313TIP3   OH243353   2.239   3.657   2.127 -0.1218  0.0646  0.0180
 7313TIP3    H143354   2.199   3.718   2.189  0.8554  0.6450  0.0966
 7313TIP3    H243355   2.331   3.653   2.153 -0.5819 -3.3579  1.5628
 7314TIP3   OH243356   2.176   4.229   2.114  0.0871 -0.0820  0.1535
 7314TIP3    H143357   2.269   4.211   2.127 -0.0452 -1.4448 -0.6081
 7314TIP3    H243358   2.152   4.177   2.037 -1.2830  0.3037  0.2998
 7315TIP3   OH243359   2.087   3.293  11.618 -0.2006 -0.2013  0.2295
 7315TIP3    H143360   2.177   3.290  11.585 -0.3282  0.3833 -0.1716
 7315TIP3    H243361   2.033   3.304  11.540 -0.6554 -0.9044  0.4316
 7316TIP3   OH243362   5.019   3.516  15.500  0.2920  0.7414 -0.1671
 7316TIP3    H143363   4.946   3.477  15.452  0.5696 -0.0793  0.0561
 7316TIP3    H243364   5.097   3.486  15.453  0.5483  0.2346  0.5680
 7317TIP3   OH243365   1.620   0.446   1.279  0.0027 -0.0611  0.0599
 7317TIP3    H143366   1.542   0.393   1.295  0.4440 -0.0861  2.6672
 7317TIP3    H243367   1.588   0.535   1.271 -0.7320 -0.4768 -4.1934
 7318TIP3   OH243368   1.789   1.680   1.471  0.0705 -0.7226 -0.2861
 7318TIP3    H143369   1.732   1.605   1.487  0.2617 -0.4949  1.6115
 7318TIP3    H243370   1.833   1.696   1.554 -1.0584  2.3952 -0.1595
 7319TIP3   OH243371   4.730   4.436  11.307 -0.3726 -0.2949 -0.3434
 7319TIP3    H143372   4.750   4.346  11.281  0.3723 -0.3219  0.2824
 7319TIP3    H243373   4.807   4.465  11.356 -0.3822  0.8568 -0.9606
 7320TIP3   OH243374   3.037   2.440  13.090  0.1427  0.1734 -0.2592
 7320TIP3    H143375   3.028   2.481  13.003 -2.7819  0.1728 -0.0455
 7320TIP3    H243376   2.948   2.421  13.117  1.1030 -1.7136  1.9177
 7321TIP3   OH243377   0.545   3.954  15.628  0.0254 -0.2671 -0.1430
 7321TIP3    H143378   0.580   3.949  15.717 -0.7751 -1.5893  0.1265
 7321TIP3    H243379   0.452   3.933  15.638 -0.4769  1.3478 -1.0739
 7322TIP3   OH243380   1.772   2.623  13.754  0.0241 -0.4430 -0.1655
 7322TIP3    H143381   1.817   2.546  13.718 -0.0978 -0.2400 -0.7728
 7322TIP3    H243382   1.804   2.696  13.701  0.0669 -0.0879  0.3489
 7323TIP3   OH243383   5.790   4.665   1.749 -0.1785 -0.7216  0.3079
 7323TIP3    H143384   5.698   4.666   1.721  0.4796 -2.1614 -2.1107
 7323TIP3    H243385   5.808   4.573   1.768  1.1094 -0.6626 -0.5224
 7324TIP3   OH243386   6.011   4.041   2.517 -0.1716  0.5560  0.8685
 7324TIP3    H143387   5.962   3.962   2.539 -0.1155  0.3421  0.2506
 7324TIP3    H243388   5.956   4.085   2.452  0.3535  0.4156  0.3176
 7325TIP3   OH243389   6.745   6.371  11.544  0.5295  0.2825 -0.2183
 7325TIP3    H143390   6.687   6.296  11.531  0.6299  0.2168 -0.2803
 7325TIP3    H243391   6.803   6.371  11.468  0.4724  0.4746 -0.2630
 7326TIP3   OH243392   2.302   5.942   1.298  0.5704  0.1346  0.1289
 7326TIP3    H143393   2.296   5.925   1.392 -1.3536 -1.5767 -0.2111
 7326TIP3    H243394   2.361   5.874   1.266 -1.3113 -1.3882 -0.2668
 7327TIP3   OH243395   5.621   2.512   3.796 -0.1677 -0.4396  0.2602
 7327TIP3    H143396   5.629   2.603   3.767 -1.8442 -0.6497 -1.0051
 7327TIP3    H243397   5.699   2.497   3.850  0.8920  1.2882 -0.7031
 7328TIP3   OH243398   4.066   4.144  15.514  0.3817 -0.7283  0.0249
 7328TIP3    H143399   4.006   4.182  15.451  1.6171 -0.0496 -0.7779
 7328TIP3    H243400   4.145   4.125  15.464  1.2400 -0.5744  1.2742
 7329TIP3   OH243401   6.264   0.134   1.504 -0.3802  0.1497  0.1879
 7329TIP3    H143402   6.322   0.180   1.443 -1.8705  1.8545 -0.0355
 7329TIP3    H243403   6.275   0.180   1.587  0.0658 -0.8120  0.6752
 7330TIP3   OH243404   5.086   1.798   5.118 -0.1593 -0.7746 -0.2758
 7330TIP3    H143405   5.069   1.875   5.172 -2.0129 -0.7471 -0.8453
 7330TIP3    H243406   5.079   1.724   5.178 -2.2760 -0.7506 -0.4439
 7331TIP3   OH243407   1.856   6.681  16.831 -0.1697 -0.7921 -0.1317
 7331TIP3    H143408   1.870   6.713  16.921 -0.2361 -1.5245  0.1453
 7331TIP3    H243409   1.815   6.754  16.786  0.1039 -0.3216  0.3674
 7332TIP3   OH243410   4.814   1.678  15.173 -0.1546  0.0347  0.1788
 7332TIP3    H143411   4.858   1.660  15.090  1.0680 -0.2070  0.8643
 7332TIP3    H243412   4.785   1.769  15.165  1.7506  0.6835  0.2523
 7333TIP3   OH243413   2.675   1.621   5.485  0.5427  0.8566  0.4004
 7333TIP3    H143414   2.742   1.656   5.427 -0.7774  2.0424 -0.4689
 7333TIP3    H243415   2.708   1.638   5.573  1.5741  1.0129 -0.0086
 7334TIP3   OH243416   5.885   0.139   5.165 -0.2451 -0.5712  0.4782
 7334TIP3    H143417   5.952   0.184   5.114 -1.1253 -1.6392 -1.7699
 7334TIP3    H243418   5.840   0.208   5.213 -0.0333  0.6607 -1.0233
 7335TIP3   OH243419   1.368   2.212   3.947 -0.1985 -0.1726 -0.8799
 7335TIP3    H143420   1.400   2.301   3.955 -1.7835  0.2658  1.4952
 7335TIP3    H243421   1.277   2.221   3.921 -0.7585 -0.9761  0.6458
 7336TIP3   OH243422   6.462   2.619  16.207 -0.3401 -0.0425 -0.6443
 7336TIP3    H143423   6.429   2.687  16.266 -1.3705  0.2578 -1.5285
 7336TIP3    H243424   6.397   2.615  16.137  1.4209  0.4189 -2.3800
 7337TIP3   OH243425   2.126   0.570   3.242  0.6787 -0.4545 -0.0651
 7337TIP3    H143426   2.049   0.524   3.275  1.5208 -0.2961  2.2291
 7337TIP3    H243427   2.189   0.501   3.223  0.8596 -0.4327  0.4559
 7338TIP3   OH243428   6.672   3.690  14.096 -0.0408 -0.2369 -0.0739
 7338TIP3    H143429   6.651   3.718  14.007 -2.7667  1.2515  0.9020
 7338TIP3    H243430   6.639   3.601  14.102 -2.7861  0.7019  0.2255
 7339TIP3   OH243431   3.987   2.531  14.764  0.3125  0.2610 -0.3644
 7339TIP3    H143432   3.971   2.561  14.675  0.4047 -1.3074 -0.9446
 7339TIP3    H243433   3.901   2.501  14.795  0.7347 -1.6819 -0.9381
 7340TIP3   OH243434   2.171   6.648   0.600 -0.3075  0.3652  0.1803
 7340TIP3    H143435   2.134   6.561   0.614 -0.9147  0.6615  0.4629
 7340TIP3    H243436   2.156   6.667   0.508  0.5644 -0.1585 -0.0832
 7341TIP3   OH243437   5.407   6.087  11.848 -0.6903 -0.1330  0.3254
 7341TIP3    H143438   5.376   6.156  11.907 -2.2488 -1.4112  1.1081
 7341TIP3    H243439   5.376   6.006  11.889  3.7148 -1.6706  1.1219
 7342TIP3   OH243440   0.830   2.049  12.425  0.3736  0.1467 -0.1344
 7342TIP3    H143441   0.794   1.997  12.498 -0.7456  0.8109 -0.1863
 7342TIP3    H243442   0.924   2.047  12.438  0.1725  0.8145  1.7495
 7343TIP3   OH243443   2.924   0.964   3.759  0.2248 -0.0193 -0.2677
 7343TIP3    H143444   2.899   1.054   3.738 -1.4109 -1.1874 -4.0378
 7343TIP3    H243445   3.017   0.960   3.740  0.7664  1.2472  1.7765
 7344TIP3   OH243446   4.833   1.938  13.345  0.2898 -0.1724  0.1107
 7344TIP3    H143447   4.896   1.911  13.278  1.0293 -0.2692  0.8223
 7344TIP3    H243448   4.836   1.868  13.410  1.1259  0.8632  1.2440
 7345TIP3   OH243449   6.480   2.343   6.876  0.1402  0.0392  0.0509
 7345TIP3    H143450   6.495   2.411   6.810  1.8783 -0.5590 -0.2326
 7345TIP3    H243451   6.536   2.368   6.949 -0.1537 -0.4372  0.4434
 7346TIP3   OH243452   1.087   1.747  12.214  0.1096  0.0619  0.3269
 7346TIP3    H143453   1.093   1.652  12.228  1.2529  0.2587  1.3260
 7346TIP3    H243454   0.993   1.765  12.208 -0.1059 -1.2662 -0.9640
 7347TIP3   OH243455   1.606   0.564  14.825  0.6856 -0.4648  0.0219
 7347TIP3    H143456   1.553   0.497  14.781  1.3966 -0.5164 -0.7901
 7347TIP3    H243457   1.668   0.513  14.878  0.2147 -0.4137  0.6264
 7348TIP3   OH243458   5.184   4.797   6.706  0.4086  0.6703 -0.2564
 7348TIP3    H143459   5.220   4.710   6.689 -0.4179  0.4408 -0.8381
 7348TIP3    H243460   5.190   4.843   6.622 -1.9744  0.1433 -0.7774
 7349TIP3   OH243461   5.954   0.008   6.299  0.0501  0.5070  0.6885
 7349TIP3    H143462   5.975  -0.062   6.238 -1.9689 -0.7893  1.3736
 7349TIP3    H243463   6.036   0.056   6.310  0.7398  0.1325 -2.1507
 7350TIP3   OH243464   5.024   5.768  11.956 -0.1729  0.3950 -0.2104
 7350TIP3    H143465   4.990   5.819  11.882 -0.0717  0.2518 -0.3565
 7350TIP3    H243466   5.026   5.678  11.924 -1.3571  0.1362  0.4043
 7351TIP3   OH243467   3.604   1.479  11.061 -0.1257 -0.6951  0.4331
 7351TIP3    H143468   3.675   1.543  11.048  0.0562 -0.9474  0.1585
 7351TIP3    H243469   3.576   1.457  10.972  1.7434 -3.1444  0.3235
 7352TIP3   OH243470   5.398   3.325   2.864  0.1422  0.4716 -0.3923
 7352TIP3    H143471   5.451   3.272   2.924 -2.0141 -0.0862  1.1264
 7352TIP3    H243472   5.457   3.344   2.791  2.1684 -0.7724  0.8122
 7353TIP3   OH243473   4.342   0.168  12.497  0.2436  0.8039 -0.6242
 7353TIP3    H143474   4.388   0.200  12.574  1.4696  1.9540 -1.7713
 7353TIP3    H243475   4.249   0.167  12.522  0.4854  2.4351  0.4357
 7354TIP3   OH243476   3.673   4.520  11.189 -0.0215 -0.0087  0.1170
 7354TIP3    H143477   3.678   4.489  11.279 -0.1479 -0.3166  0.0176
 7354TIP3    H243478   3.603   4.585  11.190  1.5120  1.7566  0.7542
 7355TIP3   OH243479   0.055   2.052  17.239  0.0546 -0.2229 -0.0944
 7355TIP3    H143480  -0.032   2.031  17.272  0.4093 -0.9135  0.4276
 7355TIP3    H243481   0.040   2.086  17.151 -0.7476 -0.2866  0.0132
 7356TIP3   OH243482   0.333   5.065  14.646 -0.5588 -0.2448 -0.2187
 7356TIP3    H143483   0.363   5.153  14.625 -1.5380  0.0510 -0.4262
 7356TIP3    H243484   0.385   5.008  14.588 -0.5226  0.2604 -0.6930
 7357TIP3   OH243485   3.017   5.445   2.651 -0.3562 -0.3145 -0.1053
 7357TIP3    H143486   3.005   5.350   2.661  1.7860 -0.4877  1.6223
 7357TIP3    H243487   3.048   5.474   2.737  0.9103  1.6219 -1.1555
 7358TIP3   OH243488   6.738   5.979   2.078 -0.1724 -0.0732  0.2430
 7358TIP3    H143489   6.643   5.983   2.066 -0.1674  0.1992  0.2791
 7358TIP3    H243490   6.751   5.995   2.171 -0.2834 -3.3098  0.9213
 7359TIP3   OH243491   1.098   0.101   4.305  0.5362  0.1450 -0.7566
 7359TIP3    H143492   1.180   0.111   4.353  1.2165 -1.9360 -1.3844
 7359TIP3    H243493   1.030   0.121   4.369  1.4931  2.7278 -0.4334
 7360TIP3   OH243494   4.733   2.890   0.816  0.4897  0.4089 -0.0018
 7360TIP3    H143495   4.788   2.902   0.738  1.0008  1.1664  0.4567
 7360TIP3    H243496   4.657   2.841   0.784  2.1094 -2.0349 -0.3562
 7361TIP3   OH243497   3.977   0.203  14.664  0.2818 -0.2524  0.1808
 7361TIP3    H143498   3.978   0.110  14.685  0.9490 -0.5264 -0.9734
 7361TIP3    H243499   4.045   0.241  14.721  0.9177 -0.6971 -0.2654
 7362TIP3   OH243500   1.814   2.041  17.113  0.0569 -0.1248 -0.0019
 7362TIP3    H143501   1.722   2.054  17.091  0.4200  0.0050 -1.5550
 7362TIP3    H243502   1.847   1.984  17.043  1.1071 -0.3608  0.6656
 7363TIP3   OH243503   1.103   5.581   3.789 -0.8640 -0.1212  0.6260
 7363TIP3    H143504   1.145   5.507   3.747  0.3456  0.0593  1.4626
 7363TIP3    H243505   1.116   5.566   3.883 -0.3066  1.2998  0.7997
 7364TIP3   OH243506   5.621   4.103  11.771 -0.9722  0.4973  0.4124
 7364TIP3    H143507   5.630   4.074  11.680 -1.6547 -1.4288  0.9135
 7364TIP3    H243508   5.688   4.054  11.819 -2.6804 -0.9848  1.4112
 7365TIP3   OH243509   5.648   0.222  10.565 -0.6581 -0.5586 -0.4748
 7365TIP3    H143510   5.610   0.161  10.502  3.1664 -0.9762 -2.6537
 7365TIP3    H243511   5.677   0.167  10.638  0.1048 -0.9496 -1.0635
 7366TIP3   OH243512   6.331   2.118  15.985 -0.1945 -0.1733  0.1441
 7366TIP3    H143513   6.255   2.160  16.026 -0.8384 -1.9218  0.8533
 7366TIP3    H243514   6.314   2.025  15.994  1.8398 -0.6119 -0.0917
 7367TIP3   OH243515   0.490   5.816  16.854  0.3995  0.1382  0.1038
 7367TIP3    H143516   0.459   5.884  16.793  1.4347  0.5371  0.0020
 7367TIP3    H243517   0.423   5.814  16.923 -0.4894  0.0911 -0.7374
 7368TIP3   OH243518   5.697   6.543   1.216  0.1876 -0.3691 -0.4135
 7368TIP3    H143519   5.619   6.512   1.263  1.1392 -3.4375 -0.6484
 7368TIP3    H243520   5.750   6.586   1.283  0.5822 -2.8530  0.9977
 7369TIP3   OH243521   5.939   3.680  13.740  0.1357  0.5813  0.7981
 7369TIP3    H143522   5.854   3.671  13.698  0.5460  0.3203 -0.0001
 7369TIP3    H243523   5.948   3.601  13.794  0.0844  0.3673  0.4949
 7370TIP3   OH243524   5.820   2.308  14.365 -0.4880  0.2216  0.1351
 7370TIP3    H143525   5.794   2.238  14.423  1.3365 -1.4281 -0.8972
 7370TIP3    H243526   5.908   2.333  14.394  0.0472  0.0627 -1.2287
 7371TIP3   OH243527   1.406   2.199  11.698 -0.1795 -0.6809  0.4900
 7371TIP3    H143528   1.351   2.205  11.776  1.1394  0.1093  1.3984
 7371TIP3    H243529   1.472   2.133  11.720  2.8627  2.4906  1.8958
 7372TIP3   OH243530   5.038   2.708   3.749  0.8129 -0.2471 -0.5682
 7372TIP3    H143531   5.087   2.628   3.729  0.2512 -0.6353 -0.4182
 7372TIP3    H243532   4.974   2.715   3.678  0.3984 -0.3173 -0.2086
 7373TIP3   OH243533   3.323   0.749   5.473 -0.4294 -0.4251  0.3309
 7373TIP3    H143534   3.245   0.756   5.418 -0.3989  1.6141  0.4707
 7373TIP3    H243535   3.296   0.785   5.558  1.0535  1.9162 -0.1113
 7374TIP3   OH243536   3.880   0.511   3.948 -0.2175 -0.1557  0.0265
 7374TIP3    H143537   3.788   0.493   3.965  0.0332  0.0047  1.6901
 7374TIP3    H243538   3.926   0.433   3.978  0.1979 -0.3868 -1.1295
 7375TIP3   OH243539   0.732   3.511  11.299 -0.1502 -0.1990  0.2625
 7375TIP3    H143540   0.738   3.423  11.335  1.0036 -1.5094 -2.8016
 7375TIP3    H243541   0.655   3.508  11.242  0.8291  0.1969 -1.1334
 7376TIP3   OH243542   2.717   0.452   4.420  0.0766  0.3552 -0.4709
 7376TIP3    H143543   2.792   0.408   4.459 -1.6024 -1.7270  0.6522
 7376TIP3    H243544   2.733   0.545   4.435  1.7424 -0.1136  0.9984
 7377TIP3   OH243545   4.384   2.724   0.186 -0.0838  0.2043  0.4421
 7377TIP3    H143546   4.473   2.759   0.187  0.0722 -0.1873  0.2775
 7377TIP3    H243547   4.379   2.670   0.265 -0.0781 -0.0204  0.2882
 7378TIP3   OH243548   5.147   4.820   2.868  0.7463  0.0147 -0.0105
 7378TIP3    H143549   5.099   4.874   2.805 -0.4531  0.3745  1.1596
 7378TIP3    H243550   5.100   4.736   2.869  1.0968 -0.1828 -0.0042
 7379TIP3   OH243551   5.164   5.471   5.097 -0.0705 -0.1224  0.3327
 7379TIP3    H143552   5.256   5.495   5.084 -0.6342  1.3588 -1.2497
 7379TIP3    H243553   5.153   5.391   5.046 -0.1463  0.8991 -1.3272
 7380TIP3   OH243554   3.508   5.235   5.522 -0.4497  0.5458  0.4449
 7380TIP3    H143555   3.559   5.303   5.567  0.6150 -1.5034  2.5576
 7380TIP3    H243556   3.549   5.152   5.549 -2.2183 -1.0147 -1.3174
 7381TIP3   OH243557   4.596   2.170   4.745 -0.4163  0.2912 -0.0457
 7381TIP3    H143558   4.558   2.256   4.727  0.7269  0.5774 -1.2301
 7381TIP3    H243559   4.522   2.117   4.776 -1.2087  1.5743  0.3353
 7382TIP3   OH243560   5.450   5.026   1.230 -0.3976  1.2947 -0.1639
 7382TIP3    H143561   5.536   5.066   1.220  0.6704 -0.9133 -0.3039
 7382TIP3    H243562   5.467   4.933   1.241 -2.8320  0.5708 -1.6311
 7383TIP3   OH243563   6.751   0.805  11.856  0.0771  0.2489 -0.6967
 7383TIP3    H143564   6.671   0.800  11.908 -0.4825  0.4561 -1.5322
 7383TIP3    H243565   6.764   0.898  11.839  0.3106  0.1904 -0.8531
 7384TIP3   OH243566   6.597   0.055   3.096  0.2690 -0.4788  0.4041
 7384TIP3    H143567   6.600   0.088   3.007  1.3423  2.1259  1.3023
 7384TIP3    H243568   6.523   0.100   3.137  0.6877 -0.5093  1.2222
 7385TIP3   OH243569   1.950   2.517   4.263  0.0991  0.1819 -0.0150
 7385TIP3    H143570   1.919   2.428   4.278 -0.5684  0.4108 -0.0087
 7385TIP3    H243571   1.921   2.565   4.341 -1.0101  0.7700 -0.7612
 7386TIP3   OH243572   2.589   6.366   5.615  0.3461 -0.6952 -0.1068
 7386TIP3    H143573   2.611   6.321   5.534 -0.9089 -0.7582 -0.4306
 7386TIP3    H243574   2.507   6.412   5.596 -0.6230 -1.6784  1.4622
 7387TIP3   OH243575   5.987   6.739   4.206  0.4290  0.0550  0.1199
 7387TIP3    H143576   5.987   6.700   4.293 -1.5906 -0.4266 -0.0364
 7387TIP3    H243577   6.021   6.827   4.219  0.8968 -0.2772  1.2544
 7388TIP3   OH243578   2.969   1.385  14.823 -0.4999 -0.1057  0.0442
 7388TIP3    H143579   3.003   1.467  14.859 -0.1176 -0.3536  0.2639
 7388TIP3    H243580   2.961   1.327  14.899 -0.1805 -0.4686 -0.1943
 7389TIP3   OH243581   0.065   6.555  11.284 -0.0162  0.5559  0.2241
 7389TIP3    H143582   0.121   6.626  11.317 -0.0717  0.7663 -0.1340
 7389TIP3    H243583   0.100   6.476  11.325  2.0124  0.3276 -1.7685
 7390TIP3   OH243584   1.672   6.764   0.259  0.0365 -0.0340  0.6134
 7390TIP3    H143585   1.577   6.767   0.269 -0.3558 -0.3661 -2.1785
 7390TIP3    H243586   1.689   6.820   0.183  2.2138  0.7844  1.6215
 7391TIP3   OH243587   1.556   4.876   2.593 -0.3178  0.0430  0.2325
 7391TIP3    H143588   1.600   4.829   2.664 -0.7370 -1.8347 -0.7022
 7391TIP3    H243589   1.467   4.891   2.626 -0.3258 -0.2524  0.3489
 7392TIP3   OH243590   2.135   1.663  10.694 -0.0969  0.0473  0.4276
 7392TIP3    H143591   2.070   1.711  10.643  0.9520  0.1901 -0.8118
 7392TIP3    H243592   2.123   1.571  10.668  0.2746  0.0902  0.0960
 7393TIP3   OH243593   3.522   3.581  14.467 -0.0889  0.4722  0.2978
 7393TIP3    H143594   3.459   3.649  14.490  0.0896 -0.5992  4.6834
 7393TIP3    H243595   3.491   3.503  14.512  1.8668 -1.3698 -1.3356
 7394TIP3   OH243596   6.619   5.303   5.152  0.2102 -0.3408 -1.1588
 7394TIP3    H143597   6.669   5.221   5.157  0.4439 -0.1441 -0.0079
 7394TIP3    H243598   6.655   5.357   5.223 -0.9059  0.2190 -1.0052
 7395TIP3   OH243599   0.243   3.044  14.478 -0.1116  0.1906 -0.9944
 7395TIP3    H143600   0.186   3.021  14.551  0.9848  2.6466  0.7842
 7395TIP3    H243601   0.277   2.961  14.447  1.2521 -0.9133  2.8956
 7396TIP3   OH243602   0.170   6.304  11.365  0.0033 -0.4033 -0.2356
 7396TIP3    H143603   0.174   6.256  11.283 -0.8115  0.8876 -1.0779
 7396TIP3    H243604   0.236   6.264  11.421  0.5444 -1.3238 -1.5150
 7397TIP3   OH243605   3.793   0.544  12.964  0.3785 -0.6457  0.0473
 7397TIP3    H143606   3.820   0.635  12.975  1.5347 -0.9008 -0.5394
 7397TIP3    H243607   3.707   0.550  12.922  0.6777  0.1766 -0.4833
 7398TIP3   OH243608   3.837   4.218  13.599  0.1361  0.1736 -0.3382
 7398TIP3    H143609   3.836   4.286  13.532  0.6760 -1.6972 -2.3877
 7398TIP3    H243610   3.910   4.161  13.574 -1.0640 -1.8365  0.5031
 7399TIP3   OH243611   5.125   6.785  17.213  0.1335 -0.4607 -0.4896
 7399TIP3    H143612   5.081   6.709  17.252  0.8581 -0.6587 -0.0351
 7399TIP3    H243613   5.216   6.777  17.242  0.3578  0.2250 -0.9852
 7400TIP3   OH243614   4.994   0.136  11.873  0.2122  0.5809  0.5237
 7400TIP3    H143615   4.923   0.103  11.817 -0.0056  0.2635  0.9861
 7400TIP3    H243616   4.957   0.136  11.961  0.3525  1.6496  0.5972
 7401TIP3   OH243617   5.916   1.411   3.201 -0.2379 -0.2106 -0.4426
 7401TIP3    H143618   5.882   1.385   3.286  1.2746  1.1831  0.6558
 7401TIP3    H243619   5.928   1.506   3.208  0.8102 -0.2060 -1.8725
 7402TIP3   OH243620   2.408   6.499  12.644  0.5639 -0.5326  0.1884
 7402TIP3    H143621   2.404   6.485  12.738  0.5411  1.0618  0.4505
 7402TIP3    H243622   2.384   6.591  12.632  1.0028 -0.5852 -1.3297
 7403TIP3   OH243623   4.418   1.926  17.057 -0.7325  0.4014  0.2345
 7403TIP3    H143624   4.401   1.842  17.014  0.0370 -0.2077  1.0975
 7403TIP3    H243625   4.468   1.976  16.992 -0.3326 -0.1737  0.0967
 7404TIP3   OH243626   4.351   0.581  17.140  0.0976  0.3224  0.4856
 7404TIP3    H143627   4.265   0.574  17.181 -0.3833 -0.0415 -0.5554
 7404TIP3    H243628   4.412   0.554  17.208 -0.6453  0.1368  1.0912
 7405TIP3   OH243629   1.516   6.100  12.463 -0.4689  0.0891 -0.2883
 7405TIP3    H143630   1.568   6.174  12.495  1.1882 -1.1366  0.0208
 7405TIP3    H243631   1.514   6.111  12.368 -0.2441  0.5391 -0.2416
 7406TIP3   OH243632   3.627   2.346  11.654  0.3660 -0.2991 -0.0195
 7406TIP3    H143633   3.663   2.294  11.582  0.2103  0.6610 -0.8257
 7406TIP3    H243634   3.689   2.333  11.726  0.0343 -1.9949 -0.0188
 7407TIP3   OH243635   0.328   4.739  12.557  0.0905 -0.6481 -0.1168
 7407TIP3    H143636   0.323   4.703  12.468 -0.7311 -0.6465 -0.0813
 7407TIP3    H243637   0.406   4.699  12.595  1.0324  0.1270 -1.1795
 7408TIP3   OH243638   5.800   4.516  13.321  0.2250  0.4801  0.5056
 7408TIP3    H143639   5.719   4.513  13.270  0.4564  0.7166  0.1225
 7408TIP3    H243640   5.774   4.548  13.407 -0.0725  0.6409  0.3536
 7409TIP3   OH243641   4.838   4.257  13.812 -0.8914  0.1438  0.5857
 7409TIP3    H143642   4.828   4.213  13.728  0.5083  0.8977  0.0119
 7409TIP3    H243643   4.771   4.217  13.868 -1.2498 -0.9802 -0.6215
 7410TIP3   OH243644   6.312   0.922  11.147 -0.5624 -0.4994 -0.0457
 7410TIP3    H143645   6.339   0.831  11.137  0.1860 -0.1485 -1.5165
 7410TIP3    H243646   6.334   0.963  11.063 -3.6064  0.3643 -0.5553
 7411TIP3   OH243647   1.148   4.941  12.877 -0.0294  0.1279 -0.1257
 7411TIP3    H143648   1.129   4.849  12.858 -0.0301  0.2577 -0.7745
 7411TIP3    H243649   1.135   4.986  12.793 -2.0857  1.0504  0.6208
 7412TIP3   OH243650   0.538   5.767  15.937  0.1685 -0.3881  0.1633
 7412TIP3    H143651   0.488   5.802  15.864 -2.5907 -0.5828  1.8067
 7412TIP3    H243652   0.617   5.821  15.941 -1.1849  1.8074 -0.9413
 7413TIP3   OH243653   2.749   6.521  13.024 -0.2922 -0.5828 -0.4498
 7413TIP3    H143654   2.817   6.484  13.079  1.6297  2.3579 -0.6552
 7413TIP3    H243655   2.795   6.549  12.945 -1.8306  0.9766 -0.8426
 7414TIP3   OH243656   6.109   6.252  12.612 -0.2564 -0.4972 -0.6309
 7414TIP3    H143657   6.069   6.283  12.693 -1.2902 -2.3813 -0.3594
 7414TIP3    H243658   6.052   6.286  12.543  0.2389  0.5372 -0.5505
 7415TIP3   OH243659   2.576   5.432  16.979 -0.4699 -0.1969 -0.1208
 7415TIP3    H143660   2.524   5.368  17.028 -1.7468 -1.1380 -2.5362
 7415TIP3    H243661   2.652   5.449  17.035 -1.3446 -1.9023  1.7181
 7416TIP3   OH243662   6.544   4.741  16.861 -0.2381  0.4200  0.5529
 7416TIP3    H143663   6.635   4.720  16.880 -0.2828  1.6455  2.3946
 7416TIP3    H243664   6.528   4.705  16.774  1.6818 -0.7439  0.6398
 7417TIP3   OH243665   6.568   1.965  12.012 -0.6535 -0.3005  0.2292
 7417TIP3    H143666   6.474   1.948  12.019 -1.2812  0.8581 -3.5029
 7417TIP3    H243667   6.582   1.988  11.920  3.0305  1.2991  1.0174
 7418TIP3   OH243668   3.016   4.892   2.269  0.3011  0.3450  0.3765
 7418TIP3    H143669   2.969   4.849   2.198  0.4501  0.5946  0.1285
 7418TIP3    H243670   3.109   4.880   2.247  0.4496 -1.7638  1.7826
 7419TIP3   OH243671   5.977   3.903   5.271  0.0050  0.7747 -0.0464
 7419TIP3    H143672   5.972   3.810   5.294 -0.1144  0.7524 -0.1597
 7419TIP3    H243673   5.941   3.948   5.347  2.4577  0.8941  1.1453
 7420TIP3   OH243674   4.555   2.371   1.372 -0.0585  0.1098 -0.3685
 7420TIP3    H143675   4.511   2.454   1.356 -0.1198 -0.1718 -1.7758
 7420TIP3    H243676   4.542   2.354   1.465  1.0037  2.2641  0.2323
 7421TIP3   OH243677   3.575   6.642  16.606 -0.2094  0.1511 -0.1994
 7421TIP3    H143678   3.502   6.698  16.579 -0.7275  0.1566  1.1315
 7421TIP3    H243679   3.600   6.595  16.527  1.3495  3.4254 -1.8710
 7422TIP3   OH243680   0.446   2.833  12.127  0.2243 -0.3506 -0.0117
 7422TIP3    H143681   0.409   2.791  12.049 -2.2565  1.3139  0.1686
 7422TIP3    H243682   0.501   2.903  12.092  0.0748 -0.3639 -0.2819
 7423TIP3   OH243683   6.752   4.702  11.276  0.4056 -0.0757  0.8339
 7423TIP3    H143684   6.692   4.776  11.287 -0.2227 -0.6688  1.4948
 7423TIP3    H243685   6.835   4.742  11.250 -0.2573  0.7694 -0.0875
 7424TIP3   OH243686   5.480   3.927  13.475  0.7394 -0.0734  0.5991
 7424TIP3    H143687   5.414   3.857  13.469  0.3259  0.3558 -0.0389
 7424TIP3    H243688   5.495   3.937  13.569  0.2557 -0.5197  0.7338
 7425TIP3   OH243689   4.080   4.585   3.562  0.1593  0.3237  0.0605
 7425TIP3    H143690   4.092   4.680   3.564  2.6256  0.0702  2.3096
 7425TIP3    H243691   4.110   4.555   3.648 -3.6648 -2.2306  0.7620
 7426TIP3   OH243692   0.486   2.924  15.129 -0.3632 -0.3342 -0.6118
 7426TIP3    H143693   0.548   2.852  15.113  0.8581  0.4897  0.1958
 7426TIP3    H243694   0.420   2.887  15.188  0.3286 -0.7756 -0.0971
 7427TIP3   OH243695   2.697   2.314  10.543 -0.0438 -0.0447  0.2668
 7427TIP3    H143696   2.773   2.372  10.540  0.0975 -0.2500 -1.0143
 7427TIP3    H243697   2.724   2.237  10.492 -1.3565  0.2085 -0.8808
 7428TIP3   OH243698   4.764   0.050   5.112  0.0067 -0.6264  0.3323
 7428TIP3    H143699   4.854   0.069   5.085 -0.4426  1.2247 -0.0177
 7428TIP3    H243700   4.728   0.135   5.137 -1.8541 -1.2162 -0.1566
 7429TIP3   OH243701   6.287   4.139  16.917  0.2592  0.1600  0.4198
 7429TIP3    H143702   6.282   4.230  16.946 -2.2001 -0.0893  1.0148
 7429TIP3    H243703   6.320   4.144  16.827 -0.8813  1.7577  0.0479
 7430TIP3   OH243704   1.166   1.021   2.295 -0.1182  0.2188 -0.3387
 7430TIP3    H143705   1.138   0.964   2.366  0.8310  0.7760  0.5211
 7430TIP3    H243706   1.238   0.973   2.253 -0.6649 -0.1014 -0.9266
 7431TIP3   OH243707   3.786   3.360  16.262 -0.6045 -0.7189 -0.4121
 7431TIP3    H143708   3.700   3.389  16.231 -0.9113 -0.3574  0.7282
 7431TIP3    H243709   3.773   3.344  16.356  1.0721  1.2893  0.2152
 7432TIP3   OH243710   5.352   1.406  16.574  0.2843 -0.3591 -0.2102
 7432TIP3    H143711   5.321   1.377  16.659  0.4465 -1.6550 -0.5705
 7432TIP3    H243712   5.274   1.403  16.518  0.5163 -1.2277 -0.5140
 7433TIP3   OH243713   4.077   6.162  12.414 -0.1256 -0.6122  0.0560
 7433TIP3    H143714   4.008   6.142  12.478 -0.7670  1.5991  0.1171
 7433TIP3    H243715   4.031   6.206  12.342  0.5691 -2.9930 -2.0321
 7434TIP3   OH243716   2.520   6.251   5.361  0.0231 -0.2054 -0.0516
 7434TIP3    H143717   2.513   6.312   5.287 -0.1567 -0.5726 -0.3470
 7434TIP3    H243718   2.564   6.174   5.324 -0.4174 -0.5466  0.1196
 7435TIP3   OH243719   3.263   5.313   4.448  0.2162 -0.3208  0.7968
 7435TIP3    H143720   3.210   5.283   4.522 -0.6615 -0.0218  0.3073
 7435TIP3    H243721   3.202   5.314   4.374  0.4960  1.5485  0.5398
 7436TIP3   OH243722   0.035   6.101   2.989  0.1436  0.2305  0.3161
 7436TIP3    H143723   0.081   6.065   3.065  0.6639  1.5025  0.6354
 7436TIP3    H243724  -0.055   6.111   3.018 -0.1192 -1.2309  0.0604
 7437TIP3   OH243725   2.950   2.643  16.904  0.2774  0.7433 -0.1389
 7437TIP3    H143726   2.987   2.685  16.827  0.4168 -1.3493 -1.3035
 7437TIP3    H243727   2.938   2.552  16.878 -1.5087  0.3751  1.6893
 7438TIP3   OH243728   5.287   5.806  15.990  0.4174  0.7421  0.1294
 7438TIP3    H143729   5.251   5.856  15.916  0.3096  0.2438 -0.1562
 7438TIP3    H243730   5.279   5.715  15.964  2.8502  0.6203 -0.4143
 7439TIP3   OH243731   5.298   4.970  15.507  0.3848 -0.1314  0.4717
 7439TIP3    H143732   5.239   4.917  15.561  1.6884  1.4745  3.8124
 7439TIP3    H243733   5.378   4.918  15.502  0.4669 -0.0316  0.6887
 7440TIP3   OH243734   1.546   2.996   4.403 -0.2275 -0.2082 -0.4637
 7440TIP3    H143735   1.458   3.007   4.441 -0.2032 -0.3363 -0.3686
 7440TIP3    H243736   1.569   3.083   4.371 -0.3347 -0.1436 -0.3683
 7441TIP3   OH243737   4.148   4.931   6.370 -0.1865  0.4464 -0.0348
 7441TIP3    H143738   4.100   4.910   6.290  0.2705  0.6495 -0.3722
 7441TIP3    H243739   4.240   4.914   6.347 -0.0896  0.1474  0.5669
 7442TIP3   OH243740   0.493   3.910  12.947  0.2571  0.5945  0.1684
 7442TIP3    H143741   0.556   3.909  12.875 -0.9806 -1.5931 -1.0085
 7442TIP3    H243742   0.407   3.909  12.904 -0.5303 -0.6979  1.6457
 7443TIP3   OH243743   4.967   0.256   6.383 -0.2866  0.0190  0.3145
 7443TIP3    H143744   4.975   0.221   6.471 -0.0375 -1.7685 -0.3787
 7443TIP3    H243745   4.978   0.180   6.326  2.2958  1.4814 -1.3529
 7444TIP3   OH243746   2.995   1.431   0.129 -0.6316  0.3071 -0.3362
 7444TIP3    H143747   2.953   1.372   0.191  1.6103 -1.6652 -0.5441
 7444TIP3    H243748   3.029   1.502   0.182  1.5531 -1.5188  0.8600
 7445TIP3   OH243749   5.966   6.552  15.291  0.0824  0.1457 -0.4160
 7445TIP3    H143750   6.001   6.545  15.203  2.5997 -1.2073  0.5818
 7445TIP3    H243751   5.885   6.501  15.289 -0.4681  0.9998 -2.1311
 7446TIP3   OH243752   6.002   1.586   3.623  0.3460 -0.8420 -0.0973
 7446TIP3    H143753   6.087   1.577   3.665  0.8469 -1.4812 -1.2258
 7446TIP3    H243754   6.022   1.605   3.531 -0.7249 -1.1483 -0.4074
 7447TIP3   OH243755   2.120   2.977  15.689  0.1630  0.5166 -0.0613
 7447TIP3    H143756   2.168   2.913  15.742  0.2599  0.0411 -0.7167
 7447TIP3    H243757   2.044   3.001  15.743 -0.7127 -1.3019 -0.4017
 7448TIP3   OH243758   0.775   0.184   2.281  0.0083 -0.3200  0.0156
 7448TIP3    H143759   0.683   0.194   2.259  0.1781 -0.3223 -0.7062
 7448TIP3    H243760   0.803   0.106   2.232  0.4540 -0.1784  0.0400
 7449TIP3   OH243761   3.423   4.450  11.541 -0.0415 -0.4141  0.2658
 7449TIP3    H143762   3.449   4.537  11.572 -1.2119 -0.5980  1.9152
 7449TIP3    H243763   3.397   4.404  11.621 -3.1616 -0.9867 -0.9447
 7450TIP3   OH243764   3.797   2.718   2.569  0.2936  0.5136 -0.2825
 7450TIP3    H143765   3.733   2.656   2.535  1.7034 -1.0009 -0.2742
 7450TIP3    H243766   3.864   2.664   2.611  1.4574  2.0466 -0.0563
 7451TIP3   OH243767   6.646   1.556   4.445  0.1658 -0.1165  0.4943
 7451TIP3    H143768   6.588   1.598   4.381  1.6343  1.0622 -0.1195
 7451TIP3    H243769   6.586   1.514   4.507 -1.3227 -0.0033 -0.7829
 7452TIP3   OH243770   4.601   6.536   5.114 -0.0617 -0.5084  0.3824
 7452TIP3    H143771   4.571   6.548   5.204  0.0167 -0.3247  0.3864
 7452TIP3    H243772   4.685   6.491   5.122 -0.1040 -0.5832  0.3969
 7453TIP3   OH243773   2.591   1.811  12.289 -0.6877 -0.1636 -0.6407
 7453TIP3    H143774   2.551   1.889  12.329  2.1252  1.3562 -0.5396
 7453TIP3    H243775   2.645   1.774  12.359 -0.2109 -0.8552 -1.3651
 7454TIP3   OH243776   4.042   3.774   0.984  0.0708  0.1656 -0.4270
 7454TIP3    H143777   4.058   3.863   0.953  0.0722  0.2487 -0.1893
 7454TIP3    H243778   4.064   3.777   1.077 -2.6476  0.6344  0.2605
 7455TIP3   OH243779   2.702   6.565  12.217 -0.5496  0.3186 -0.1195
 7455TIP3    H143780   2.708   6.480  12.262 -1.3773  0.0698 -0.4688
 7455TIP3    H243781   2.789   6.604  12.229 -0.5128 -0.0704  1.0416
 7456TIP3   OH243782   5.909   5.283   5.064 -0.8017 -0.2847 -0.1357
 7456TIP3    H143783   5.966   5.208   5.045 -1.2979 -0.7531  0.1827
 7456TIP3    H243784   5.855   5.293   4.986  0.1891  0.6157 -0.7309
 7457TIP3   OH243785   6.546   3.207   1.522  0.4126  0.7661  0.4349
 7457TIP3    H143786   6.556   3.172   1.434  0.4537 -0.6902  0.9883
 7457TIP3    H243787   6.451   3.215   1.534  0.2938 -1.1014  0.9968
 7458TIP3   OH243788   5.297   5.349   6.095  0.0649  0.3334 -0.0228
 7458TIP3    H143789   5.316   5.262   6.060  0.2007  0.2532  0.2480
 7458TIP3    H243790   5.206   5.345   6.123 -0.2564  0.6096 -0.9969
 7459TIP3   OH243791   2.714   1.861  14.060 -0.1682  0.2104  0.0411
 7459TIP3    H143792   2.745   1.882  14.148  1.4143 -0.9514 -0.1995
 7459TIP3    H243793   2.652   1.789  14.073  0.9920 -0.7979  0.1282
 7460TIP3   OH243794   4.371   5.196  10.977  0.3673  0.4504  0.2304
 7460TIP3    H143795   4.463   5.181  10.955  0.5710  0.3414  1.1133
 7460TIP3    H243796   4.367   5.289  11.000 -0.0811  0.8485 -1.3618
 7461TIP3   OH243797   6.124   0.012   0.082 -0.1799  0.0958  0.0646
 7461TIP3    H143798   6.171   0.093   0.101  0.6858 -0.7247  1.6265
 7461TIP3    H243799   6.181  -0.035   0.020  1.0479 -0.8111  1.8087
 7462TIP3   OH243800   1.999   4.689  15.717  0.2915  0.2749 -0.2273
 7462TIP3    H143801   1.958   4.617  15.764 -0.8090  0.1248 -1.3699
 7462TIP3    H243802   1.944   4.765  15.736 -0.0989  0.2337 -1.1762
 7463TIP3   OH243803   5.893   3.859  16.084 -0.0088  0.3404 -0.0130
 7463TIP3    H143804   5.918   3.806  16.159  0.3715 -0.6545 -0.8223
 7463TIP3    H243805   5.805   3.892  16.106 -0.4150 -0.9265  0.3438
 7464TIP3   OH243806   3.045   3.289   2.085  0.2653 -0.0465 -0.1814
 7464TIP3    H143807   3.007   3.207   2.052  3.4809 -1.3385 -1.1068
 7464TIP3    H243808   3.124   3.302   2.031  0.2303  3.3539  0.3859
 7465TIP3   OH243809   6.385   5.783   2.976 -0.4587  0.6093  0.4028
 7465TIP3    H143810   6.326   5.857   2.963 -1.3974 -0.2298 -0.3548
 7465TIP3    H243811   6.421   5.766   2.888  1.4307  1.4890  0.9508
 7466TIP3   OH243812   5.895   1.073   0.763  0.1197  0.0927 -0.5637
 7466TIP3    H143813   5.919   1.154   0.808  0.6511 -0.4800  0.2123
 7466TIP3    H243814   5.954   1.069   0.688 -0.5943  0.9227 -1.1864
 7467TIP3   OH243815   2.007   5.004  12.806 -0.3431 -0.3437 -0.3861
 7467TIP3    H143816   1.960   4.922  12.815 -0.2643 -0.1564  2.3795
 7467TIP3    H243817   2.093   4.978  12.772  0.3963 -1.7392  2.2704
 7468TIP3   OH243818   3.075   1.720  14.586  0.3635  0.2979 -0.1758
 7468TIP3    H143819   3.127   1.646  14.555 -1.0990 -0.7881 -0.0985
 7468TIP3    H243820   3.101   1.731  14.678 -1.7757 -2.3256  0.8561
 7469TIP3   OH243821   5.921   1.476  15.633 -0.1546 -0.2054 -0.1031
 7469TIP3    H143822   5.910   1.477  15.538  1.9219 -2.5390 -0.4890
 7469TIP3    H243823   5.948   1.565  15.655 -0.3437  0.2908 -1.7419
 7470TIP3   OH243824   4.050   4.528  11.479 -0.5785  0.0575 -0.4767
 7470TIP3    H143825   3.968   4.479  11.478  0.3108 -1.5085 -0.2251
 7470TIP3    H243826   4.093   4.504  11.396  0.8807 -1.4434  0.6568
 7471TIP3   OH243827   1.673   3.036   5.651  0.1982 -0.1153  0.0946
 7471TIP3    H143828   1.662   3.124   5.685 -0.9977 -0.8484  1.7278
 7471TIP3    H243829   1.726   3.047   5.572 -0.8143  2.1622 -0.3405
 7472TIP3   OH243830   4.256   4.179  12.843 -0.3382 -0.2185 -0.5025
 7472TIP3    H143831   4.250   4.096  12.891  2.7339 -1.2614 -1.6895
 7472TIP3    H243832   4.293   4.240  12.906  1.1038 -0.8583 -0.6828
 7473TIP3   OH243833   4.594   2.788  17.132 -0.2307  0.1114  0.3497
 7473TIP3    H143834   4.620   2.713  17.186 -0.1815 -0.4799 -0.4626
 7473TIP3    H243835   4.662   2.792  17.064  0.1811  1.3685  0.8166
 7474TIP3   OH243836   6.775   6.118   3.324 -0.2487  0.1163 -0.1227
 7474TIP3    H143837   6.815   6.052   3.267  1.7266  0.2716  1.0313
 7474TIP3    H243838   6.812   6.102   3.410  1.1721  3.3599  0.0211
 7475TIP3   OH243839   6.400   2.498   3.564  0.3831  0.3564 -0.4462
 7475TIP3    H143840   6.392   2.414   3.609 -0.0348  0.1126 -0.9726
 7475TIP3    H243841   6.491   2.523   3.577  0.4590 -0.0744 -0.1135
 7476TIP3   OH243842   3.807   3.219  11.392  0.0235 -0.1847  0.1424
 7476TIP3    H143843   3.732   3.220  11.333 -1.1797 -2.2675  1.4774
 7476TIP3    H243844   3.795   3.295  11.449 -1.1841 -0.5587  0.4160
 7477TIP3   OH243845   2.997   5.105  11.475  0.4144  0.1880  0.1957
 7477TIP3    H143846   3.040   5.060  11.403 -1.1452 -1.1229  0.0332
 7477TIP3    H243847   2.969   5.189  11.438 -1.2169 -0.8539 -1.0430
 7478TIP3   OH243848   5.073   0.420   1.116 -0.0190 -0.2930  0.3402
 7478TIP3    H143849   5.068   0.501   1.066 -0.3174 -0.9976 -0.7953
 7478TIP3    H243850   5.163   0.389   1.102 -0.0398 -0.3833  0.4062
 7479TIP3   OH243851   1.600   2.207  13.302 -0.1671  0.0493  0.2955
 7479TIP3    H143852   1.583   2.293  13.341  0.6206  0.0927  0.5731
 7479TIP3    H243853   1.694   2.208  13.282  0.0396 -1.0462  1.0737
 7480TIP3   OH243854   1.750   6.743   5.268 -0.0710 -0.2620 -0.0322
 7480TIP3    H143855   1.761   6.745   5.363  1.5935  0.9123 -0.2062
 7480TIP3    H243856   1.830   6.704   5.235 -0.8478 -1.1308 -0.9685
 7481TIP3   OH243857   1.993   1.049   4.341  0.4777 -0.1230 -0.0147
 7481TIP3    H143858   1.939   1.073   4.265 -0.7960 -0.4793  0.7478
 7481TIP3    H243859   2.020   0.959   4.324  0.1617 -0.2154 -0.0426
 7482TIP3   OH243860   4.373   2.445   0.036 -0.3935  0.6131  0.1523
 7482TIP3    H143861   4.386   2.534   0.071  0.1193  1.0277 -1.0568
 7482TIP3    H243862   4.337   2.459  -0.051 -3.2404 -0.4272  1.0594
 7483TIP3   OH243863   6.309   3.477   5.565  0.0849  0.2369  0.3403
 7483TIP3    H143864   6.361   3.466   5.486  1.4308 -1.7196  1.4071
 7483TIP3    H243865   6.267   3.563   5.555  2.1087  1.1021 -1.3835
 7484TIP3   OH243866   1.109   3.472  12.829 -0.6191  0.2956  0.2158
 7484TIP3    H143867   1.132   3.545  12.772  0.0272  0.5597  0.8150
 7484TIP3    H243868   1.135   3.500  12.917  1.0676 -1.2317  0.2668
 7485TIP3   OH243869   5.184   4.668   5.378  0.5467 -0.1226  0.2262
 7485TIP3    H143870   5.217   4.739   5.434 -1.5127  0.2535  1.0625
 7485TIP3    H243871   5.166   4.596   5.439  1.1100 -0.8180 -0.4036
 7486TIP3   OH243872   1.689   1.596   0.541  0.0987 -0.3903 -0.1147
 7486TIP3    H143873   1.639   1.540   0.481 -0.1094 -0.7498  0.3910
 7486TIP3    H243874   1.677   1.556   0.627 -0.3562  0.6270  0.3172
 7487TIP3   OH243875   0.826   0.591   1.764  0.3572 -0.1042  0.0219
 7487TIP3    H143876   0.900   0.536   1.788 -0.9207 -2.3364 -0.7986
 7487TIP3    H243877   0.749   0.538   1.787 -1.0039  1.8712  0.2971
 7488TIP3   OH243878   6.008   5.732  12.311 -0.7936 -0.3789  0.1332
 7488TIP3    H143879   6.096   5.744  12.347 -0.6100  0.3018 -0.5272
 7488TIP3    H243880   5.976   5.820  12.295 -0.7228 -0.6411 -1.6895
 7489TIP3   OH243881   2.213   1.293   0.887 -0.7051 -0.6119 -0.2924
 7489TIP3    H143882   2.258   1.373   0.861 -0.9054 -1.5645 -4.2150
 7489TIP3    H243883   2.283   1.228   0.895 -0.6371 -0.3300  2.0192
 7490TIP3   OH243884   0.711   4.662   1.816  0.0743  0.1732 -0.5097
 7490TIP3    H143885   0.757   4.738   1.852  1.8348 -0.4358 -1.3470
 7490TIP3    H243886   0.661   4.626   1.890  0.1624  1.4287  0.1867
 7491TIP3   OH243887   3.663   5.459  13.172  0.5312  0.1027  0.8934
 7491TIP3    H143888   3.673   5.519  13.099  1.9416  0.2289  1.1583
 7491TIP3    H243889   3.628   5.513  13.243  1.1048  0.4603  0.9130
 7492TIP3   OH243890   4.326   4.844  11.736 -0.2996  0.3776  1.0181
 7492TIP3    H143891   4.315   4.749  11.743  0.0931  0.1745 -0.7012
 7492TIP3    H243892   4.376   4.868  11.814  0.2842 -0.9477  1.0859
 7493TIP3   OH243893   6.129   1.362   5.092 -0.2201  0.1582  0.0615
 7493TIP3    H143894   6.094   1.340   5.179 -0.3296  2.0293  0.5294
 7493TIP3    H243895   6.056   1.403   5.047 -0.0142 -0.3668 -0.7633
 7494TIP3   OH243896   5.008   0.619  14.607 -0.2764  0.6904  0.1197
 7494TIP3    H143897   5.022   0.529  14.637  0.1051  0.5050 -0.5962
 7494TIP3    H243898   4.944   0.610  14.536  0.4511  0.8756 -0.5665
 7495TIP3   OH243899   6.647   4.413  14.224  0.6253  0.4144  0.2439
 7495TIP3    H143900   6.666   4.443  14.135  2.5429  1.3271  0.8945
 7495TIP3    H243901   6.716   4.349  14.243 -0.7366 -1.0094  0.5080
 7496TIP3   OH243902   2.918   2.362  11.820 -0.0564  0.0336  0.7978
 7496TIP3    H143903   2.925   2.435  11.759  0.5265 -0.9321 -0.3184
 7496TIP3    H243904   2.875   2.293  11.771  1.3141 -1.1059  1.1238
 7497TIP3   OH243905   5.726   0.396   0.577 -0.1428  0.5212  0.2469
 7497TIP3    H143906   5.657   0.345   0.619 -1.5339  1.9226 -0.2705
 7497TIP3    H243907   5.807   0.363   0.616 -1.1577 -0.4258  1.6369
 7498TIP3   OH243908   2.174   6.276  13.102 -0.2219  0.0930  0.0456
 7498TIP3    H143909   2.107   6.208  13.102 -0.6442  0.4958  0.5909
 7498TIP3    H243910   2.154   6.328  13.024 -0.4278  0.0905  0.0934
 7499TIP3   OH243911   1.331   5.005  16.937 -0.0512 -0.0667 -0.6591
 7499TIP3    H143912   1.293   5.004  17.026  1.0798 -1.1510 -0.1609
 7499TIP3    H243913   1.389   5.081  16.937 -1.1415  0.7855 -0.9648
 7500TIP3   OH243914   1.499   0.743   0.485 -0.4930 -0.2500  0.8003
 7500TIP3    H143915   1.434   0.699   0.429 -2.0947  0.2281  2.2109
 7500TIP3    H243916   1.476   0.836   0.478 -0.2231 -0.1208  1.6457
 7501TIP3   OH243917   0.271   4.312   1.084 -1.1115 -0.5184  0.4065
 7501TIP3    H143918   0.203   4.360   1.037  0.4963  1.4081 -0.0561
 7501TIP3    H243919   0.278   4.229   1.037 -1.6383  0.1380 -0.8701
 7502TIP3   OH243920   0.250   0.405  14.309 -0.0857 -0.1327 -0.3936
 7502TIP3    H143921   0.251   0.480  14.249 -1.4350 -0.2642 -0.5943
 7502TIP3    H243922   0.208   0.438  14.388 -0.4772 -0.6064 -0.4019
 7503TIP3   OH243923   2.698   1.624   1.126 -0.8291  0.2566  0.2096
 7503TIP3    H143924   2.635   1.680   1.080 -1.7922 -0.8224  0.1744
 7503TIP3    H243925   2.647   1.549   1.156  0.0362  0.3031  1.9515
 7504TIP3   OH243926   4.430   6.013  14.795  0.7539  1.1986  0.3259
 7504TIP3    H143927   4.512   5.975  14.826  0.8352  0.2951 -0.9032
 7504TIP3    H243928   4.366   5.993  14.863  1.2746  0.7198  0.6769
 7505TIP3   OH243929   2.535   5.484   4.981  0.3432  0.1854 -0.9195
 7505TIP3    H143930   2.573   5.505   4.896 -0.6219 -1.5190 -1.8213
 7505TIP3    H243931   2.530   5.388   4.983 -1.4106  0.2398  0.2438
 7506TIP3   OH243932   2.820   6.000  14.235 -0.4429 -0.6018 -0.1859
 7506TIP3    H143933   2.913   5.990  14.258 -0.1372 -2.5100 -1.9762
 7506TIP3    H243934   2.811   5.956  14.150 -3.2068 -1.4624  0.4389
 7507TIP3   OH243935   2.654   6.539  11.585  0.1534 -0.9122 -0.2142
 7507TIP3    H143936   2.733   6.572  11.628 -0.1120  0.0798 -0.4541
 7507TIP3    H243937   2.612   6.482  11.650  0.0475  0.1131  0.6353
 7508TIP3   OH243938   5.329   1.849   5.964 -0.7984 -0.1598 -0.3112
 7508TIP3    H143939   5.409   1.880   5.922 -0.3716 -0.3387  0.3585
 7508TIP3    H243940   5.297   1.780   5.906  0.0417 -0.7337 -0.1079
 7509TIP3   OH243941   4.343   4.407  14.142 -0.0556  0.0320  0.5841
 7509TIP3    H143942   4.320   4.499  14.147 -1.4333 -0.2902  0.5571
 7509TIP3    H243943   4.335   4.385  14.049  0.3629 -0.0900  0.5758
 7510TIP3   OH243944   0.121   6.610   0.719  0.2243  0.2660 -0.0973
 7510TIP3    H143945   0.102   6.701   0.698  1.1438  0.2910 -0.9069
 7510TIP3    H243946   0.216   6.602   0.708  0.4201 -0.3658  1.6778
 7511TIP3   OH243947   5.985   1.100  14.234  0.3071  0.2252 -0.4976
 7511TIP3    H143948   6.069   1.073  14.196  1.0108  0.4659  0.8406
 7511TIP3    H243949   5.937   1.019  14.247 -0.3077  0.1752 -2.5997
 7512TIP3   OH243950   0.309   0.415  15.867 -0.1156 -0.1812  0.0052
 7512TIP3    H143951   0.295   0.436  15.960  0.9835 -0.9878  0.3789
 7512TIP3    H243952   0.396   0.376  15.865 -0.0412  0.0382 -1.4168
 7513TIP3   OH243953   3.705   2.517   6.513  0.5497  0.0095  0.1712
 7513TIP3    H143954   3.714   2.423   6.502  1.2324  0.0533  0.2719
 7513TIP3    H243955   3.664   2.528   6.599  0.9564 -0.1885  0.3936
 7514TIP3   OH243956   4.591   2.552   5.640 -0.5054  0.1049  0.4916
 7514TIP3    H143957   4.525   2.542   5.572  0.6680  1.0048 -0.8358
 7514TIP3    H243958   4.638   2.469   5.641  0.5699  0.6490 -1.0499
 7515TIP3   OH243959   2.787   3.727  14.810 -0.2807 -0.4145 -0.4359
 7515TIP3    H143960   2.720   3.795  14.817 -0.6081 -0.7578 -0.1277
 7515TIP3    H243961   2.869   3.774  14.798 -0.2455  0.1267  1.5163
 7516TIP3   OH243962   5.871   6.606  17.054 -0.9649  0.0684 -0.0441
 7516TIP3    H143963   5.944   6.555  17.020 -1.5374  0.0090 -1.2038
 7516TIP3    H243964   5.795   6.547  17.050 -1.3075  0.4884  0.1049
 7517TIP3   OH243965   2.094   0.040  14.788  0.7039  0.0181 -0.2585
 7517TIP3    H143966   2.136   0.104  14.730  0.0827  0.6977  0.0364
 7517TIP3    H243967   2.058  -0.025  14.728  2.6391 -0.9104 -0.5116
 7518TIP3   OH243968   4.824   3.582  15.954 -0.2666 -0.0200  0.2319
 7518TIP3    H143969   4.758   3.618  16.014 -0.7880  1.2011 -1.0142
 7518TIP3    H243970   4.789   3.601  15.867  0.5046 -1.6998 -0.4722
 7519TIP3   OH243971   3.776   3.462   5.870  0.1987  0.3249 -0.0604
 7519TIP3    H143972   3.809   3.511   5.946  0.7757  0.3366 -0.3103
 7519TIP3    H243973   3.849   3.404   5.847  0.2703  0.7779 -1.0000
 7520TIP3   OH243974   5.765   2.637  14.690  0.1967  0.6056  0.0258
 7520TIP3    H143975   5.686   2.685  14.712 -0.2066  0.1396 -0.3890
 7520TIP3    H243976   5.736   2.547  14.674  1.0773 -0.0292  1.7275
 7521TIP3   OH243977   0.105   0.822  17.217 -0.5333 -0.3275  0.1030
 7521TIP3    H143978   0.018   0.838  17.182 -0.2073 -0.7097 -0.9357
 7521TIP3    H243979   0.164   0.874  17.162  0.0643 -1.4946 -0.4055
 7522TIP3   OH243980   5.171   2.553  10.734  0.5422 -0.1864 -0.3397
 7522TIP3    H143981   5.141   2.638  10.766  0.4723 -1.0879  2.2451
 7522TIP3    H243982   5.264   2.550  10.758  0.6663 -0.6535 -0.8592
 7523TIP3   OH243983   1.211   6.762  14.681  0.2903 -0.5661 -0.1921
 7523TIP3    H143984   1.180   6.760  14.591 -2.5000 -3.1281  0.6284
 7523TIP3    H243985   1.294   6.715  14.680  0.1741 -0.7620 -1.3789
 7524TIP3   OH243986   1.103   5.832   5.248  0.5860 -0.5128  0.0455
 7524TIP3    H143987   1.031   5.836   5.186  0.8009  0.8999 -0.1305
 7524TIP3    H243988   1.176   5.875   5.204  1.7491 -2.3975 -0.0031
 7525TIP3   OH243989   1.606   5.811   2.035 -0.0610  0.3592 -0.7032
 7525TIP3    H143990   1.625   5.841   1.946 -0.3297  0.0899 -0.8532
 7525TIP3    H243991   1.661   5.866   2.091 -2.1043  2.6676 -0.7823
 7526TIP3   OH243992   2.334   1.996   2.176  0.5693 -0.0380 -0.1637
 7526TIP3    H143993   2.375   1.988   2.262 -0.4346 -1.2352  0.2396
 7526TIP3    H243994   2.303   2.086   2.172  1.3791  0.2709  0.3694
 7527TIP3   OH243995   3.249   5.255   0.895 -0.1604  0.7806 -0.1423
 7527TIP3    H143996   3.294   5.173   0.873  0.7624  1.3865 -0.6087
 7527TIP3    H243997   3.277   5.274   0.985  0.6192  1.2072 -0.4665
 7528TIP3   OH243998   2.972   5.853   3.064  0.1109  0.0210  0.3985
 7528TIP3    H143999   2.934   5.937   3.039 -0.5108 -0.4356 -0.2121
 7528TIP3    H244000   3.035   5.875   3.133  1.2902  1.2267 -0.9852
 7529TIP3   OH244001   5.910   6.179  13.759  0.5248  0.0670  0.1142
 7529TIP3    H144002   5.871   6.232  13.690 -2.2965 -0.8818  0.8531
 7529TIP3    H244003   5.959   6.111  13.713  0.4197  0.6764 -0.9021
 7530TIP3   OH244004   2.504   2.269   5.225 -0.1006 -0.1918  0.2457
 7530TIP3    H144005   2.485   2.205   5.293 -0.5009  0.0839  0.3959
 7530TIP3    H244006   2.468   2.231   5.145  1.2840 -0.9950 -0.0225
 7531TIP3   OH244007   6.105   5.373   3.848 -0.2468 -0.1888 -0.1089
 7531TIP3    H144008   6.126   5.312   3.919  0.2845 -0.4340 -0.4685
 7531TIP3    H244009   6.109   5.459   3.889  0.5082 -0.2991  0.0552
 7532TIP3   OH244010   4.619   2.943   1.277  0.1648  0.4695 -0.2401
 7532TIP3    H144011   4.654   2.906   1.196  1.3319  1.8699 -0.4211
 7532TIP3    H244012   4.563   3.016   1.248 -1.6202 -0.6908  0.1320
 7533TIP3   OH244013   2.527   3.783  11.782  0.0351  0.6559  0.1235
 7533TIP3    H144014   2.476   3.773  11.862  0.4672  0.9985  0.4511
 7533TIP3    H244015   2.463   3.803  11.714 -0.4411 -0.5975  0.1872
 7534TIP3   OH244016   2.631   2.636  13.508  0.1367 -0.1935 -0.6075
 7534TIP3    H144017   2.545   2.665  13.476 -0.0981 -1.0379 -0.7761
 7534TIP3    H244018   2.691   2.655  13.436  0.2533  1.1743 -0.1668
 7535TIP3   OH244019   3.099   1.776   1.539 -0.0265 -0.1511 -0.2057
 7535TIP3    H144020   3.092   1.682   1.522  2.8789 -1.0219  2.6181
 7535TIP3    H244021   3.064   1.788   1.627 -0.7173  1.5304 -0.6680
 7536TIP3   OH244022   3.523   4.547  16.093  0.2228  0.1845 -0.0114
 7536TIP3    H144023   3.498   4.461  16.060  0.8946 -0.7843  1.8774
 7536TIP3    H244024   3.489   4.608  16.028 -1.6208 -1.4031 -0.6402
 7537TIP3   OH244025   6.127   0.773  16.250  0.0973 -0.0165  0.0356
 7537TIP3    H144026   6.046   0.729  16.275  0.2849 -0.2999  0.1473
 7537TIP3    H244027   6.099   0.844  16.192 -0.5344  1.7415  2.3514
 7538TIP3   OH244028   5.528   3.962   3.244  0.4340 -0.1254  0.7085
 7538TIP3    H144029   5.526   3.973   3.339  0.3487  1.8935  0.5090
 7538TIP3    H244030   5.541   3.868   3.231 -1.5496 -0.7650  2.6953
 7539TIP3   OH244031   5.256   3.837  10.867 -0.2086  0.4214 -0.5780
 7539TIP3    H144032   5.269   3.926  10.834 -1.6913  1.4130  1.2950
 7539TIP3    H244033   5.161   3.829  10.879  0.0727 -0.5227  1.4909
 7540TIP3   OH244034   0.146   1.925  14.632 -0.2193 -0.0017  0.2657
 7540TIP3    H144035   0.175   1.945  14.542  0.2388  0.8757  0.5922
 7540TIP3    H244036   0.051   1.924  14.626 -0.2247 -3.4182 -0.9345
 7541TIP3   OH244037   2.337   5.074  10.411 -0.6042 -0.5649  0.2662
 7541TIP3    H144038   2.245   5.088  10.436 -0.6951 -0.7629  0.0465
 7541TIP3    H244039   2.369   5.011  10.475 -0.8489 -1.1019 -0.1321
 7542TIP3   OH244040   0.485   0.594  14.434 -0.0715  0.9142 -0.0817
 7542TIP3    H144041   0.491   0.680  14.475 -1.5991  0.2515  1.6291
 7542TIP3    H244042   0.508   0.532  14.503 -3.2636 -0.2748  0.0524
 7543TIP3   OH244043   6.173   3.038   3.037  0.0344 -0.0864 -0.4327
 7543TIP3    H144044   6.177   3.129   3.065 -1.9499  0.2633 -1.1095
 7543TIP3    H244045   6.219   3.037   2.953 -0.8002  0.5345 -0.9154
 7544TIP3   OH244046   3.736   2.358   2.270  0.2016  0.1300 -0.3411
 7544TIP3    H144047   3.727   2.264   2.279 -0.2884  0.1961 -0.0934
 7544TIP3    H244048   3.713   2.393   2.356  1.6266  0.4073 -0.0605
 7545TIP3   OH244049   5.768   3.367   5.137  0.1933  0.1270  0.6604
 7545TIP3    H144050   5.739   3.449   5.177 -1.2200 -0.6307  1.2569
 7545TIP3    H244051   5.796   3.312   5.211 -0.2340 -0.4402  0.4113
 7546TIP3   OH244052   5.906   3.195   1.565 -0.1098 -0.1011 -0.6698
 7546TIP3    H144053   5.861   3.147   1.634 -0.1008 -0.1543 -0.7003
 7546TIP3    H244054   5.908   3.285   1.595  0.3118 -0.2038 -0.3833
 7547TIP3   OH244055   4.877   6.010  15.676 -0.1038 -0.1008  0.4133
 7547TIP3    H144056   4.929   6.008  15.757 -0.2408 -1.5847  0.4928
 7547TIP3    H244057   4.788   6.032  15.705  0.2607  1.4971  0.3898
 7548TIP3   OH244058   5.253   5.833  11.313 -0.3516 -0.2467 -0.3518
 7548TIP3    H144059   5.229   5.825  11.221 -0.3589 -2.0868 -0.2298
 7548TIP3    H244060   5.343   5.801  11.317  0.5661  2.1233 -0.0550
 7549TIP3   OH244061   5.726   6.400  15.661 -0.2616  0.3808  0.4910
 7549TIP3    H144062   5.713   6.306  15.670  0.5883  0.0732 -1.2264
 7549TIP3    H244063   5.807   6.418  15.709 -1.1255  0.5040  1.9739
 7550TIP3   OH244064   4.374   5.803  13.292 -0.5712 -0.2000 -0.0245
 7550TIP3    H144065   4.317   5.727  13.283  1.7601 -1.9138 -1.8945
 7550TIP3    H244066   4.388   5.833  13.202  1.6183 -0.0842  0.2817
 7551TIP3   OH244067   3.455   5.328  11.185 -0.1311  0.0174  0.3565
 7551TIP3    H144068   3.431   5.412  11.225  0.3520  1.0267 -1.3678
 7551TIP3    H244069   3.548   5.319  11.205 -0.4662 -0.8252  1.7007
 7552TIP3   OH244070   1.894   2.816   5.666  0.3970 -0.2839  0.4183
 7552TIP3    H144071   1.869   2.887   5.606  2.9403  0.4124  0.0660
 7552TIP3    H244072   1.987   2.829   5.680  0.2681 -1.6069  3.0428
 7553TIP3   OH244073   5.340   5.410   3.152 -0.1801  0.2124 -0.0039
 7553TIP3    H144074   5.304   5.485   3.198  0.1201  0.2458  0.1809
 7553TIP3    H244075   5.299   5.334   3.193 -0.1698  0.2575  0.0903
 7554TIP3   OH244076   2.089   5.052   0.877  0.2148  0.0839  0.2485
 7554TIP3    H144077   1.995   5.056   0.891  0.2956  0.9761  0.5985
 7554TIP3    H244078   2.121   5.139   0.901  1.1638 -0.2972  0.4331
 7555TIP3   OH244079   0.175   2.444  14.588 -0.2566 -0.6692  0.6970
 7555TIP3    H144080   0.238   2.379  14.619  0.8812  0.7477  1.5024
 7555TIP3    H244081   0.174   2.510  14.657  2.7056  2.8662 -2.2353
 7556TIP3   OH244082   1.709   0.993   3.953 -0.1378 -0.1774  0.6164
 7556TIP3    H144083   1.758   1.012   3.873  1.4548 -0.3226  1.5288
 7556TIP3    H244084   1.699   0.898   3.954 -0.7476 -0.1285  0.2869
 7557TIP3   OH244085   5.981   0.080  16.968 -0.0392  0.1438  0.1878
 7557TIP3    H144086   5.901   0.132  16.979 -0.4535  0.8819 -4.3182
 7557TIP3    H244087   5.951  -0.011  16.977 -0.5094  0.4495  2.2955
 7558TIP3   OH244088   3.859   1.979  11.998 -0.2803 -0.1829 -0.0998
 7558TIP3    H144089   3.800   1.986  11.922  0.0300  1.0715 -0.2441
 7558TIP3    H244090   3.850   2.063  12.043 -0.2167 -0.7960  1.0904
 7559TIP3   OH244091   2.659   4.728   6.574  0.1387  0.0888  0.6631
 7559TIP3    H144092   2.619   4.681   6.500 -2.0542  1.8009  0.6559
 7559TIP3    H244093   2.720   4.665   6.612 -0.9772 -1.9451 -0.7071
 7560TIP3   OH244094   2.626   5.357   4.050  0.4846  0.1513  0.9294
 7560TIP3    H144095   2.622   5.426   4.116 -2.4886 -0.2658  1.3199
 7560TIP3    H244096   2.597   5.399   3.969 -0.6831 -0.4027  1.0251
 7561TIP3   OH244097   0.965   1.830   6.578 -0.7456 -0.2442 -0.1974
 7561TIP3    H144098   0.979   1.879   6.498 -2.6764 -1.2644 -1.2318
 7561TIP3    H244099   0.960   1.738   6.550  0.7113 -0.8644  1.3927
 7562TIP3   OH244100   3.720   6.589  12.709 -0.6502 -0.0967  0.0304
 7562TIP3    H144101   3.733   6.660  12.772 -0.4163 -0.6332  0.5873
 7562TIP3    H244102   3.684   6.517  12.760  2.1498 -1.5421  0.1633
 7563TIP3   OH244103   3.091   5.190   2.910 -0.5542  0.1680  1.2344
 7563TIP3    H144104   3.163   5.245   2.879 -0.3412 -1.2922 -1.0553
 7563TIP3    H244105   3.017   5.250   2.918 -0.6395  0.7237 -2.2935
 7564TIP3   OH244106   6.331   3.506   4.842  0.4928 -0.2848  0.6031
 7564TIP3    H144107   6.304   3.445   4.773  0.9760  0.2308 -0.0498
 7564TIP3    H244108   6.249   3.537   4.880  0.1506  0.6529 -0.8261
 7565TIP3   OH244109   6.260   5.593  17.158 -0.0838 -0.1933 -0.6220
 7565TIP3    H144110   6.350   5.559  17.150  1.1680  2.5648  0.3651
 7565TIP3    H244111   6.241   5.588  17.251 -0.0123  1.2626 -0.4980
 7566TIP3   OH244112   6.548   5.217  13.409  0.5357  0.1077  0.1272
 7566TIP3    H144113   6.476   5.187  13.466 -0.0498  0.6638 -0.2998
 7566TIP3    H244114   6.604   5.140  13.399  0.7581  0.0551  1.6177
 7567TIP3   OH244115   2.567   6.114   0.299 -0.1449  0.1420  0.3272
 7567TIP3    H144116   2.645   6.079   0.341 -0.4264  0.5800  1.2467
 7567TIP3    H244117   2.600   6.175   0.233  0.3451 -1.5759 -1.1069
 7568TIP3   OH244118   3.672   5.943   1.550  0.4285  1.0441 -0.2090
 7568TIP3    H144119   3.643   5.876   1.488  0.3055  1.5930 -0.7538
 7568TIP3    H244120   3.718   5.894   1.618 -1.5607  0.1673  0.5844
 7569TIP3   OH244121   5.940   3.757  11.366  0.0511 -0.4550 -0.1101
 7569TIP3    H144122   5.998   3.830  11.342  3.2042 -2.1876  1.4625
 7569TIP3    H244123   5.916   3.717  11.283  1.2544  0.2937 -0.8654
 7570TIP3   OH244124   4.245   6.276   3.645  0.1012  0.3460 -0.4040
 7570TIP3    H144125   4.162   6.230   3.640  1.1640 -1.8504  0.6597
 7570TIP3    H244126   4.307   6.219   3.600  1.3265  1.1900  0.1526
 7571TIP3   OH244127   5.441   0.382  14.809 -0.0744  0.0613  0.1910
 7571TIP3    H144128   5.480   0.419  14.888  2.1133  0.7360 -1.1140
 7571TIP3    H244129   5.502   0.313  14.783 -0.9160 -0.3510 -0.7460
 7572TIP3   OH244130   1.180   3.663  15.682  0.0744 -0.0832 -0.1994
 7572TIP3    H144131   1.168   3.569  15.669  0.9298 -0.4553  1.3812
 7572TIP3    H244132   1.163   3.702  15.597 -0.2871 -1.6738 -0.8824
 7573TIP3   OH244133   0.263   0.495   2.655 -0.5464  0.3919  0.3105
 7573TIP3    H144134   0.203   0.468   2.585 -0.6413  0.7540  0.2545
 7573TIP3    H244135   0.280   0.587   2.638  1.3711 -0.0850 -0.6863
 7574TIP3   OH244136   6.562   6.514   2.211 -0.2375  0.2966  0.2623
 7574TIP3    H144137   6.485   6.562   2.240 -1.5955 -1.7853  0.2822
 7574TIP3    H244138   6.578   6.450   2.281 -1.3031 -2.3206 -1.7403
 7575TIP3   OH244139   6.590   5.158  12.573  0.3498  0.1967 -0.1167
 7575TIP3    H144140   6.634   5.194  12.650  1.1608  1.1316 -0.9968
 7575TIP3    H244141   6.512   5.212  12.562  1.9541  2.3518 -1.8917
 7576TIP3   OH244142   4.961   2.005   3.027  0.8228 -0.6009  0.0894
 7576TIP3    H144143   5.035   1.944   3.030  1.9886  0.5456 -2.4957
 7576TIP3    H244144   4.909   1.976   2.952 -0.3401 -0.2236  0.7180
 7577TIP3   OH244145   6.117   2.936   4.182 -0.1604  0.7674  0.5739
 7577TIP3    H144146   6.209   2.947   4.157  0.0853 -1.0462  0.5234
 7577TIP3    H244147   6.117   2.859   4.239 -1.7912  0.0458 -0.3324
 7578TIP3   OH244148   0.147   3.733   3.864  0.0662  0.2922  0.3909
 7578TIP3    H144149   0.168   3.639   3.866 -1.7672 -0.1788 -0.4795
 7578TIP3    H244150   0.053   3.736   3.878 -0.1420  1.8979 -1.0668
 7579TIP3   OH244151   5.181   3.586  17.142  0.1101 -0.3754  0.0810
 7579TIP3    H144152   5.204   3.653  17.206 -0.3279 -0.3480  0.2126
 7579TIP3    H244153   5.144   3.635  17.068 -1.1433 -0.5259  0.5846
 7580TIP3   OH244154   1.963   1.392   0.900  0.4323 -0.2318  0.0420
 7580TIP3    H144155   2.040   1.362   0.852  0.8883 -1.8484  1.7126
 7580TIP3    H244156   1.996   1.418   0.986 -0.8963 -1.2267  0.8932
 7581TIP3   OH244157   0.801   3.862   5.695 -0.3892  0.4764  0.0594
 7581TIP3    H144158   0.766   3.846   5.607 -2.0358 -1.5100  0.9783
 7581TIP3    H244159   0.743   3.813   5.753  1.5744  0.4225  2.1249
 7582TIP3   OH244160   4.703   2.088   0.103  0.2970  0.3552  0.0431
 7582TIP3    H144161   4.707   2.092   0.007  0.8240 -0.2962  0.0380
 7582TIP3    H244162   4.622   2.042   0.122  0.6099 -0.2743 -0.1125
 7583TIP3   OH244163   0.958   0.483  13.526 -0.2110  0.0015  0.2428
 7583TIP3    H144164   0.914   0.416  13.577 -1.3847 -0.0944 -0.8507
 7583TIP3    H244165   1.043   0.495  13.569 -1.2444  0.1302  2.3698
 7584TIP3   OH244166   3.971   1.933   3.751  0.2290  0.0261  0.0533
 7584TIP3    H144167   3.947   2.008   3.806  1.9801 -1.3517  2.9071
 7584TIP3    H244168   3.891   1.881   3.746 -0.2983  0.7987  0.2269
 7585TIP3   OH244169   0.155   4.590  10.993  0.0476  0.4395  0.0586
 7585TIP3    H144170   0.075   4.631  10.961 -0.6904 -1.5078 -0.7407
 7585TIP3    H244171   0.180   4.642  11.069  1.3454  4.7192 -2.9274
 7586TIP3   OH244172   5.331   5.461   4.000 -0.2192  0.2355  0.1566
 7586TIP3    H144173   5.274   5.391   4.031  0.7575 -0.7129 -0.1235
 7586TIP3    H244174   5.401   5.465   4.065  0.1480  0.3960 -0.2396
 7587TIP3   OH244175   2.432   0.213  16.874  0.2285 -0.1506  0.0522
 7587TIP3    H144176   2.364   0.155  16.839  0.5776 -0.9595  0.6868
 7587TIP3    H244177   2.438   0.190  16.967  0.6142  0.6710  0.2420
 7588TIP3   OH244178   3.221   2.874   0.872 -0.4579 -0.1471  0.2449
 7588TIP3    H144179   3.211   2.917   0.956 -1.6674 -0.4986  0.3003
 7588TIP3    H244180   3.136   2.835   0.854 -0.1003 -0.4480 -0.9416
 7589TIP3   OH244181   3.179   4.284   3.155  0.5478  0.1404  0.0456
 7589TIP3    H144182   3.105   4.224   3.151  0.6587  0.0056 -0.0259
 7589TIP3    H244183   3.220   4.278   3.068  0.9931 -0.2457  0.2761
 7590TIP3   OH244184   5.538   6.608  11.090 -0.6236 -0.1206  0.1985
 7590TIP3    H144185   5.509   6.698  11.098 -0.3248  0.3498 -2.7829
 7590TIP3    H244186   5.629   6.609  11.120 -0.2110  0.8903 -1.0273
 7591TIP3   OH244187   3.532   5.003   3.407 -0.2582 -0.6130 -0.3201
 7591TIP3    H144188   3.453   5.050   3.382 -0.6566 -0.8181  0.5253
 7591TIP3    H244189   3.532   5.006   3.503  0.8497 -0.4542 -0.3117
 7592TIP3   OH244190   0.098   4.483   0.750 -0.2163  0.3668 -0.4346
 7592TIP3    H144191   0.167   4.419   0.766 -0.9205  0.1290  2.0874
 7592TIP3    H244192   0.140   4.568   0.763  0.0161  0.2986 -0.7300
 7593TIP3   OH244193   1.079   3.189  16.647  0.3613 -0.4421 -0.1086
 7593TIP3    H144194   1.024   3.262  16.672 -0.7522 -1.5304  0.6905
 7593TIP3    H244195   1.023   3.133  16.594  1.5499 -0.1571 -1.7938
 7594TIP3   OH244196   4.528   2.489  11.220  0.2764 -0.1825 -0.0178
 7594TIP3    H144197   4.580   2.410  11.232  2.4741  1.3195  0.9327
 7594TIP3    H244198   4.563   2.530  11.141  1.2999  1.3395  1.1661
 7595TIP3   OH244199   1.829   1.033   5.640  0.3320  0.0835  0.5430
 7595TIP3    H144200   1.750   0.981   5.624  0.1154  0.9912 -1.7615
 7595TIP3    H244201   1.884   0.977   5.694 -0.1998 -2.3120 -1.2115
 7596TIP3   OH244202   0.173   5.378  16.500 -0.1870  0.3351 -0.0019
 7596TIP3    H144203   0.219   5.372  16.583 -1.4254 -0.9193  0.6350
 7596TIP3    H244204   0.212   5.309  16.446  1.7179  2.1509 -1.1014
 7597TIP3   OH244205   3.991   4.517   2.289 -0.4134 -0.2613  0.6084
 7597TIP3    H144206   3.977   4.473   2.373  0.2275  1.2612  1.5573
 7597TIP3    H244207   4.074   4.563   2.300 -0.4320  0.1600 -0.8020
 7598TIP3   OH244208   3.162   5.584  16.239  0.3220  0.3159 -0.2927
 7598TIP3    H144209   3.225   5.569  16.170 -0.5384  0.0177 -1.0303
 7598TIP3    H244210   3.109   5.658  16.208  0.2525  0.5179  0.2835
 7599TIP3   OH244211   4.730   1.470  10.565 -0.1220  0.3200 -0.3156
 7599TIP3    H144212   4.692   1.496  10.649  1.6681 -0.1128  0.6685
 7599TIP3    H244213   4.707   1.542  10.505 -1.5374  0.5655  0.4943
 7600TIP3   OH244214   1.431   2.497   0.237  0.5007  0.8827  0.3465
 7600TIP3    H144215   1.490   2.469   0.307  1.8088 -0.6377 -1.2576
 7600TIP3    H244216   1.489   2.526   0.167 -0.6785  0.5604 -0.8080
 7601TIP3   OH244217   5.086   2.894  13.142  0.1465 -0.2253 -0.4449
 7601TIP3    H144218   5.065   2.885  13.049 -1.0526 -1.7782 -0.0624
 7601TIP3    H244219   5.166   2.842  13.154 -0.4726 -1.1827 -0.3695
 7602TIP3   OH244220   2.620   1.362  11.241 -0.1900  0.2053 -0.3209
 7602TIP3    H144221   2.546   1.422  11.238  0.4500  1.0994  0.9257
 7602TIP3    H244222   2.649   1.355  11.150 -0.4240  1.6058 -0.5215
 7603TIP3   OH244223   1.408   0.055   0.256 -0.0931 -0.4618 -0.6929
 7603TIP3    H144224   1.420   0.116   0.183  0.5846  1.2735  0.7652
 7603TIP3    H244225   1.345   0.099   0.313  0.9053 -0.7906  0.7186
 7604TIP3   OH244226   3.663   6.247   0.938  0.1270 -0.0415 -0.0245
 7604TIP3    H144227   3.705   6.261   0.853 -0.2420 -0.3741 -0.2669
 7604TIP3    H244228   3.682   6.156   0.959 -0.3495 -0.1522 -0.0688
 7605TIP3   OH244229   2.381   3.676  14.627 -0.0291  0.0644  0.0687
 7605TIP3    H144230   2.287   3.692  14.634 -0.4437 -0.8572 -2.3989
 7605TIP3    H244231   2.387   3.591  14.582  1.8518  1.8187 -3.3882
 7606TIP3   OH244232   4.008   4.533  12.735 -0.1036 -0.2566  0.0952
 7606TIP3    H144233   3.917   4.533  12.706 -0.9451  0.4770  2.4586
 7606TIP3    H244234   4.059   4.507  12.658 -2.0746  1.7487 -2.0358
 7607TIP3   OH244235   1.850   3.698  13.095 -0.7731  0.2799  0.1642
 7607TIP3    H144236   1.811   3.743  13.170  0.2220  2.1214 -0.3495
 7607TIP3    H244237   1.851   3.764  13.026  2.2741  0.0483 -0.1583
 7608TIP3   OH244238   1.182   2.065  12.158  0.2536  0.2229 -0.3213
 7608TIP3    H144239   1.150   1.977  12.179  2.2496 -0.3819  0.3775
 7608TIP3    H244240   1.191   2.108  12.242  1.0205  0.4622 -0.5235
 7609TIP3   OH244241   5.467   6.218  14.082 -0.1978 -0.5048 -0.3992
 7609TIP3    H144242   5.421   6.134  14.081 -0.8292 -0.1731 -1.4449
 7609TIP3    H244243   5.558   6.196  14.067 -0.5058 -0.9399 -1.7296
 7610TIP3   OH244244   5.870   6.733  16.098  0.3476  0.3498 -0.0124
 7610TIP3    H144245   5.787   6.777  16.079  0.5119  1.5639  1.8492
 7610TIP3    H244246   5.908   6.717  16.012 -1.8582 -0.3783 -0.9421
 7611TIP3   OH244247   4.354   2.397   4.423 -0.3608  0.1318 -0.3007
 7611TIP3    H144248   4.258   2.392   4.417 -0.2232 -1.6078 -1.4831
 7611TIP3    H244249   4.372   2.387   4.517 -1.3109  0.0783 -0.1116
 7612TIP3   OH244250   1.064   5.812  11.038  0.1522 -0.5319 -0.3258
 7612TIP3    H144251   1.002   5.758  10.990  0.4624 -1.3116  0.1303
 7612TIP3    H244252   1.144   5.759  11.042  0.7278  0.2985 -0.5759
 7613TIP3   OH244253   5.090   0.670  12.387  0.0622  0.1765  0.6999
 7613TIP3    H144254   5.061   0.657  12.296 -1.0172 -2.6249  1.3360
 7613TIP3    H244255   5.154   0.600  12.402  0.0047  0.4070  2.1856
 7614TIP3   OH244256   1.554   6.001  14.052 -0.0014  0.8317 -0.2011
 7614TIP3    H144257   1.498   5.958  14.116 -0.6515  1.8015 -0.0885
 7614TIP3    H244258   1.614   6.054  14.105 -0.7482  1.8859 -0.3762
 7615TIP3   OH244259   2.002   1.876  13.012 -0.1738 -0.4441 -0.5312
 7615TIP3    H144260   2.032   1.895  12.923 -0.7534  1.5901 -0.3385
 7615TIP3    H244261   1.911   1.850  13.001 -0.0110 -0.9886 -0.6010
 7616TIP3   OH244262   4.700   5.395   0.758 -0.0744  0.1175 -0.0434
 7616TIP3    H144263   4.706   5.446   0.838 -0.2228  0.3417 -0.1741
 7616TIP3    H244264   4.614   5.416   0.721  0.2684  0.5508 -0.6139
 7617TIP3   OH244265   0.192   2.734   0.425 -0.4168  0.2587 -0.0744
 7617TIP3    H144266   0.203   2.812   0.480 -0.5530 -0.3610  0.8456
 7617TIP3    H244267   0.204   2.660   0.484  0.8756 -0.4481 -1.1593
 7618TIP3   OH244268   2.938   4.824  14.966 -0.3823  0.0546 -0.1269
 7618TIP3    H144269   3.016   4.863  14.925  1.0731 -0.1963  2.2002
 7618TIP3    H244270   2.965   4.735  14.988 -1.3082 -0.0263  0.7407
 7619TIP3   OH244271   5.919   5.160   4.045  0.4412  0.2419  0.0452
 7619TIP3    H144272   6.005   5.201   4.056  0.6287 -0.3829  1.0036
 7619TIP3    H244273   5.860   5.213   4.098  0.3427  0.3324 -0.1547
 7620TIP3   OH244274   4.775   4.663   0.625 -0.1037  0.0830  0.2545
 7620TIP3    H144275   4.771   4.666   0.529  1.1573 -0.1604  0.1779
 7620TIP3    H244276   4.846   4.722   0.648 -0.7764  0.5939  1.0986
 7621TIP3   OH244277   0.549   6.619   5.800  0.1430 -0.3139 -0.0988
 7621TIP3    H144278   0.533   6.577   5.885 -0.8546  0.6584  0.2176
 7621TIP3    H244279   0.612   6.562   5.757  0.4054 -1.0186  1.1570
 7622TIP3   OH244280   1.789   1.251   1.077 -0.2000  0.6492 -0.1610
 7622TIP3    H144281   1.848   1.283   1.009  0.4314 -0.1861 -0.0185
 7622TIP3    H244282   1.709   1.228   1.029  0.0948  0.4522 -0.5717
 7623TIP3   OH244283   1.197   5.405  11.528  0.0116  0.1037  0.1978
 7623TIP3    H144284   1.280   5.367  11.559  1.0397  1.8861 -0.2118
 7623TIP3    H244285   1.167   5.346  11.459  1.0122 -0.5038  0.2644
 7624TIP3   OH244286   0.116   2.514   1.399 -0.3245 -0.1239  0.4369
 7624TIP3    H144287   0.101   2.515   1.493  0.9829  0.6282  0.6556
 7624TIP3    H244288   0.041   2.562   1.363 -0.1049  0.8317  1.2146
 7625TIP3   OH244289   4.737   2.966   2.492  0.2579 -0.4807 -0.1528
 7625TIP3    H144290   4.671   2.981   2.425 -0.1222 -0.4453  0.2227
 7625TIP3    H244291   4.820   2.969   2.446  0.2236  2.4447 -0.1700
 7626TIP3   OH244292   5.023   3.453  14.334  0.3522  0.9773  0.5734
 7626TIP3    H144293   5.104   3.401  14.331  0.6555  1.4648 -0.8107
 7626TIP3    H244294   5.053   3.544  14.339 -0.1630  1.0887  2.1689
 7627TIP3   OH244295   2.161   0.527   3.986 -0.4193 -0.2817 -0.8926
 7627TIP3    H144296   2.073   0.493   3.970 -1.8420  2.3009  0.7611
 7627TIP3    H244297   2.149   0.621   3.995  2.2687 -0.0145  1.0184
 7628TIP3   OH244298   2.574   1.392   4.353  0.0411  0.3506 -0.0605
 7628TIP3    H144299   2.508   1.339   4.308 -0.1747 -0.0259  0.6860
 7628TIP3    H244300   2.576   1.357   4.442  0.1324  1.3851  0.3536
 7629TIP3   OH244301   4.055   5.551  11.849  0.5214  0.3026  0.6770
 7629TIP3    H144302   3.982   5.611  11.836  0.1517 -0.0052  1.3002
 7629TIP3    H244303   4.123   5.582  11.789  0.3988  1.4411  1.1102
 7630TIP3   OH244304   3.081   3.782  14.644 -0.6515  0.9986  0.0707
 7630TIP3    H144305   3.020   3.795  14.571 -0.9151  2.2962  0.4931
 7630TIP3    H244306   3.167   3.801  14.607 -0.5613 -0.1673 -0.3539
 7631TIP3   OH244307   1.874   4.766  11.913 -0.0812  0.3997 -0.5766
 7631TIP3    H144308   1.970   4.765  11.909 -0.0099  1.6293  0.2260
 7631TIP3    H244309   1.847   4.805  11.830  0.0323 -1.1026 -1.3542
 7632TIP3   OH244310   1.119   0.232   4.743 -0.2176  0.0150  0.5288
 7632TIP3    H144311   1.079   0.175   4.809  0.5321 -1.1417  0.0229
 7632TIP3    H244312   1.148   0.172   4.674  0.1514  1.0685 -0.2590
 7633TIP3   OH244313   2.402   2.887  16.547  0.0382 -0.0575  0.0463
 7633TIP3    H144314   2.464   2.960  16.544 -1.3958  1.2143 -2.9218
 7633TIP3    H244315   2.454   2.810  16.524  1.0548  0.4532  0.5525
 7634TIP3   OH244316   4.969   3.867  16.134  0.1413 -0.2635  0.0383
 7634TIP3    H144317   4.884   3.823  16.132 -0.5913  1.0965 -1.9287
 7634TIP3    H244318   4.975   3.903  16.222 -1.3965 -0.2840  0.1794
 7635TIP3   OH244319   6.590   1.964  12.598 -0.0624  0.9497  0.1594
 7635TIP3    H144320   6.529   2.023  12.554 -1.8274 -0.1852  0.9693
 7635TIP3    H244321   6.573   1.976  12.691  0.0569 -0.2847  0.3676
 7636TIP3   OH244322   0.825   1.777   1.347  0.4102  0.1287  0.2870
 7636TIP3    H144323   0.851   1.867   1.325  0.7968 -0.1506 -0.4281
 7636TIP3    H244324   0.908   1.728   1.347  0.1539 -0.3040  0.2837
 7637TIP3   OH244325   2.390   4.698  15.426 -0.2126  0.0778  0.0119
 7637TIP3    H144326   2.469   4.657  15.461 -0.1871 -0.4374 -0.6284
 7637TIP3    H244327   2.326   4.627  15.421 -0.1924  0.1187 -1.0358
 7638TIP3   OH244328   3.123   1.966  14.353  0.1934 -0.3626  0.5408
 7638TIP3    H144329   3.065   1.902  14.394  0.6090 -0.5965  0.7702
 7638TIP3    H244330   3.071   2.046  14.347  0.1139 -0.3308  1.5028
 7639TIP3   OH244331   1.895   3.335   4.131 -0.2617  0.2559 -0.5444
 7639TIP3    H144332   1.954   3.329   4.057  0.5919  2.8753 -0.2112
 7639TIP3    H244333   1.817   3.379   4.096 -0.0938  0.9670 -0.0542
 7640TIP3   OH244334   6.490   4.645   2.980  0.3341 -0.0804 -0.2317
 7640TIP3    H144335   6.491   4.669   3.073 -2.1412 -3.2910  0.8170
 7640TIP3    H244336   6.490   4.729   2.934  1.2586  1.6483  2.6485
 7641TIP3   OH244337   1.096   5.892  13.248 -0.6527  0.2499 -0.1239
 7641TIP3    H144338   1.036   5.851  13.185 -0.3876  0.6297 -0.6322
 7641TIP3    H244339   1.041   5.913  13.323 -0.9524 -0.3124 -0.1770
 7642TIP3   OH244340   0.715   4.923   3.139 -0.4929  0.2058  0.4492
 7642TIP3    H144341   0.695   4.943   3.231  0.1288  0.5846  0.5061
 7642TIP3    H244342   0.792   4.865   3.143  0.9715  2.0420  0.1126
 7643TIP3   OH244343   5.531   0.208   1.613  0.1531 -0.6893  0.0086
 7643TIP3    H144344   5.494   0.284   1.658 -0.1623 -2.3627  2.8354
 7643TIP3    H244345   5.459   0.174   1.560 -0.1904  0.0698 -0.0210
 7644TIP3   OH244346   2.418   4.057  13.698  0.3526  0.0012 -0.2032
 7644TIP3    H144347   2.459   4.062  13.784  1.8782  0.5927 -0.9221
 7644TIP3    H244348   2.379   3.970  13.694  1.4877 -0.5636  0.5596
 7645TIP3   OH244349   2.894   6.070   3.483 -0.6014 -0.3290 -0.2983
 7645TIP3    H144350   2.814   6.024   3.509 -0.5594 -0.2989 -0.1173
 7645TIP3    H244351   2.937   6.010   3.422 -1.0112 -0.1347 -0.7872
 7646TIP3   OH244352   3.795   5.863  11.509 -0.6367  0.0874 -0.0771
 7646TIP3    H144353   3.861   5.930  11.496 -1.7260  1.4076  0.9194
 7646TIP3    H244354   3.742   5.894  11.582 -2.1860 -1.0434 -0.6403
 7647TIP3   OH244355   1.451   6.012   3.725  0.5389 -0.4007  0.1590
 7647TIP3    H144356   1.435   6.046   3.637 -0.3771  0.3908  0.6208
 7647TIP3    H244357   1.542   5.982   3.723  0.6074 -0.1494 -0.9718
 7648TIP3   OH244358   5.701   0.893   6.041  0.2476  0.5166 -0.0569
 7648TIP3    H144359   5.635   0.954   6.009 -1.7132 -1.9728 -1.1267
 7648TIP3    H244360   5.667   0.862   6.124  0.8244  0.2746  0.0936
 7649TIP3   OH244361   2.197   4.874  15.863  0.5144  0.2894  0.5566
 7649TIP3    H144362   2.157   4.850  15.780  1.0076 -0.5166  0.5428
 7649TIP3    H244363   2.150   4.823  15.929  1.3201 -0.4612  0.5675
 7650TIP3   OH244364   2.140   4.422   6.590 -0.4896  0.0836 -0.4571
 7650TIP3    H144365   2.231   4.393   6.594 -1.3254 -2.6309  1.9441
 7650TIP3    H244366   2.142   4.511   6.626  1.0432 -0.5924  1.3068
 7651TIP3   OH244367   3.516   0.408  14.654 -0.6734 -0.7705 -0.1203
 7651TIP3    H144368   3.575   0.423  14.728 -0.0920 -0.2706 -0.6758
 7651TIP3    H244369   3.429   0.422  14.691 -0.2990  2.4771 -0.1685
 7652TIP3   OH244370   2.930   0.838  12.278  0.3258  0.0177  0.0412
 7652TIP3    H144371   2.848   0.866  12.319  1.2698 -0.1909  2.2044
 7652TIP3    H244372   2.992   0.907  12.299  0.4157  1.0085 -2.9773
 7653TIP3   OH244373   4.202   6.163   1.666 -0.4835 -0.1155 -0.2007
 7653TIP3    H144374   4.270   6.110   1.707 -0.6223  0.5585  0.9762
 7653TIP3    H244375   4.188   6.235   1.728 -1.3909  0.4312 -1.0085
 7654TIP3   OH244376   4.609   4.788  16.354  0.1226  0.0902  0.0719
 7654TIP3    H144377   4.678   4.837  16.398 -0.1570  1.7511 -1.2223
 7654TIP3    H244378   4.528   4.828  16.384 -0.0905  0.8476 -1.4218
 7655TIP3   OH244379   3.487   2.955  14.230 -0.3579 -0.9395  0.7031
 7655TIP3    H144380   3.478   3.018  14.159  0.3733  0.6956  1.9838
 7655TIP3    H244381   3.577   2.924  14.223  0.2679  0.4992  1.8612
 7656TIP3   OH244382   0.835   3.468  14.449 -0.5735 -0.7214 -0.1908
 7656TIP3    H144383   0.891   3.440  14.521 -0.4643 -2.7682 -1.0202
 7656TIP3    H244384   0.754   3.418  14.460 -1.5047  0.7234 -0.1529
 7657TIP3   OH244385   2.763   6.275  12.293  0.1056  0.2590 -0.4345
 7657TIP3    H144386   2.698   6.295  12.361  0.8419 -0.3894  0.4928
 7657TIP3    H244387   2.716   6.219  12.231 -0.1209 -0.6081  0.4822
 7658TIP3   OH244388   2.716   6.350  15.651  0.2430  0.3002 -0.4595
 7658TIP3    H144389   2.703   6.436  15.611  0.7208  0.0732 -1.1253
 7658TIP3    H244390   2.802   6.354  15.692  0.3220  0.1064 -0.6010
 7659TIP3   OH244391   2.657   2.498  15.544 -0.0804  0.2467  0.1400
 7659TIP3    H144392   2.707   2.454  15.612  0.0989 -0.0747 -0.1999
 7659TIP3    H244393   2.723   2.535  15.486 -0.2211 -0.7391 -0.6742
 7660TIP3   OH244394   2.270   1.735   2.640 -0.1583 -0.6528 -0.2145
 7660TIP3    H144395   2.181   1.745   2.606  0.2133 -0.5695 -1.2047
 7660TIP3    H244396   2.274   1.793   2.716 -0.7446 -0.1409 -0.5640
 7661TIP3   OH244397   1.973   1.995   3.875 -0.1398 -0.0739  0.2566
 7661TIP3    H144398   1.922   2.071   3.901 -0.0490 -0.2093  0.8364
 7661TIP3    H244399   2.061   2.029   3.858  0.0165 -0.1220  0.9607
 7662TIP3   OH244400   0.902   2.307  10.740 -0.4665  0.4813 -0.6152
 7662TIP3    H144401   0.858   2.252  10.675  0.2572 -0.1851 -0.5670
 7662TIP3    H244402   0.942   2.244  10.801  0.8239  1.0424 -0.8441
 7663TIP3   OH244403   3.364   1.632  12.090 -0.6947 -0.3588 -0.1226
 7663TIP3    H144404   3.325   1.555  12.132  0.1659 -0.5393  0.3753
 7663TIP3    H244405   3.433   1.596  12.034 -0.1426  0.0558  0.2745
 7664TIP3   OH244406   1.709   2.879   3.465  0.4218 -0.2667 -0.7519
 7664TIP3    H144407   1.663   2.796   3.476  0.8942 -0.5491 -0.8955
 7664TIP3    H244408   1.758   2.869   3.384  0.8474 -0.0178 -0.5273
 7665TIP3   OH244409   1.012   3.422   4.546 -0.2343 -0.3839  0.0101
 7665TIP3    H144410   0.922   3.413   4.579 -0.8504  0.4526 -1.3422
 7665TIP3    H244411   1.021   3.350   4.484  0.5211 -1.2593  1.0897
 7666TIP3   OH244412   4.492   0.024   3.371 -0.2431  0.0593  0.7092
 7666TIP3    H144413   4.447   0.043   3.289  2.3784 -0.3989 -0.9613
 7666TIP3    H244414   4.466  -0.066   3.392  0.1281 -0.3312 -0.4197
 7667TIP3   OH244415   1.580   0.253  14.152  0.2213  0.0607  0.4728
 7667TIP3    H144416   1.656   0.292  14.109 -0.2169  1.4525  0.8898
 7667TIP3    H244417   1.578   0.163  14.122  1.1391  0.4331 -0.7536
 7668TIP3   OH244418   2.828   0.542   1.022  0.4213  0.4814 -0.0867
 7668TIP3    H144419   2.745   0.567   1.062  0.2336  0.1055 -0.2322
 7668TIP3    H244420   2.813   0.551   0.928  0.4333  0.0926 -0.1298
 7669TIP3   OH244421   0.206   2.949  15.225  0.1123  0.8536  0.4010
 7669TIP3    H144422   0.265   3.009  15.271 -1.7184  2.3008  0.9876
 7669TIP3    H244423   0.125   2.951  15.277  0.4773 -3.5732  1.5314
 7670TIP3   OH244424   5.381   4.031   0.444  0.4949 -0.1315  0.6385
 7670TIP3    H144425   5.405   4.124   0.444  1.1666 -0.2541 -1.4845
 7670TIP3    H244426   5.439   3.991   0.508  2.5857  0.4133 -0.8281
 7671TIP3   OH244427   6.409   3.177   3.055 -0.1294  0.2174  0.0561
 7671TIP3    H144428   6.461   3.103   3.023 -1.3240 -0.2892 -0.7879
 7671TIP3    H244429   6.474   3.243   3.079  0.9423 -0.8403  0.1983
 7672TIP3   OH244430   0.022   6.106   1.847  0.6072 -0.0987 -0.1356
 7672TIP3    H144431   0.114   6.079   1.845  0.5427 -0.3257 -0.0756
 7672TIP3    H244432  -0.019   6.048   1.912  0.4367  0.0477 -0.1100
 7673TIP3   OH244433   4.757   0.484  16.053 -0.9304 -0.1229  0.0000
 7673TIP3    H144434   4.773   0.532  16.135  1.5063 -0.4160 -0.2220
 7673TIP3    H244435   4.770   0.550  15.985  1.9546 -0.8330 -0.2866
 7674TIP3   OH244436   3.104   5.478  15.219 -0.1545  0.3704 -0.1280
 7674TIP3    H144437   3.150   5.441  15.144  1.4598  1.0762  0.4564
 7674TIP3    H244438   3.129   5.571  15.220  0.1190  0.3152  1.4306
 7675TIP3   OH244439   2.152   2.589  13.957 -0.0266 -0.1068 -0.1486
 7675TIP3    H144440   2.060   2.613  13.949 -0.5279 -1.8608  0.0184
 7675TIP3    H244441   2.156   2.531  14.034  1.4438  0.9502  0.6305
 7676TIP3   OH244442   5.010   1.352  15.383 -0.5119  0.3612  0.2491
 7676TIP3    H144443   5.088   1.403  15.402 -1.5104  1.3246  2.0820
 7676TIP3    H244444   4.938   1.403  15.421 -1.7240 -1.6828  0.8841
 7677TIP3   OH244445   1.365   2.261  16.663  0.7486  0.2440  0.5616
 7677TIP3    H144446   1.393   2.279  16.573 -0.7454  0.9795  0.2015
 7677TIP3    H244447   1.370   2.165  16.671  1.0579  0.1858 -0.2482
 7678TIP3   OH244448   1.872   2.386   2.038  0.0761 -0.2382  0.4885
 7678TIP3    H144449   1.901   2.297   2.020  1.6697 -0.0047  1.6398
 7678TIP3    H244450   1.914   2.409   2.121 -1.3615  1.1326  0.8988
 7679TIP3   OH244451   1.689   3.714  15.691 -0.3275 -0.4820 -0.1057
 7679TIP3    H144452   1.741   3.703  15.771 -2.2244 -0.5435  1.1714
 7679TIP3    H244453   1.599   3.722  15.722 -1.0962 -0.3344 -2.2486
 7680TIP3   OH244454   5.271   3.082  14.917  0.5239  0.2200  0.1055
 7680TIP3    H144455   5.250   3.170  14.886 -2.1489 -0.3100  0.1891
 7680TIP3    H244456   5.360   3.066  14.885  1.2863  3.0966  0.5020
 7681TIP3   OH244457   4.890   4.867   2.693  0.0517  0.0280  0.1838
 7681TIP3    H144458   4.834   4.895   2.621  0.3680  0.1449 -0.0189
 7681TIP3    H244459   4.868   4.774   2.706 -1.3491  0.4668  1.1822
 7682TIP3   OH244460   6.742   5.022   0.587 -0.1152 -0.3121 -0.4893
 7682TIP3    H144461   6.785   5.056   0.665  0.9954 -1.5682 -0.5145
 7682TIP3    H244462   6.780   5.072   0.514 -0.3695  0.1211 -0.3304
 7683TIP3   OH244463   4.281   4.265   6.115  0.6461  0.1740 -0.1911
 7683TIP3    H144464   4.224   4.221   6.178 -0.4669  2.2247  0.3049
 7683TIP3    H244465   4.360   4.210   6.112  0.6582 -0.1372  2.7936
 7684TIP3   OH244466   3.105   6.602  13.042  0.3163  0.3474 -0.1890
 7684TIP3    H144467   3.188   6.555  13.047  0.3683  0.5560  1.9504
 7684TIP3    H244468   3.096   6.625  12.950  2.1438 -0.5223 -0.6373
 7685TIP3   OH244469   0.998   5.479  17.185  0.2800 -0.0073 -0.5263
 7685TIP3    H144470   1.000   5.573  17.206  0.9156 -0.0314 -0.4857
 7685TIP3    H244471   0.996   5.436  17.270 -0.6215 -0.0238 -0.5450
 7686TIP3   OH244472   4.067   1.071  13.607 -0.1572 -0.4830 -0.6245
 7686TIP3    H144473   4.086   1.124  13.684 -0.5175 -0.7323 -0.3618
 7686TIP3    H244474   4.038   1.134  13.541  1.7669 -0.0687 -1.1139
 7687TIP3   OH244475   4.576   2.183  13.448 -0.2794  0.0620  0.2474
 7687TIP3    H144476   4.640   2.235  13.399 -2.2638  1.0056 -1.5389
 7687TIP3    H244477   4.548   2.115  13.386  0.5803 -1.7526  1.7738
 7688TIP3   OH244478   2.633   4.341  15.767 -0.4942 -0.1586 -0.3718
 7688TIP3    H144479   2.714   4.392  15.765 -0.6440  0.0733 -0.5165
 7688TIP3    H244480   2.565   4.404  15.789 -1.3317  0.6568 -4.4679
 7689TIP3   OH244481   1.477   1.477   0.407 -0.4927 -0.3268  0.2840
 7689TIP3    H144482   1.439   1.556   0.370 -1.6499 -0.4893  1.0810
 7689TIP3    H244483   1.441   1.406   0.354 -1.5165 -0.4959  1.1600
 7690TIP3   OH244484   1.147   6.249  13.162 -0.0708  0.7634 -0.1068
 7690TIP3    H144485   1.080   6.206  13.216  1.7831 -1.8346  0.3527
 7690TIP3    H244486   1.134   6.212  13.074 -1.5507  3.1494 -0.9738
 7691TIP3   OH244487   5.011   5.099   1.054  0.0556 -0.1123 -0.1941
 7691TIP3    H144488   5.006   5.031   1.121  1.4502 -0.3028 -0.2357
 7691TIP3    H244489   4.920   5.119   1.032 -0.4093 -0.5505  1.2338
 7692TIP3   OH244490   5.031   5.815   1.935  0.2467 -0.2580 -0.0856
 7692TIP3    H144491   4.996   5.748   1.878 -0.2810  0.4443 -0.6032
 7692TIP3    H244492   4.969   5.819   2.008  0.4158 -0.5052  0.0736
 7693TIP3   OH244493   0.660   2.293   6.196  0.5107  0.7072  1.1195
 7693TIP3    H144494   0.724   2.303   6.267  0.8628  0.0154  0.9056
 7693TIP3    H244495   0.703   2.330   6.119  1.7434 -2.0017  0.3672
 7694TIP3   OH244496   3.904   0.435  10.983 -0.0208 -0.1219  0.5811
 7694TIP3    H144497   3.931   0.437  11.075  0.3388 -0.1279  0.4765
 7694TIP3    H244498   3.956   0.503  10.941 -1.6731  1.3369  0.7709
 7695TIP3   OH244499   5.772   5.330  16.772 -0.0211  0.2107  0.7715
 7695TIP3    H144500   5.694   5.300  16.817  1.7404 -1.7778  2.7445
 7695TIP3    H244501   5.808   5.399  16.827 -1.0590  2.1749 -0.8749
 7696TIP3   OH244502   1.624   4.715   0.743 -0.3793 -0.0576  0.6414
 7696TIP3    H144503   1.555   4.675   0.690  1.3526 -2.8610  0.3166
 7696TIP3    H244504   1.705   4.691   0.699  0.9326  1.3910  2.1376
 7697TIP3   OH244505   6.565   0.108  15.773  0.2553  0.5922 -0.2871
 7697TIP3    H144506   6.630   0.174  15.796  0.4539  0.2123  0.2572
 7697TIP3    H244507   6.481   0.152  15.786  0.3910  0.8555 -0.2932
 7698TIP3   OH244508   0.121   1.063   5.781 -0.1198 -0.3783  0.3549
 7698TIP3    H144509   0.063   0.991   5.757 -3.0623  1.9783 -0.2359
 7698TIP3    H244510   0.138   1.051   5.874 -1.5813 -1.1830  0.5444
 7699TIP3   OH244511   4.887   2.820   5.382  0.0287  0.6073  0.4758
 7699TIP3    H144512   4.939   2.846   5.305 -0.6433  0.2721 -0.0988
 7699TIP3    H244513   4.887   2.725   5.380 -0.2914  0.6019  0.6965
 7700TIP3   OH244514   0.493   0.439   1.374 -0.3762  0.2143  0.0352
 7700TIP3    H144515   0.466   0.367   1.431  0.4261 -0.0623  0.0836
 7700TIP3    H244516   0.412   0.470   1.334 -0.9763  0.4824  1.4039
 7701TIP3   OH244517   5.910   2.892  10.875 -0.0191 -0.2302 -0.2379
 7701TIP3    H144518   5.973   2.902  10.804 -0.8850 -0.7322 -1.0906
 7701TIP3    H244519   5.846   2.830  10.842  0.1064 -1.2681  1.3663
 7702TIP3   OH244520   1.635   3.689   3.401 -0.2962  0.2648  0.3554
 7702TIP3    H144521   1.686   3.626   3.350 -1.2571 -1.0657  0.9784
 7702TIP3    H244522   1.700   3.751   3.434  0.5806  0.0124 -0.8585
 7703TIP3   OH244523   3.745   1.307   4.216 -0.5148 -0.0913 -0.7574
 7703TIP3    H144524   3.839   1.296   4.229 -0.4603 -0.8505 -1.7082
 7703TIP3    H244525   3.737   1.378   4.152 -0.5670 -0.3014 -0.9867
 7704TIP3   OH244526   1.339   3.318  11.972 -0.9720  0.1242 -0.0724
 7704TIP3    H144527   1.296   3.296  12.055  0.2689 -0.2216  0.4945
 7704TIP3    H244528   1.392   3.395  11.992  0.6164 -0.9264 -0.1076
 7705TIP3   OH244529   0.223   5.933  16.939 -0.1787 -0.3215 -0.4890
 7705TIP3    H144530   0.196   5.858  16.886 -0.3626 -1.6813  1.4279
 7705TIP3    H244531   0.151   5.995  16.932 -1.4986 -1.6801  0.3658
 7706TIP3   OH244532   5.450   2.237  11.736 -0.1971 -0.0135 -0.3393
 7706TIP3    H144533   5.452   2.303  11.667 -1.6900  0.2774 -0.1483
 7706TIP3    H244534   5.473   2.155  11.692 -0.5083  0.2765 -1.0521
 7707TIP3   OH244535   2.768   6.754   4.367 -0.3006  0.5142  0.1260
 7707TIP3    H144536   2.767   6.658   4.366  1.3640  0.4721 -0.3727
 7707TIP3    H244537   2.679   6.779   4.342 -1.1577 -0.8769  1.6141
 7708TIP3   OH244538   4.408   0.844   4.503  0.0590  0.3029 -0.3507
 7708TIP3    H144539   4.317   0.874   4.505 -0.3040 -0.7043 -0.7553
 7708TIP3    H244540   4.411   0.773   4.566  0.9496  1.2800  0.7427
 7709TIP3   OH244541   6.624   6.502   5.169  0.1225  0.1255 -0.4760
 7709TIP3    H144542   6.577   6.562   5.227 -0.0896 -0.7113  0.2371
 7709TIP3    H244543   6.591   6.523   5.082  1.0606  1.9867 -0.4388
 7710TIP3   OH244544   1.883   5.645   2.155 -0.2742 -0.0463 -0.1270
 7710TIP3    H144545   1.858   5.616   2.243 -1.4392  0.4907 -0.2533
 7710TIP3    H244546   1.811   5.614   2.099  0.0480  0.3249 -0.7535
 7711TIP3   OH244547   2.632   0.857   4.200 -0.1240  0.1333 -0.9621
 7711TIP3    H144548   2.674   0.838   4.116  2.0286 -1.2968  0.3357
 7711TIP3    H244549   2.549   0.809   4.197  0.9349 -1.7790 -1.4564
 7712TIP3   OH244550   6.002   3.493   5.218 -0.2795  0.2277 -0.2274
 7712TIP3    H144551   5.914   3.523   5.195  0.2063  0.6846 -1.5946
 7712TIP3    H244552   5.991   3.449   5.303 -1.9759 -0.5745 -0.8162
 7713TIP3   OH244553   1.801   1.652  15.948  0.3917  0.6049 -0.0154
 7713TIP3    H144554   1.729   1.714  15.954  1.6394  2.0066  1.5587
 7713TIP3    H244555   1.845   1.674  15.866 -1.2357 -0.6567 -1.2951
 7714TIP3   OH244556   1.700   0.198   5.749  0.4484 -0.4824  0.5192
 7714TIP3    H144557   1.713   0.277   5.801  1.2964 -0.5029  0.3476
 7714TIP3    H244558   1.612   0.168   5.774 -0.4445  1.2220 -0.3874
 7715TIP3   OH244559   3.694   4.692   5.503  0.0773 -0.5050 -0.4163
 7715TIP3    H144560   3.772   4.700   5.558  0.8549 -2.2628 -1.1786
 7715TIP3    H244561   3.661   4.782   5.495  1.6856  0.2042  0.4012
 7716TIP3   OH244562   4.789   2.718   6.330  1.0294 -0.3405 -0.1915
 7716TIP3    H144563   4.819   2.802   6.294  0.5525  0.7056  1.7138
 7716TIP3    H244564   4.868   2.674   6.358  1.2150 -0.0856 -0.3057
 7717TIP3   OH244565   3.524   4.569  11.873  0.1107  0.1077 -0.8980
 7717TIP3    H144566   3.429   4.565  11.876  0.0793  1.2436  0.6347
 7717TIP3    H244567   3.543   4.654  11.833  0.4650  0.4840  0.0577
 7718TIP3   OH244568   2.498   1.055  15.198  0.5480 -0.3632  0.1010
 7718TIP3    H144569   2.505   1.046  15.103  0.3706  0.3213  0.0222
 7718TIP3    H244570   2.587   1.074  15.227  0.8839 -1.9668  0.2400
 7719TIP3   OH244571   4.591   5.224  11.784  0.0194  0.0332 -1.0925
 7719TIP3    H144572   4.595   5.302  11.729 -0.3336  0.1722 -0.9215
 7719TIP3    H244573   4.578   5.151  11.723  2.2935 -0.1440 -1.4562
 7720TIP3   OH244574   0.289   4.600  16.796 -0.0893  0.0438  0.4603
 7720TIP3    H144575   0.215   4.574  16.742 -0.7273  0.0506  1.3203
 7720TIP3    H244576   0.358   4.538  16.773  0.1010  0.8258 -1.3030
 7721TIP3   OH244577   6.575   1.088  11.622  0.1617  1.1924  0.4649
 7721TIP3    H144578   6.516   1.128  11.685  0.1032  0.2297  1.0277
 7721TIP3    H244579   6.519   1.033  11.567  0.7413 -1.5829  2.4487
 7722TIP3   OH244580   0.979   0.676   0.740 -0.0434 -0.4308  1.0364
 7722TIP3    H144581   0.908   0.718   0.692 -0.2805 -1.8528  0.0938
 7722TIP3    H244582   0.950   0.677   0.831 -0.9840 -0.4458  0.7466
 7723TIP3   OH244583   5.300   6.079  11.410  0.0259 -0.0788 -0.0847
 7723TIP3    H144584   5.224   6.135  11.393  0.3790  0.2044 -0.8033
 7723TIP3    H244585   5.275   5.993  11.376 -0.0214 -0.0145 -0.2134
 7724TIP3   OH244586   0.440   6.629   1.254  0.2147 -0.0580 -0.2782
 7724TIP3    H144587   0.389   6.571   1.310  0.2821 -0.7099 -0.8831
 7724TIP3    H244588   0.475   6.573   1.185  1.1350  0.5119 -0.2985
 7725TIP3   OH244589   1.974   5.758   5.432  0.0458  0.1530  0.2921
 7725TIP3    H144590   1.939   5.845   5.413  0.5006  0.2117 -0.3018
 7725TIP3    H244591   1.980   5.756   5.527 -0.7765  0.4502  0.3631
 7726TIP3   OH244592   6.392   6.439   5.475 -0.8398  0.0402  0.4399
 7726TIP3    H144593   6.381   6.446   5.380 -2.6625  0.4430  0.6498
 7726TIP3    H244594   6.487   6.448   5.488 -0.2043 -2.5638 -1.5095
 7727TIP3   OH244595   2.620   3.252  13.077 -0.5834 -0.6448  0.0694
 7727TIP3    H144596   2.660   3.336  13.100  0.6020 -0.7477 -1.4358
 7727TIP3    H244597   2.693   3.198  13.047 -1.5865 -1.5284 -0.8697
 7728TIP3   OH244598   2.424   5.927  13.191 -0.5882 -0.4259 -0.4757
 7728TIP3    H144599   2.394   5.906  13.102 -0.2162  2.7620 -1.4780
 7728TIP3    H244600   2.409   5.846  13.241 -0.0625 -2.6224 -3.5601
 7729TIP3   OH244601   0.452   0.504   4.313 -0.2121  0.3516 -0.3223
 7729TIP3    H144602   0.544   0.495   4.338 -0.2406  0.5955 -0.1271
 7729TIP3    H244603   0.431   0.596   4.330 -1.0706 -0.1481  1.6167
 7730TIP3   OH244604   4.884   2.452   1.469  0.1948 -0.0318  0.6675
 7730TIP3    H144605   4.913   2.527   1.418 -0.5182 -0.5719 -0.5861
 7730TIP3    H244606   4.964   2.418   1.510  0.8858  0.1195 -0.5146
 7731TIP3   OH244607   2.645   0.020   4.630  0.0165 -0.0066  0.4277
 7731TIP3    H144608   2.578  -0.013   4.690 -0.7808 -1.0989 -1.0029
 7731TIP3    H244609   2.725   0.023   4.683 -1.2843  2.2978  2.4705
 7732TIP3   OH244610   5.585   4.869  13.745 -0.5810 -0.1893 -0.0110
 7732TIP3    H144611   5.667   4.832  13.777  0.0322  1.7007  0.7352
 7732TIP3    H244612   5.581   4.842  13.653  0.5870 -0.7697  0.0924
 7733TIP3   OH244613   5.262   4.781   1.110  0.5594 -0.1379 -0.0188
 7733TIP3    H144614   5.320   4.803   1.037  0.6720  1.0982  0.4150
 7733TIP3    H244615   5.317   4.731   1.170  0.3632 -1.4935 -0.9284
 7734TIP3   OH244616   1.263   3.808  11.406  0.3360 -1.0594  0.1556
 7734TIP3    H144617   1.187   3.808  11.347 -0.3673 -0.3793  1.0250
 7734TIP3    H244618   1.324   3.746  11.367  0.2070 -0.0833 -1.6816
 7735TIP3   OH244619   0.742   3.774  11.390 -0.2940 -0.3891 -0.5565
 7735TIP3    H144620   0.761   3.698  11.335 -0.1056 -0.0064 -1.0255
 7735TIP3    H244621   0.829   3.806  11.416 -0.3675 -0.2258 -0.5134
 7736TIP3   OH244622   2.953   3.592  12.970 -0.0194  0.7446  0.4459
 7736TIP3    H144623   2.966   3.520  12.907 -0.8984  1.3625 -0.4757
 7736TIP3    H244624   3.041   3.627  12.984  0.3606 -0.2082  0.5510
 7737TIP3   OH244625   2.806   5.363   0.149 -0.0813 -0.3850  0.1828
 7737TIP3    H144626   2.805   5.329   0.238 -0.7450 -0.7934  0.0264
 7737TIP3    H244627   2.890   5.335   0.113 -0.0745 -0.7515  0.4797
 7738TIP3   OH244628   4.887   6.026  11.591 -0.3505  0.2495 -0.3746
 7738TIP3    H144629   4.848   6.112  11.602  1.1882  0.8122  0.8884
 7738TIP3    H244630   4.861   5.978  11.670  0.4136  0.1967 -0.1558
 7739TIP3   OH244631   0.998   0.913  13.686 -0.2059 -0.9540  0.0073
 7739TIP3    H144632   0.915   0.873  13.715  0.2431 -0.3767  2.2665
 7739TIP3    H244633   1.015   0.982  13.750  0.7342  0.7017 -1.9174
 7740TIP3   OH244634   2.009   1.741   3.770  0.2222  0.1679 -0.3652
 7740TIP3    H144635   2.001   1.823   3.818  0.0098  0.0428 -0.1874
 7740TIP3    H244636   2.055   1.683   3.830  0.4016  0.1648 -0.5034
 7741TIP3   OH244637   2.733   1.503  15.897  0.2763  0.2817 -0.2907
 7741TIP3    H144638   2.662   1.525  15.957 -0.8374  1.5568 -1.9648
 7741TIP3    H244639   2.801   1.568  15.915 -0.5366  1.4094 -1.1488
 7742TIP3   OH244640   0.698   3.819   6.398 -0.4957  0.4953  0.2121
 7742TIP3    H144641   0.654   3.793   6.317 -1.0379  1.7243  0.0884
 7742TIP3    H244642   0.626   3.837   6.459 -0.1333  1.1377  0.4545
 7743TIP3   OH244643   1.623   0.302   4.864 -0.3096 -0.6032  0.1060
 7743TIP3    H144644   1.537   0.344   4.870  0.0125  0.4205 -1.5338
 7743TIP3    H244645   1.636   0.261   4.949 -1.2932  1.4274  1.3210
 7744TIP3   OH244646   0.010   3.555  16.562  0.0220 -0.6642 -0.1925
 7744TIP3    H144647  -0.034   3.602  16.633  0.0944 -0.8874  0.0002
 7744TIP3    H244648   0.103   3.571  16.577 -0.0283  1.1182 -1.5031
 7745TIP3   OH244649   3.101   2.281   4.175  0.4810 -0.3397 -0.4351
 7745TIP3    H144650   3.145   2.307   4.256  0.3242 -0.8637 -0.1744
 7745TIP3    H244651   3.024   2.232   4.204  2.0587 -3.2909 -0.8585
 7746TIP3   OH244652   2.438   1.619  12.142 -0.1050 -0.3786 -0.1679
 7746TIP3    H144653   2.410   1.551  12.203 -0.4271  0.0100  0.1306
 7746TIP3    H244654   2.483   1.684  12.197  1.1722 -0.8594 -0.5990
 7747TIP3   OH244655   4.249   5.776  11.976  0.1492  0.1859  0.1235
 7747TIP3    H144656   4.304   5.775  12.054  1.6995 -2.6578 -0.8614
 7747TIP3    H244657   4.214   5.688  11.969 -0.3824  0.5041 -2.0633
 7748TIP3   OH244658   0.308   2.179  15.118  0.0535  0.7334 -0.2188
 7748TIP3    H144659   0.226   2.142  15.087 -0.2379  1.1239  0.0706
 7748TIP3    H244660   0.287   2.217  15.203  0.6320  0.4762  0.0453
 7749TIP3   OH244661   4.400   1.249   5.480 -0.2385 -0.2017 -0.1789
 7749TIP3    H144662   4.306   1.237   5.470 -0.0055 -0.4905 -2.5991
 7749TIP3    H244663   4.415   1.341   5.459 -0.3163  0.9688  3.9831
 7750TIP3   OH244664   1.955   1.929  16.674 -0.2248 -0.5770  0.1140
 7750TIP3    H144665   2.029   1.982  16.644 -0.6366  0.5265  0.9887
 7750TIP3    H244666   1.952   1.856  16.612  1.1889 -0.3031 -0.3193
 7751TIP3   OH244667   0.520   4.693   3.202 -0.3206 -0.1832 -0.4141
 7751TIP3    H144668   0.571   4.639   3.141  0.1334  0.3740 -0.5385
 7751TIP3    H244669   0.567   4.776   3.205 -0.9237  0.1541 -0.1044
 7752TIP3   OH244670   3.346   0.834  11.779  0.0859  0.3440 -0.1286
 7752TIP3    H144671   3.379   0.910  11.825 -1.0519  0.2492  0.8962
 7752TIP3    H244672   3.317   0.774  11.848  1.5466 -1.3137 -0.8860
 7753TIP3   OH244673   0.903   2.193  15.202  0.0744 -0.1531  0.0847
 7753TIP3    H144674   0.897   2.127  15.270  0.6770 -1.0911 -0.7355
 7753TIP3    H244675   0.904   2.143  15.120  0.5299  0.8711 -0.5573
 7754TIP3   OH244676   0.262   6.607  13.728  0.1719  0.3438  0.1090
 7754TIP3    H144677   0.287   6.537  13.667  0.3391  0.0686  0.4936
 7754TIP3    H244678   0.200   6.567  13.788  0.3891  0.4799  0.4290
 7755TIP3   OH244679   5.221   1.580  14.740 -0.4927 -0.4944 -0.0213
 7755TIP3    H144680   5.181   1.497  14.765 -0.7715 -1.8699 -4.3040
 7755TIP3    H244681   5.314   1.560  14.730 -0.2201  0.2725  0.8064
 7756TIP3   OH244682   6.119   2.628   4.688  0.2219  0.3120 -0.5256
 7756TIP3    H144683   6.187   2.578   4.644 -0.6458 -0.8947 -0.5289
 7756TIP3    H244684   6.151   2.719   4.687  1.3524 -0.0827 -1.3983
 7757TIP3   OH244685   4.349   3.034  16.308 -0.3470 -0.2667 -0.1091
 7757TIP3    H144686   4.285   3.096  16.344  0.2011  1.3509 -1.7848
 7757TIP3    H244687   4.323   3.023  16.217  1.4050 -0.0012 -0.6805
 7758TIP3   OH244688   1.128   4.015   0.956  0.2729  0.0551  0.3366
 7758TIP3    H144689   1.035   4.016   0.932 -0.0434 -1.9404  1.2523
 7758TIP3    H244690   1.131   3.962   1.036  2.2142  0.0663  0.3064
 7759TIP3   OH244691   1.656   1.803   2.406 -1.0517 -0.6092 -0.2708
 7759TIP3    H144692   1.734   1.759   2.373 -1.1724 -0.0045 -1.4177
 7759TIP3    H244693   1.601   1.816   2.328 -2.1714 -0.7801  0.4759
 7760TIP3   OH244694   2.052   6.519  11.450 -0.6281  0.2232 -0.2057
 7760TIP3    H144695   1.977   6.579  11.454 -1.0266 -0.3365  0.9683
 7760TIP3    H244696   2.106   6.544  11.525  1.0648  1.4800 -1.7508
 7761TIP3   OH244697   4.927   6.070   3.403 -0.0566  0.4382  0.0425
 7761TIP3    H144698   4.848   6.016   3.402 -0.6262  1.1781  1.6892
 7761TIP3    H244699   4.979   6.034   3.474  0.6308  0.6080 -0.3700
 7762TIP3   OH244700   4.691   5.257  15.796  0.4031  0.4743 -0.3525
 7762TIP3    H144701   4.769   5.308  15.771  1.4478 -1.3095 -0.9250
 7762TIP3    H244702   4.689   5.263  15.892  0.2808  1.8632 -0.4237
 7763TIP3   OH244703   6.104   6.775  14.784 -0.1224  0.3391 -0.2849
 7763TIP3    H144704   6.161   6.848  14.761 -0.3605  0.2913 -1.0664
 7763TIP3    H244705   6.104   6.720  14.706 -0.2135 -0.3279  0.1747
 7764TIP3   OH244706   1.942   1.924   0.857 -0.7740  0.0166 -0.4381
 7764TIP3    H144707   1.957   2.011   0.820 -0.5703  0.0692 -0.2349
 7764TIP3    H244708   1.940   1.865   0.782 -1.3547  0.2548 -0.6146
 7765TIP3   OH244709   6.223   3.784   0.810  0.0909 -0.2657 -0.2138
 7765TIP3    H144710   6.169   3.837   0.868 -0.9596 -2.4330  0.9149
 7765TIP3    H244711   6.312   3.798   0.841 -0.1653  0.7043  0.1291
 7766TIP3   OH244712   3.182   4.034  12.054  0.2651  0.2209  0.2481
 7766TIP3    H144713   3.277   4.025  12.043  0.3257  0.2248  0.7790
 7766TIP3    H244714   3.145   3.961  12.004  0.6448 -1.3712  2.1714
 7767TIP3   OH244715   5.956   1.874  13.734 -0.4430 -0.0809  0.0445
 7767TIP3    H144716   5.988   1.880  13.824 -0.7658 -1.0850  0.2382
 7767TIP3    H244717   5.862   1.860  13.744 -0.6376  0.8319 -0.4741
 7768TIP3   OH244718   5.230   4.432   1.294  0.0415 -0.3558 -0.3049
 7768TIP3    H144719   5.183   4.404   1.216 -0.5050  0.0242 -0.1115
 7768TIP3    H244720   5.317   4.393   1.284  0.2677  0.4143 -1.5405
 7769TIP3   OH244721   2.375   3.293  13.918  0.1964 -0.6012 -0.2128
 7769TIP3    H144722   2.422   3.289  14.001 -0.3483 -0.4472  0.1055
 7769TIP3    H244723   2.442   3.272  13.852  0.6527 -0.6288  0.2498
 7770TIP3   OH244724   1.289   4.317  14.375  0.0031  0.7621  0.9990
 7770TIP3    H144725   1.300   4.240  14.318  3.2324  1.5053  0.4126
 7770TIP3    H244726   1.311   4.391  14.319 -0.4181  1.8751  2.2652
 7771TIP3   OH244727   4.180   1.908  16.620 -0.8128 -0.5783 -0.3316
 7771TIP3    H144728   4.130   1.857  16.684  0.3791 -0.5986  0.6137
 7771TIP3    H244729   4.118   1.974  16.588 -2.0494 -1.8779 -0.7361
 7772TIP3   OH244730   3.682   2.212  14.453 -0.1379 -0.6895  0.0069
 7772TIP3    H144731   3.778   2.202  14.453 -0.1806 -1.1517  0.3324
 7772TIP3    H244732   3.649   2.125  14.429 -0.4585 -0.1246 -1.7679
 7773TIP3   OH244733   6.015   5.029  15.631 -0.2646 -0.4710 -0.1917
 7773TIP3    H144734   5.936   5.080  15.617  0.5201  1.3424  1.4208
 7773TIP3    H244735   5.994   4.941  15.598 -2.2892  0.4121 -1.4273
 7774TIP3   OH244736   5.660   5.841  15.908  0.0701  0.3286 -0.1536
 7774TIP3    H144737   5.728   5.886  15.959 -2.0254  1.0718  2.2149
 7774TIP3    H244738   5.596   5.909  15.887 -0.0627 -0.3603 -2.2332
 7775TIP3   OH244739   3.270   2.282  16.330  0.4382  0.1582  0.0173
 7775TIP3    H144740   3.236   2.339  16.260  2.0551 -0.3479 -1.2610
 7775TIP3    H244741   3.364   2.280  16.315  0.5701 -1.8911  0.7701
 7776TIP3   OH244742   5.206   3.488   0.801  0.2270 -0.3334  0.0431
 7776TIP3    H144743   5.241   3.556   0.744  2.6278 -0.8481  0.7965
 7776TIP3    H244744   5.269   3.416   0.795 -0.8090 -1.4084  1.3469
 7777TIP3   OH244745   2.974   1.701  16.121  0.3195 -0.4149 -0.2763
 7777TIP3    H144746   2.889   1.742  16.103  0.6592  0.4079 -0.0153
 7777TIP3    H244747   3.038   1.769  16.103  1.0729 -1.5575 -2.2334
 7778TIP3   OH244748   3.597   5.187   5.270 -0.6058 -0.2248 -0.2203
 7778TIP3    H144749   3.560   5.240   5.341 -2.3312 -0.2329 -1.0743
 7778TIP3    H244750   3.654   5.248   5.223 -2.2133  0.8290 -0.9176
 7779TIP3   OH244751   3.479   5.745   1.387  0.5683  0.7171  0.1103
 7779TIP3    H144752   3.467   5.650   1.384  0.9654  0.6685  0.0201
 7779TIP3    H244753   3.438   5.772   1.469 -2.0909  0.8397 -1.1819
 7780TIP3   OH244754   2.525   0.214   4.455  0.2150 -0.6642  0.4244
 7780TIP3    H144755   2.582   0.288   4.475  0.1432  0.0023 -1.5481
 7780TIP3    H244756   2.571   0.137   4.488  2.6478 -0.2202 -1.6511
 7781TIP3   OH244757   6.111   6.415   0.922 -0.6791  0.1942 -0.2113
 7781TIP3    H144758   6.177   6.386   0.984 -0.8682 -0.7289 -0.4294
 7781TIP3    H244759   6.159   6.431   0.840 -0.8579 -1.5411 -0.6900
 7782TIP3   OH244760   1.393   1.235   6.524 -0.4680  0.1428 -0.2812
 7782TIP3    H144761   1.361   1.231   6.434  0.0475  2.2119 -0.6037
 7782TIP3    H244762   1.358   1.317   6.559 -0.2187 -0.3595  1.2415
 7783TIP3   OH244763   0.624   3.565   0.367 -0.2280  0.3741 -0.9380
 7783TIP3    H144764   0.705   3.553   0.317 -0.2769 -0.5776 -0.8089
 7783TIP3    H244765   0.599   3.477   0.394  1.0545  0.9457  2.7750
 7784TIP3   OH244766   4.560   0.774  15.416  0.2673 -0.0689 -0.2543
 7784TIP3    H144767   4.638   0.730  15.450  1.1123 -0.2073 -2.2719
 7784TIP3    H244768   4.490   0.710  15.427  1.1021 -1.2131 -1.3783
 7785TIP3   OH244769   0.388   5.990  16.687 -0.3666  0.4257  0.1213
 7785TIP3    H144770   0.428   6.041  16.617  0.3486 -1.8711 -1.2374
 7785TIP3    H244771   0.294   5.990  16.665 -0.4948  1.7057  0.5627
 7786TIP3   OH244772   3.667   4.810  12.477  0.7509  0.1087 -0.0797
 7786TIP3    H144773   3.723   4.884  12.453 -2.5775  2.4572 -1.3633
 7786TIP3    H244774   3.637   4.775  12.393 -0.7206 -0.2130  0.5526
 7787TIP3   OH244775   1.946   0.959   3.072  0.2901  0.1243 -0.4141
 7787TIP3    H144776   1.926   1.051   3.086  0.2735 -0.0565  0.9616
 7787TIP3    H244777   1.953   0.923   3.161 -0.1290 -1.2837 -0.9286
 7788TIP3   OH244778   4.515   4.662  16.125  0.5434 -0.0952  0.3707
 7788TIP3    H144779   4.584   4.601  16.098 -0.5216 -1.1217 -0.1168
 7788TIP3    H244780   4.543   4.692  16.212  1.5390 -0.5916  0.2342
 7789TIP3   OH244781   2.027   0.237   3.502  0.3779 -0.0922 -0.3793
 7789TIP3    H144782   2.013   0.171   3.570 -0.0270  1.4061  1.0504
 7789TIP3    H244783   1.940   0.252   3.465 -0.3278  2.4306  2.0381
 7790TIP3   OH244784   3.717   3.500   0.443 -0.0660 -0.7087  0.3737
 7790TIP3    H144785   3.703   3.461   0.358 -0.3470  0.4166 -0.1145
 7790TIP3    H244786   3.811   3.519   0.445 -0.1032 -0.5035  0.2071
 7791TIP3   OH244787   5.758   5.271   4.224  0.5901  0.4101 -0.1758
 7791TIP3    H144788   5.693   5.339   4.205  0.4893  0.3546 -0.0270
 7791TIP3    H244789   5.706   5.193   4.240  0.7147  0.2536 -0.5289
 7792TIP3   OH244790   1.299   4.726  16.943  0.0838  0.0454  0.4797
 7792TIP3    H144791   1.303   4.812  16.900  0.0168  0.0838  0.5500
 7792TIP3    H244792   1.327   4.664  16.875 -3.1920 -0.2898 -0.7639
 7793TIP3   OH244793   1.618   5.538   4.618 -0.5019 -0.1272 -0.2781
 7793TIP3    H144794   1.693   5.522   4.677  0.3067 -1.4637 -1.5860
 7793TIP3    H244795   1.564   5.601   4.665  0.1601 -1.0369  1.8494
 7794TIP3   OH244796   6.296   6.403  14.897  0.0178  0.7091  0.1053
 7794TIP3    H144797   6.205   6.423  14.873 -0.1066  4.1618  2.7371
 7794TIP3    H244798   6.288   6.333  14.962 -0.6383  0.2246 -0.4787
 7795TIP3   OH244799   5.349   4.401  15.484  0.1571 -0.4695 -0.3384
 7795TIP3    H144800   5.406   4.456  15.430  2.2449 -1.3956  0.8050
 7795TIP3    H244801   5.373   4.312  15.460 -0.1379 -0.8822  0.8575
 7796TIP3   OH244802   4.765   2.091   4.974  0.0510  0.1622 -0.5568
 7796TIP3    H144803   4.702   2.100   4.903  0.2596 -0.7765 -0.8743
 7796TIP3    H244804   4.851   2.096   4.931  0.1761 -0.8954 -0.4467
 7797TIP3   OH244805   0.716   5.999   1.217 -0.1920  0.5616  0.2550
 7797TIP3    H144806   0.809   5.994   1.197 -0.1118  1.1107  0.4825
 7797TIP3    H244807   0.709   6.066   1.286 -0.8632  1.2390 -0.4549
 7798TIP3   OH244808   3.588   5.989   6.246  0.2276 -0.1950  0.8740
 7798TIP3    H144809   3.660   6.052   6.250 -0.4514  1.0256 -2.5345
 7798TIP3    H244810   3.628   5.909   6.211  0.2273 -0.0830  0.6194
 7799TIP3   OH244811   4.767   5.602  16.520  0.3920 -0.2484  0.0354
 7799TIP3    H144812   4.850   5.582  16.562  0.5376 -1.2124 -0.6700
 7799TIP3    H244813   4.760   5.697  16.523  1.6908 -0.1268 -0.2185
 7800TIP3   OH244814   6.030   2.898   1.826  0.1620  0.1678  0.0671
 7800TIP3    H144815   6.122   2.875   1.832  0.5791  1.5261 -0.8311
 7800TIP3    H244816   6.010   2.939   1.910 -0.1548 -1.7755  1.0124
 7801TIP3   OH244817   3.350   5.349  13.808 -0.1864 -0.5130  0.2635
 7801TIP3    H144818   3.263   5.325  13.776 -0.0450 -0.2436 -0.3465
 7801TIP3    H244819   3.374   5.279  13.869 -1.1931 -0.1376  1.1273
 7802TIP3   OH244820   4.435   4.928  13.489 -0.1490  0.0129 -0.3459
 7802TIP3    H144821   4.340   4.916  13.479 -0.1957 -1.1410  1.2408
 7802TIP3    H244822   4.472   4.884  13.413 -0.8171 -1.2938  0.0592
 7803TIP3   OH244823   0.194   2.006  12.519 -0.3576  0.2114 -0.0180
 7803TIP3    H144824   0.207   2.001  12.614 -0.0172  0.2042 -0.0622
 7803TIP3    H244825   0.127   1.941  12.500 -1.1002  0.8502  0.3417
 7804TIP3   OH244826   4.368   5.012  14.411  0.0440 -0.2048  0.4151
 7804TIP3    H144827   4.365   5.090  14.356 -2.3891 -0.2558  0.3759
 7804TIP3    H244828   4.430   4.954  14.366 -1.7358 -0.1916 -2.3107
 7805TIP3   OH244829   0.546   4.523   0.624  0.1221  0.8585  0.6181
 7805TIP3    H144830   0.529   4.507   0.531 -0.3030  1.8459  0.5143
 7805TIP3    H244831   0.629   4.478   0.641  1.7722  3.0595 -0.9817
 7806TIP3   OH244832   6.581   5.449   3.095  0.7872  0.3427 -0.6022
 7806TIP3    H144833   6.622   5.363   3.110 -0.2158 -0.0549  0.0144
 7806TIP3    H244834   6.496   5.442   3.139  0.9126  1.8530 -0.0607
 7807TIP3   OH244835   4.124   2.618  16.607  0.0276 -0.2742  0.4105
 7807TIP3    H144836   4.040   2.662  16.620  0.0549 -0.5565  1.6604
 7807TIP3    H244837   4.170   2.672  16.542 -0.6181  0.5887  0.6550
 7808TIP3   OH244838   5.237   5.603   2.171  0.3960 -0.2803 -0.4062
 7808TIP3    H144839   5.250   5.603   2.076 -0.2049 -2.7467 -0.5395
 7808TIP3    H244840   5.291   5.531   2.203  0.5695  0.4984  1.1465
 7809TIP3   OH244841   3.255   1.843   4.328 -0.5898 -0.2282  0.8066
 7809TIP3    H144842   3.178   1.788   4.340  0.6695 -2.7118 -1.4758
 7809TIP3    H244843   3.313   1.818   4.399  0.5422 -3.1599 -0.9511
 7810TIP3   OH244844   2.051   5.254   0.652 -0.1189 -0.3674  0.0426
 7810TIP3    H144845   2.082   5.198   0.724  0.5966  1.1430  0.9666
 7810TIP3    H244846   2.129   5.266   0.597 -0.0495  0.3180  0.2768
 7811TIP3   OH244847   5.733   5.601   1.366 -0.2724  0.1456 -0.0186
 7811TIP3    H144848   5.808   5.625   1.311 -2.5577  0.5501 -3.2519
 7811TIP3    H244849   5.729   5.669   1.433  2.4704 -0.2058  0.6376
 7812TIP3   OH244850   6.462   5.179  12.011  0.1830  0.3896  0.8384
 7812TIP3    H144851   6.380   5.133  11.989 -0.0766  0.3200  1.9139
 7812TIP3    H244852   6.462   5.255  11.953  0.5292 -0.8394 -0.8514
 7813TIP3   OH244853   1.316   2.395  16.175  0.1909  0.4923  0.3374
 7813TIP3    H144854   1.234   2.419  16.219 -0.9347 -1.4648 -0.5789
 7813TIP3    H244855   1.288   2.344  16.099  2.3113 -1.8128  0.9987
 7814TIP3   OH244856   1.789   6.572  11.365  0.1377 -0.2939  0.1206
 7814TIP3    H144857   1.836   6.540  11.288 -1.2391 -0.8840 -0.5113
 7814TIP3    H244858   1.708   6.610  11.330  0.4290  1.3369  1.1150
 7815TIP3   OH244859   2.457   6.317  11.953  0.2666  0.2562  0.0993
 7815TIP3    H144860   2.408   6.333  12.033 -0.8065 -1.6500 -0.1265
 7815TIP3    H244861   2.546   6.345  11.973 -0.0188 -0.0396  1.9073
 7816TIP3   OH244862   0.195   6.144   3.845  0.3305  0.1688  0.1618
 7816TIP3    H144863   0.242   6.074   3.800  2.2180  0.8360  0.9907
 7816TIP3    H244864   0.103   6.117   3.841  0.4943 -0.3576 -3.0426
 7817TIP3   OH244865   5.778   4.813  11.328  0.1743 -0.0909  0.8505
 7817TIP3    H144866   5.783   4.832  11.234  0.9054 -0.7890  0.7386
 7817TIP3    H244867   5.794   4.897  11.371  0.6183  0.0778  0.3615
 7818TIP3   OH244868   0.617   6.730   3.888  0.2642 -0.3353  0.2708
 7818TIP3    H144869   0.603   6.642   3.853  0.6409 -0.5254  0.5913
 7818TIP3    H244870   0.624   6.786   3.810 -0.7289 -0.4619  0.0790
 7819TIP3   OH244871   5.122   1.936   7.084 -0.4431 -0.2745  0.4084
 7819TIP3    H144872   5.071   2.007   7.122  0.6429  1.0609 -0.5575
 7819TIP3    H244873   5.064   1.900   7.016 -1.2608 -0.8099  1.3508
 7820TIP3   OH244874   2.833   3.631   2.891 -0.1175  0.0916  0.3455
 7820TIP3    H144875   2.914   3.640   2.841  0.1955 -1.1225  0.6076
 7820TIP3    H244876   2.788   3.714   2.879  0.8887  0.5583 -0.2986
 7821TIP3   OH244877   5.886   6.329   0.321  0.4413  0.2153 -0.3711
 7821TIP3    H144878   5.854   6.357   0.235 -0.4756 -2.3638 -0.9819
 7821TIP3    H244879   5.807   6.321   0.374  0.9939  1.7035  0.7388
 7822TIP3   OH244880   1.937   0.235   5.380  0.2748  0.6332  0.3288
 7822TIP3    H144881   1.952   0.328   5.400  1.4735  0.3242  0.9457
 7822TIP3    H244882   1.968   0.224   5.290 -0.2182  0.9035  0.1228
 7823TIP3   OH244883   6.402   5.366  11.464 -0.0892  0.0826  0.4576
 7823TIP3    H144884   6.359   5.309  11.528  1.6217 -0.4653  1.1754
 7823TIP3    H244885   6.452   5.428  11.517 -0.0448  0.7468 -0.3461
 7824TIP3   OH244886   0.091   3.279  11.697 -0.3622  0.0423 -0.1856
 7824TIP3    H144887   0.087   3.268  11.792  1.3668  1.8428  0.1641
 7824TIP3    H244888   0.049   3.363  11.680 -0.8414 -0.3554 -1.0533
 7825TIP3   OH244889   2.091   2.656   5.110 -0.3610 -0.1619  0.6124
 7825TIP3    H144890   2.166   2.646   5.051  0.4474 -0.3920  1.6579
 7825TIP3    H244891   2.036   2.580   5.091  0.6811 -1.1095  1.2366
 7826TIP3   OH244892   3.440   1.073   3.281  0.1767 -0.2260 -0.6410
 7826TIP3    H144893   3.355   1.100   3.315  0.3636  0.5086 -0.7271
 7826TIP3    H244894   3.504   1.120   3.335  0.5378 -1.0082 -0.3798
 7827TIP3   OH244895   6.272   5.613   1.248  0.3997  0.4135 -0.2794
 7827TIP3    H144896   6.178   5.603   1.235  0.3194 -0.6659  0.9387
 7827TIP3    H244897   6.281   5.637   1.341  1.3342  0.3301 -0.3434
 7828TIP3   OH244898   5.842   2.939   4.469  0.1240  0.3192 -0.8040
 7828TIP3    H144899   5.830   2.996   4.545 -0.1689  0.6979 -1.1296
 7828TIP3    H244900   5.758   2.894   4.460  1.3674 -2.9303  1.6274
 7829TIP3   OH244901   1.024   4.290   5.721  0.2888 -0.3132  0.3493
 7829TIP3    H144902   1.000   4.382   5.732 -0.2794 -0.4622  0.3994
 7829TIP3    H244903   0.944   4.248   5.689  1.1347 -0.4037 -1.8070
 7830TIP3   OH244904   5.154   1.244  13.811 -0.3008 -0.2420  0.0742
 7830TIP3    H144905   5.193   1.297  13.742  1.3792 -2.2894 -0.6569
 7830TIP3    H244906   5.169   1.295  13.891  0.6758  0.6775 -0.6632
 7831TIP3   OH244907   0.628   3.831   4.071 -0.0694 -0.7125  0.1395
 7831TIP3    H144908   0.578   3.755   4.040  1.0439 -1.4096 -0.0104
 7831TIP3    H244909   0.718   3.799   4.080  0.3202  0.4468  0.6178
 7832TIP3   OH244910   3.373   0.710   3.495 -0.0374 -0.6873  0.3711
 7832TIP3    H144911   3.443   0.755   3.449  0.7180 -1.1880  1.0109
 7832TIP3    H244912   3.415   0.634   3.535 -0.5939 -0.1155  2.1347
 7833TIP3   OH244913   2.745   4.668   0.992  0.3068  0.2136  0.4385
 7833TIP3    H144914   2.833   4.638   1.011 -0.0276 -0.1945  1.3791
 7833TIP3    H244915   2.698   4.590   0.963 -0.2205  0.0623  1.6574
 7834TIP3   OH244916   5.033   4.585  13.350  0.2886  0.2085  0.3167
 7834TIP3    H144917   5.040   4.653  13.283  0.2632  1.3607  1.4218
 7834TIP3    H244918   5.091   4.515  13.321 -1.4038 -0.3503 -2.0152
 7835TIP3   OH244919   3.679   4.887  14.268  0.6580 -0.5934 -0.1104
 7835TIP3    H144920   3.709   4.974  14.240 -0.1732 -0.7702 -1.6371
 7835TIP3    H244921   3.758   4.832  14.265  1.1773  0.0723  0.8094
 7836TIP3   OH244922   0.629   1.405  12.511 -0.3352  0.2517 -0.4966
 7836TIP3    H144923   0.566   1.366  12.450 -1.6396 -1.0829  1.5659
 7836TIP3    H244924   0.574   1.442  12.580  1.1061 -1.5001  1.7068
 7837TIP3   OH244925   1.432   0.644  13.970 -0.1351  0.1589  0.2137
 7837TIP3    H144926   1.433   0.604  13.883 -1.2330  0.0390  0.2369
 7837TIP3    H244927   1.445   0.570  14.030  2.5887  0.4757  0.1356
 7838TIP3   OH244928   6.237   2.244   0.785 -0.1881  0.3303  0.7539
 7838TIP3    H144929   6.227   2.232   0.880  0.3867  2.3322  1.1095
 7838TIP3    H244930   6.200   2.330   0.767  2.2826  1.2515 -0.3446
 7839TIP3   OH244931   3.505   2.676  13.159 -0.4606 -0.0676  0.3398
 7839TIP3    H144932   3.410   2.670  13.154 -0.4777 -0.0573  0.6585
 7839TIP3    H244933   3.536   2.623  13.085 -0.7448  1.6839 -1.1021
 7840TIP3   OH244934   0.300   3.722  11.398  0.0004  0.0712 -0.6127
 7840TIP3    H144935   0.274   3.634  11.371  1.2105 -0.7662  0.7961
 7840TIP3    H244936   0.224   3.758  11.442 -0.9638  0.2940 -2.3597
 7841TIP3   OH244937   0.037   2.129   3.145 -0.4181  0.2841 -0.2693
 7841TIP3    H144938   0.126   2.145   3.113  0.3011 -0.3602  1.3009
 7841TIP3    H244939  -0.015   2.201   3.109  0.6116  0.3814 -1.6414
 7842TIP3   OH244940   1.137   0.933  14.810  0.2171 -0.3613  0.4486
 7842TIP3    H144941   1.117   0.993  14.739  3.1860 -0.6262 -0.7286
 7842TIP3    H244942   1.194   0.983  14.868 -1.4808 -0.4313  2.2938
 7843TIP3   OH244943   4.202   0.441  15.239  0.3029 -0.0304 -0.2455
 7843TIP3    H144944   4.238   0.458  15.152 -0.7241 -0.2491 -0.7359
 7843TIP3    H244945   4.172   0.350  15.236 -0.7469  0.2930 -0.0475
 7844TIP3   OH244946   0.006   1.977  12.931  0.1137  0.5162  0.2903
 7844TIP3    H144947  -0.025   1.896  12.892 -0.6112  1.3934 -1.0443
 7844TIP3    H244948  -0.019   1.971  13.023 -2.3845  0.3551 -0.3227
 7845TIP3   OH244949   5.643   4.557   0.792  0.2797 -0.2139  0.3304
 7845TIP3    H144950   5.549   4.571   0.784 -0.0923 -3.1394 -2.4450
 7845TIP3    H244951   5.680   4.598   0.713  1.2503  0.1800  0.9705
 7846TIP3   OH244952   4.391   4.989  15.403  0.1696  0.8499 -0.5386
 7846TIP3    H144953   4.363   5.001  15.312  1.6445 -0.4084 -1.1989
 7846TIP3    H244954   4.475   5.034  15.408  2.1521 -2.4509 -1.0288
 7847TIP3   OH244955   6.690   2.395   3.204  0.2940 -0.0639 -0.6674
 7847TIP3    H144956   6.656   2.433   3.123  0.3718  1.2044 -0.1407
 7847TIP3    H244957   6.724   2.470   3.252  0.9335 -0.9020  0.2102
 7848TIP3   OH244958   3.535   6.426  16.018 -0.9806 -0.4019  0.1205
 7848TIP3    H144959   3.520   6.409  15.924 -0.1864  0.5476 -0.1926
 7848TIP3    H244960   3.604   6.491  16.019  0.1884 -1.6029  1.4212
 7849TIP3   OH244961   6.418   0.708  15.847  0.3029  0.2220  0.2305
 7849TIP3    H144962   6.407   0.713  15.942 -0.5725 -1.1782  0.2290
 7849TIP3    H244963   6.357   0.774  15.813  1.4118  1.5126  0.6358
 7850TIP3   OH244964   3.228   4.458  14.058  0.3119  0.3175 -0.5286
 7850TIP3    H144965   3.233   4.542  14.012  1.6612  0.3746 -0.3328
 7850TIP3    H244966   3.142   4.457  14.100  0.4888  1.8303 -0.1010
 7851TIP3   OH244967   4.208   4.943   0.019  0.0206  0.2212 -0.3443
 7851TIP3    H144968   4.255   5.026   0.022  1.5637 -0.6532  0.9620
 7851TIP3    H244969   4.118   4.967  -0.004  0.7973  2.0586 -1.6348
 7852TIP3   OH244970   1.893   0.224  14.568 -0.5646  0.4113  0.2528
 7852TIP3    H144971   1.988   0.211  14.570 -0.5619  0.3675 -0.2283
 7852TIP3    H244972   1.859   0.149  14.518 -0.8084  0.6960 -0.0071
 7853TIP3   OH244973   6.541   2.483   3.009 -0.3729  0.6701 -0.6690
 7853TIP3    H144974   6.519   2.562   3.060  1.1573  0.8524 -0.2283
 7853TIP3    H244975   6.456   2.444   2.988 -1.1442  0.2314  2.5899
 7854TIP3   OH244976   6.287   1.307   0.958  0.7199 -0.5277  0.4610
 7854TIP3    H144977   6.340   1.236   0.922 -0.2123 -0.4296 -1.2166
 7854TIP3    H244978   6.208   1.306   0.905 -0.1954  0.4701  1.7546
 7855TIP3   OH244979   2.398   1.269   2.686 -0.3471  0.4735  0.2700
 7855TIP3    H144980   2.432   1.316   2.610  0.1954  0.1567  0.3073
 7855TIP3    H244981   2.340   1.202   2.650 -0.7477  0.8697  0.1869
 7856TIP3   OH244982   1.633   1.514   1.626  0.2498  0.5606 -0.1463
 7856TIP3    H144983   1.615   1.584   1.689  0.2966  0.8720 -0.4850
 7856TIP3    H244984   1.549   1.468   1.618  0.4013  0.1104  0.6387
 7857TIP3   OH244985   2.854   3.446   1.468  0.5170 -0.9606  0.1107
 7857TIP3    H144986   2.829   3.362   1.429  0.1237 -1.9956  2.4340
 7857TIP3    H244987   2.802   3.452   1.547  2.0337  0.5226  1.0591
 7858TIP3   OH244988   3.139   0.753   5.735 -0.4292 -0.3863  0.0282
 7858TIP3    H144989   3.200   0.721   5.802 -1.1132 -3.0381 -0.4800
 7858TIP3    H244990   3.108   0.837   5.768 -0.7976 -1.6133  3.0741
 7859TIP3   OH244991   1.586   4.491  15.430  0.8236 -0.6330  0.5263
 7859TIP3    H144992   1.599   4.527  15.518  1.1062  0.7623 -0.0728
 7859TIP3    H244993   1.503   4.444  15.437 -1.3089  2.7984  0.5805
 7860TIP3   OH244994   6.692   4.013  16.834 -0.7244  0.3057  0.1973
 7860TIP3    H144995   6.770   4.036  16.885 -0.2326 -1.8514  0.5503
 7860TIP3    H244996   6.621   4.015  16.897 -1.3708  3.7726 -0.4213
 7861TIP3   OH244997   5.056   6.103  13.777 -0.1596 -0.4114 -0.0805
 7861TIP3    H144998   5.136   6.054  13.795 -0.5875 -0.7849  0.8849
 7861TIP3    H244999   4.997   6.040  13.737  0.5069  0.2224 -2.2166
 7862TIP3   OH245000   3.106   3.729  11.609  0.4893  0.0898 -0.6091
 7862TIP3    H145001   3.027   3.771  11.575  0.7924 -0.1892 -1.6985
 7862TIP3    H245002   3.177   3.769  11.559  1.1536  1.0284  1.0016
 7863TIP3   OH245003   2.562   0.259   6.132 -0.2181  0.1223  0.2212
 7863TIP3    H145004   2.641   0.294   6.174  0.1641 -1.7374  1.1535
 7863TIP3    H245005   2.591   0.176   6.093 -1.2349  0.4453 -1.2957
 7864TIP3   OH245006   2.454   1.939   5.782  0.1524 -0.1941  0.3368
 7864TIP3    H145007   2.424   1.945   5.691  1.3098 -1.1431 -0.1315
 7864TIP3    H245008   2.378   1.964   5.834  0.0908  2.6558 -0.9281
 7865TIP3   OH245009   4.537   6.178   3.499 -0.4424  0.3159  0.3289
 7865TIP3    H145010   4.520   6.177   3.593  0.1855 -2.1346  0.4899
 7865TIP3    H245011   4.453   6.154   3.459 -0.6887  1.2818  0.2277
 7866TIP3   OH245012   4.054   0.650  14.045 -0.6146 -0.4342 -0.0944
 7866TIP3    H145013   4.006   0.582  14.092 -1.6000 -0.2078 -0.7447
 7866TIP3    H245014   4.032   0.731  14.090  1.3659 -0.6238  1.3143
 7867TIP3   OH245015   5.210   0.517  12.890 -0.6829  1.1837 -0.3627
 7867TIP3    H145016   5.116   0.507  12.904 -0.6229 -0.9349 -1.1128
 7867TIP3    H245017   5.250   0.472  12.965 -0.2078  2.8046  0.4116
 7868TIP3   OH245018   4.991   2.617  16.858 -0.0379 -0.0696 -0.0258
 7868TIP3    H145019   5.050   2.634  16.931  0.7182  1.2801 -0.9136
 7868TIP3    H245020   5.046   2.622  16.780 -1.0735 -0.1165 -0.7828
 7869TIP3   OH245021   4.750   5.033   2.528 -0.0841 -0.1972  0.5517
 7869TIP3    H145022   4.659   5.048   2.554 -0.2352 -0.4098  0.1551
 7869TIP3    H245023   4.780   5.118   2.494 -0.0579 -0.0646  0.9028
 7870TIP3   OH245024   2.660   6.330   0.157 -0.0464 -0.6478 -0.2056
 7870TIP3    H145025   2.674   6.422   0.182  0.7839 -0.6628 -0.5861
 7870TIP3    H245026   2.611   6.336   0.075  2.9746 -0.4194 -2.1213
 7871TIP3   OH245027   2.723   0.189   4.013 -0.2920  0.6519  0.1479
 7871TIP3    H145028   2.671   0.116   4.046 -0.0090  1.2531  2.0387
 7871TIP3    H245029   2.808   0.150   3.990 -0.1098  0.3946  1.2329
 7872TIP3   OH245030   3.685   0.687   5.975  0.0646 -0.3949 -0.2729
 7872TIP3    H145031   3.702   0.619   5.909 -1.7211 -1.2387  0.0807
 7872TIP3    H245032   3.731   0.655   6.053  0.7813 -0.2387 -0.6210
 7873TIP3   OH245033   6.240   0.776  15.284  0.2108 -0.2609  0.1533
 7873TIP3    H145034   6.166   0.781  15.223 -0.2320 -1.0183  0.6005
 7873TIP3    H245035   6.231   0.690  15.325  1.1239 -0.2012  0.5033
 7874TIP3   OH245036   4.743   5.684  12.372 -0.7384 -0.4983 -0.1471
 7874TIP3    H145037   4.699   5.745  12.313  0.3435  0.0747 -0.3990
 7874TIP3    H245038   4.820   5.655  12.322 -0.1600 -0.5097  0.7381
 7875TIP3   OH245039   3.377   4.915   5.892 -0.2404 -0.1648  0.7201
 7875TIP3    H145040   3.338   4.839   5.850  0.5699 -0.4757  0.5069
 7875TIP3    H245041   3.471   4.908   5.872 -0.0699  0.5494  1.2238
 7876TIP3   OH245042   3.325   1.037  17.271 -0.4320  0.4812  0.0540
 7876TIP3    H145043   3.412   0.997  17.269 -0.2257  0.9446 -1.4906
 7876TIP3    H245044   3.265   0.964  17.259 -0.3506  0.0291  2.0135
 7877TIP3   OH245045   3.607   0.369  11.153 -0.6028 -1.1393  0.0785
 7877TIP3    H145046   3.569   0.453  11.179 -1.6436 -1.8462  0.9134
 7877TIP3    H245047   3.700   0.377  11.174 -0.7939 -0.3923  0.6740
 7878TIP3   OH245048   5.691   2.208   2.683  0.4919 -0.9369 -0.1548
 7878TIP3    H145049   5.673   2.252   2.600 -0.0432  0.0823  0.4881
 7878TIP3    H245050   5.782   2.230   2.703  0.4157 -0.6281 -0.1436
 7879TIP3   OH245051   0.004   2.593   2.961  0.1037 -0.4262 -0.1937
 7879TIP3    H145052  -0.074   2.539   2.949 -1.2064  1.2296  0.4112
 7879TIP3    H245053   0.068   2.535   3.003 -1.3266 -1.4209  0.6678
 7880TIP3   OH245054   1.928   2.558   3.989  0.0328 -0.0979 -0.3671
 7880TIP3    H145055   1.863   2.519   3.930 -0.7346  0.7554 -0.1107
 7880TIP3    H245056   1.895   2.537   4.077 -0.9747  1.9516 -0.1940
 7881TIP3   OH245057   2.260   3.975   3.199  0.1612 -0.2287 -0.1285
 7881TIP3    H145058   2.339   4.028   3.192  0.3640 -0.3525  1.0138
 7881TIP3    H245059   2.217   4.007   3.279  1.2447 -3.0098  1.6933
 7882TIP3   OH245060   6.332   1.584   2.287 -0.5028  0.0765  0.3073
 7882TIP3    H145061   6.313   1.492   2.304  0.3841 -0.0432  0.6902
 7882TIP3    H245062   6.255   1.630   2.320 -0.9411 -0.5233  0.1332
 7883TIP3   OH245063   2.421   3.753  15.611 -0.0353 -0.2255 -0.5463
 7883TIP3    H145064   2.369   3.689  15.659  0.1102 -0.4396 -0.6733
 7883TIP3    H245065   2.356   3.811  15.571 -0.1524  0.8378  1.0856
 7884TIP3   OH245066   6.692   5.865  15.795  0.2909  0.2831 -0.8248
 7884TIP3    H145067   6.705   5.920  15.718  2.1939  0.4746 -0.4136
 7884TIP3    H245068   6.728   5.916  15.868 -0.7769 -0.2149  0.0834
 7885TIP3   OH245069   2.361   1.722   1.459  0.3670  0.1988 -0.0416
 7885TIP3    H145070   2.423   1.775   1.408  0.4825 -1.0390 -1.2529
 7885TIP3    H245071   2.403   1.712   1.545 -0.1254  2.8617  0.5835
 7886TIP3   OH245072   3.490   0.040   5.181 -0.6333  0.0056 -0.4321
 7886TIP3    H145073   3.581   0.069   5.174  0.6478 -1.6708  4.7937
 7886TIP3    H245074   3.448   0.105   5.237 -1.2521 -1.5289  0.9888
 7887TIP3   OH245075   5.547   5.023   5.910 -0.1221 -0.4058  0.2134
 7887TIP3    H145076   5.568   5.114   5.933  2.7291 -0.3976 -1.8603
 7887TIP3    H245077   5.609   4.970   5.960 -0.9759 -1.1458  0.5154
 7888TIP3   OH245078   0.868   4.267  16.276  0.5771  0.3120 -0.2454
 7888TIP3    H145079   0.778   4.300  16.268  1.1215  1.8158 -0.4745
 7888TIP3    H245080   0.916   4.312  16.207  1.7270  0.3038  0.5196
 7889TIP3   OH245081   1.157   5.447  14.747  0.4224 -0.0663 -0.0024
 7889TIP3    H145082   1.104   5.418  14.821 -0.0975  2.2045  0.5946
 7889TIP3    H245083   1.213   5.516  14.783  1.1340  0.1341 -1.4362
 7890TIP3   OH245084   2.312   5.982  17.193  0.2143 -0.6328 -0.0908
 7890TIP3    H145085   2.334   5.893  17.221 -3.4809 -1.8189 -0.4395
 7890TIP3    H245086   2.301   5.975  17.098 -1.3946 -0.1526  0.0451
 7891TIP3   OH245087   1.646   3.047   0.381 -0.5174 -0.8017 -0.0797
 7891TIP3    H145088   1.647   3.138   0.351  0.7992 -1.0541 -0.8615
 7891TIP3    H245089   1.557   3.017   0.364 -0.4972 -0.1636 -1.4205
 7892TIP3   OH245090   4.058   3.482   2.551  0.0183  0.3776  0.2931
 7892TIP3    H145091   4.031   3.534   2.476 -1.7461  0.2452  0.8053
 7892TIP3    H245092   4.116   3.415   2.514 -0.3957  0.6460 -0.8628
 7893TIP3   OH245093   4.736   1.656  14.616 -1.0609  0.7503 -0.2781
 7893TIP3    H145094   4.696   1.718  14.555 -2.7060  0.0715  0.0507
 7893TIP3    H245095   4.720   1.570  14.576  1.1754  0.4752 -0.7273
 7894TIP3   OH245096   3.803   0.367   3.033  0.1117  0.3472  0.3356
 7894TIP3    H145097   3.766   0.329   3.113 -0.9201  2.6435  1.0463
 7894TIP3    H245098   3.739   0.346   2.965 -0.3082  0.5235  0.6642
 7895TIP3   OH245099   5.968   0.368   3.777 -0.6598 -0.0063  0.5262
 7895TIP3    H145100   5.986   0.349   3.685 -1.8877  1.5212 -0.0816
 7895TIP3    H245101   5.891   0.315   3.798 -1.7441  1.3025 -0.0243
 7896TIP3   OH245102   6.008   3.730   4.167 -0.0865  0.8278  0.6214
 7896TIP3    H145103   5.921   3.724   4.127  0.6476 -2.1360 -0.7983
 7896TIP3    H245104   6.054   3.794   4.113  0.5115 -2.2243 -2.9662
 7897TIP3   OH245105   3.191   1.778  16.992  0.1818 -0.3257  0.3890
 7897TIP3    H145106   3.168   1.775  17.085  0.1155 -0.2033  0.3773
 7897TIP3    H245107   3.249   1.703  16.979 -1.0206 -1.2622  0.2010
 7898TIP3   OH245108   6.780   2.167  11.789  0.0823 -0.3840 -0.2048
 7898TIP3    H145109   6.726   2.200  11.717 -0.8396 -2.8063 -0.7144
 7898TIP3    H245110   6.865   2.151  11.750  0.2820  0.5147 -0.1577
 7899TIP3   OH245111   0.068   3.146  12.260  0.1425  0.5972 -0.2734
 7899TIP3    H145112   0.145   3.153  12.204  1.4753  0.9912  1.5504
 7899TIP3    H245113   0.098   3.172  12.347 -1.8669  0.0236  0.6521
 7900TIP3   OH245114   3.053   6.678  16.290 -0.0514  0.2594 -0.2118
 7900TIP3    H145115   2.959   6.688  16.307  0.2790  2.1513  0.7933
 7900TIP3    H245116   3.060   6.682  16.194 -0.9053  1.2580 -0.2536
 7901TIP3   OH245117   2.577   1.430   6.343 -0.3800  0.2872 -0.1399
 7901TIP3    H145118   2.501   1.374   6.327 -0.5501  0.1635  1.0426
 7901TIP3    H245119   2.652   1.378   6.313 -0.6192 -0.2032  0.1101
 7902TIP3   OH245120   0.732   6.298  13.898  0.2265  0.2953  0.2957
 7902TIP3    H145121   0.801   6.359  13.924 -0.4524  1.2096 -0.0270
 7902TIP3    H245122   0.774   6.238  13.836  0.5464  1.3231 -0.4999
 7903TIP3   OH245123   6.536   3.153   5.477 -0.5480 -0.1011 -0.3332
 7903TIP3    H145124   6.580   3.187   5.400 -1.2698 -0.7887 -1.0605
 7903TIP3    H245125   6.515   3.231   5.529  0.5289  0.3108 -0.5024
 7904TIP3   OH245126   0.107   3.490   0.879 -0.2584  0.6361  0.3542
 7904TIP3    H145127   0.176   3.424   0.874 -0.0849  0.8014  0.5240
 7904TIP3    H245128   0.029   3.447   0.844  0.1997  0.8240 -0.9527
 7905TIP3   OH245129   5.007   4.554   6.217  0.1323 -0.3863 -0.3180
 7905TIP3    H145130   4.962   4.559   6.133 -0.8162  0.1290  0.1983
 7905TIP3    H245131   4.951   4.604   6.277  1.3528  0.1962  0.3756
 7906TIP3   OH245132   4.215   4.407  13.340 -0.0890 -0.3226 -0.0273
 7906TIP3    H145133   4.140   4.379  13.287 -0.0485  0.8520 -0.7616
 7906TIP3    H245134   4.198   4.371  13.427 -1.6143  0.0731 -0.1305
 7907TIP3   OH245135   2.805   5.182   1.606 -0.0376  0.1032 -0.0434
 7907TIP3    H145136   2.853   5.118   1.658  1.1845  1.5361  0.6823
 7907TIP3    H245137   2.810   5.150   1.517  0.1621 -1.0186  0.3596
 7908TIP3   OH245138   3.211   3.683  13.018  0.0558 -0.3759  0.0052
 7908TIP3    H145139   3.257   3.742  12.958 -1.1047 -0.4494 -0.9980
 7908TIP3    H245140   3.281   3.635  13.063  0.9825 -0.6125 -1.6011
 7909TIP3   OH245141   0.516   6.491  16.078  0.1844 -0.0591  0.0899
 7909TIP3    H145142   0.520   6.453  16.165 -1.5448 -1.0662 -0.2231
 7909TIP3    H245143   0.449   6.440  16.032 -0.2635  1.5986 -1.2341
 7910TIP3   OH245144   1.149   5.590  16.928  0.3416 -0.6966  0.4032
 7910TIP3    H145145   1.147   5.685  16.923  1.6775 -0.5929  1.2607
 7910TIP3    H245146   1.080   5.567  16.990 -0.5810 -0.3659 -0.4860
 7911TIP3   OH245147   2.270   4.132  13.980  0.9910  0.0254 -0.4141
 7911TIP3    H145148   2.207   4.186  14.026 -0.5947  2.4651 -4.8468
 7911TIP3    H245149   2.354   4.149  14.022 -0.5714 -0.0326  2.9862
 7912TIP3   OH245150   4.932   6.723   1.976  0.1739 -0.0637 -0.0997
 7912TIP3    H145151   4.852   6.753   2.021 -0.2157 -1.2825  0.0459
 7912TIP3    H245152   4.989   6.694   2.046  0.0122 -0.9151 -0.3131
 7913TIP3   OH245153   2.744   1.556  13.900  0.4325 -0.4315 -0.1674
 7913TIP3    H145154   2.694   1.615  13.844  1.7394 -0.8867 -1.8927
 7913TIP3    H245155   2.683   1.533  13.970 -1.6976 -0.7312 -1.9845
 7914TIP3   OH245156   4.675   0.864   0.413  0.1861  0.2471  0.0126
 7914TIP3    H145157   4.616   0.846   0.339 -1.1862  0.0546  1.1042
 7914TIP3    H245158   4.743   0.797   0.406 -0.2014 -0.0776 -0.7980
 7915TIP3   OH245159   6.398   0.369  12.096  0.7533 -0.0295  0.3525
 7915TIP3    H145160   6.474   0.313  12.078  0.5830 -0.2883  0.4396
 7915TIP3    H245161   6.422   0.416  12.176  0.7095 -0.3119  0.5316
 7916TIP3   OH245162   6.717   2.139   6.302  0.3942  0.0804  0.5094
 7916TIP3    H145163   6.717   2.048   6.271  2.5677  0.2064 -0.0325
 7916TIP3    H245164   6.784   2.140   6.370  0.3980  1.2839  0.4977
 7917TIP3   OH245165   0.030   0.087  14.655  0.1940 -0.6899  0.6868
 7917TIP3    H145166   0.124   0.096  14.642 -0.1648  0.4610 -1.6586
 7917TIP3    H245167   0.003   0.171  14.693 -0.1437 -0.1409 -0.6980
 7918TIP3   OH245168   4.271   6.650   4.067  0.4803  0.1591 -0.0803
 7918TIP3    H145169   4.271   6.601   3.984 -1.3561 -1.9733  1.0544
 7918TIP3    H245170   4.183   6.636   4.103  1.2744  0.8692  2.3209
 7919TIP3   OH245171   5.262   0.104  16.450 -0.2788 -0.2038 -0.7878
 7919TIP3    H145172   5.269   0.198  16.433 -1.9071 -0.1453 -1.3153
 7919TIP3    H245173   5.275   0.096  16.545 -0.5434  0.6173 -0.6674
 7920TIP3   OH245174   3.452   0.759  12.194 -0.0600  0.3862  1.0160
 7920TIP3    H145175   3.406   0.830  12.148 -0.3260  0.0140  0.7011
 7920TIP3    H245176   3.453   0.786  12.285 -1.6693  0.0025  1.1750
 7921TIP3   OH245177   4.229   6.067  12.187 -0.0060  0.2699 -0.2477
 7921TIP3    H145178   4.213   6.148  12.236 -0.7275  0.5309 -0.8890
 7921TIP3    H245179   4.143   6.043  12.151 -0.0054 -1.3283  0.7391
 7922TIP3   OH245180   0.491   2.970   3.214 -0.7051 -0.0574  0.4048
 7922TIP3    H145181   0.397   2.978   3.196 -0.1045  1.5397 -2.8660
 7922TIP3    H245182   0.518   3.059   3.239  0.0033 -0.4515  1.0992
 7923TIP3   OH245183   4.560   1.203   3.990  0.2356 -0.0853  0.2531
 7923TIP3    H145184   4.543   1.293   4.019  0.4358  0.5475 -1.4631
 7923TIP3    H245185   4.650   1.206   3.957 -0.7058 -0.1109 -2.5637
 7924TIP3   OH245186   0.440   6.385  10.545 -0.1940 -0.1242 -0.4711
 7924TIP3    H145187   0.495   6.409  10.471  0.2116 -1.6063 -0.6917
 7924TIP3    H245188   0.351   6.380  10.509 -0.3190  1.1954 -0.3673
 7925TIP3   OH245189   6.681   3.339  13.031 -0.5166  0.7142  0.0680
 7925TIP3    H145190   6.696   3.332  13.126 -2.3100 -0.1757  0.3406
 7925TIP3    H245191   6.653   3.430  13.018  1.2209  1.2888  0.1149
 7926TIP3   OH245192   0.678   4.535  14.038  0.0071  0.0207  0.0023
 7926TIP3    H145193   0.763   4.516  14.077  0.2648 -2.8227 -1.6737
 7926TIP3    H245194   0.623   4.560  14.112  1.0997 -2.7374  1.9402
 7927TIP3   OH245195   3.865   2.135  10.762  0.2689  0.4757  0.3743
 7927TIP3    H145196   3.787   2.147  10.708  0.7690 -0.3897 -0.5934
 7927TIP3    H245197   3.899   2.223  10.776  0.6603  0.6962 -1.6093
 7928TIP3   OH245198   4.057   5.753   2.612  0.3828 -0.0623  0.2652
 7928TIP3    H145199   4.068   5.837   2.569  1.8818  0.3778  1.4329
 7928TIP3    H245200   4.077   5.688   2.545 -0.6732  0.4772 -0.6087
 7929TIP3   OH245201   4.485   2.145   1.154 -0.5003 -0.6780 -0.0981
 7929TIP3    H145202   4.424   2.218   1.141  3.4835  3.8787  3.2438
 7929TIP3    H245203   4.475   2.122   1.246  1.6984 -0.8048  0.1591
 7930TIP3   OH245204   5.318   6.079   5.473  0.0445 -0.1625  0.3126
 7930TIP3    H145205   5.376   6.128   5.415  0.0493  0.3764  0.7648
 7930TIP3    H245206   5.233   6.121   5.463 -0.4029 -1.2581 -0.7195
 7931TIP3   OH245207   1.118   2.954  16.774  0.5514 -0.2630 -0.5787
 7931TIP3    H145208   1.064   2.919  16.703  0.6261  0.1102 -0.8234
 7931TIP3    H245209   1.137   3.044  16.747  0.3463 -0.0251  0.0502
 7932TIP3   OH245210   4.179   1.247   4.744  0.1833  0.3088  0.2899
 7932TIP3    H145211   4.105   1.189   4.759  0.3798  0.4274  1.8728
 7932TIP3    H245212   4.168   1.317   4.808  1.6293  0.3640  0.5112
 7933TIP3   OH245213   0.282   6.231  16.803 -0.0484 -0.0826  0.1597
 7933TIP3    H145214   0.197   6.218  16.845  0.6341 -0.5965  1.4448
 7933TIP3    H245215   0.330   6.150  16.820  0.4111 -0.1430 -1.2853
 7934TIP3   OH245216   3.571   5.510   5.440  0.1058 -0.2869  0.2925
 7934TIP3    H145217   3.659   5.475   5.454 -0.8803 -1.8978  3.0787
 7934TIP3    H245218   3.586   5.601   5.412  2.6260 -0.4805  0.7673
 7935TIP3   OH245219   6.017   2.797  15.346  0.5792 -0.6869  0.4729
 7935TIP3    H145220   5.926   2.801  15.315  0.8826  0.5852 -0.3113
 7935TIP3    H245221   6.035   2.703  15.355 -0.5013 -0.9882 -0.3029
 7936TIP3   OH245222   0.656   4.971   5.945  0.3888 -0.0521  0.1799
 7936TIP3    H145223   0.738   4.957   5.992 -1.0079 -0.3516  2.7279
 7936TIP3    H245224   0.661   5.061   5.913  1.7293 -0.1001  0.2140
 7937TIP3   OH245225   2.889   2.127  14.550  0.8379  0.1064  0.6322
 7937TIP3    H145226   2.902   2.172  14.634  0.9277  0.3982  0.4624
 7937TIP3    H245227   2.805   2.159  14.518  0.9564  0.2453  0.4559
 7938TIP3   OH245228   3.311   3.515   0.632 -0.7383  0.2135  0.1498
 7938TIP3    H145229   3.342   3.552   0.715  2.3926 -0.9761 -0.3604
 7938TIP3    H245230   3.311   3.589   0.572 -0.9035  0.6561  0.6842
 7939TIP3   OH245231   0.604   2.537  13.839  0.1696 -0.5027 -0.0145
 7939TIP3    H145232   0.527   2.485  13.861  0.7960 -1.0856  0.8607
 7939TIP3    H245233   0.591   2.620  13.886 -0.5080 -0.1054 -0.8755
 7940TIP3   OH245234   1.406   1.488  11.228 -0.3591  0.6690  0.4629
 7940TIP3    H145235   1.331   1.478  11.169 -0.2471 -0.7827  0.5360
 7940TIP3    H245236   1.382   1.562  11.284 -2.9221 -1.2438  2.1341
 7941TIP3   OH245237   3.342   3.446  11.505  0.7804  0.0154 -0.0866
 7941TIP3    H145238   3.266   3.461  11.561  1.2711 -1.1356  0.9294
 7941TIP3    H245239   3.404   3.514  11.531  0.7466 -0.0940  0.2902
 7942TIP3   OH245240   4.427   0.528  15.367 -0.5812  0.5723  0.2263
 7942TIP3    H145241   4.333   0.519  15.352 -0.3718  1.0547 -1.6403
 7942TIP3    H245242   4.468   0.482  15.293  0.6158  1.7413  0.1123
 7943TIP3   OH245243   1.080   1.229  14.219  0.0203  0.3107  0.2393
 7943TIP3    H145244   1.060   1.137  14.236 -0.2781  0.2125 -0.5748
 7943TIP3    H245245   1.080   1.270  14.305 -1.2602 -0.1745  0.4971
 7944TIP3   OH245246   3.482   4.211  15.215  0.0855  0.1850 -0.0596
 7944TIP3    H145247   3.518   4.196  15.127  0.2816 -1.3716  0.2571
 7944TIP3    H245248   3.546   4.172  15.274 -0.4029  0.5696  0.7365
 7945TIP3   OH245249   5.246   1.484  15.456  0.3290 -0.1147 -0.1800
 7945TIP3    H145250   5.341   1.485  15.456  0.3397  1.4515 -0.0037
 7945TIP3    H245251   5.221   1.560  15.403 -0.8096 -0.1353  0.2971
 7946TIP3   OH245252   6.475   2.011   4.190 -0.2386  0.7127  0.0212
 7946TIP3    H145253   6.461   2.096   4.150 -2.2144  0.7758  0.7624
 7946TIP3    H245254   6.426   1.950   4.135  1.0534  0.0413 -0.4300
 7947TIP3   OH245255   0.764   6.605  16.319  0.7125 -0.4130  0.2814
 7947TIP3    H145256   0.840   6.622  16.375  1.8692 -0.5517 -1.1749
 7947TIP3    H245257   0.735   6.517  16.346  1.0091 -0.3321  0.9007
 7948TIP3   OH245258   5.734   2.639   4.080  0.0396  0.1164  0.1231
 7948TIP3    H145259   5.718   2.602   4.167 -0.1204  1.0786  0.5187
 7948TIP3    H245260   5.777   2.569   4.032 -0.0224 -0.4904  0.9261
 7949TIP3   OH245261   0.198   0.113  12.164 -0.0082 -0.7106  0.0782
 7949TIP3    H145262   0.279   0.068  12.190  0.1594 -0.6790 -0.3930
 7949TIP3    H245263   0.130   0.045  12.170  0.1244 -0.8467  0.0498
 7950TIP3   OH245264   5.986   6.174  14.768  0.2094 -0.1855  0.1312
 7950TIP3    H145265   5.964   6.139  14.682 -1.4106  0.0863  0.4063
 7950TIP3    H245266   5.912   6.151  14.824  1.7944 -1.5297  1.8423
 7951TIP3   OH245267   2.274   4.059   1.882  0.3527  0.1874  0.2847
 7951TIP3    H145268   2.218   3.986   1.855 -0.5838  0.6623  0.8546
 7951TIP3    H245269   2.302   4.100   1.801 -0.2956  0.0423 -0.0229
 7952TIP3   OH245270   0.846   6.266  16.931 -0.2822 -0.3424 -0.4440
 7952TIP3    H145271   0.755   6.267  16.960  0.4041 -0.0886  1.8976
 7952TIP3    H245272   0.892   6.212  16.995  1.3153 -0.0650 -1.2905
 7953TIP3   OH245273   1.992   3.868   1.392  0.0145 -0.0952 -0.2126
 7953TIP3    H145274   2.024   3.902   1.309  1.5649 -1.2420 -0.1265
 7953TIP3    H245275   1.972   3.946   1.444 -1.3073  0.6325 -1.7441
 7954TIP3   OH245276   6.080   2.252   6.293 -0.5746 -0.2430 -0.0517
 7954TIP3    H145277   6.053   2.288   6.377  0.4404 -0.4246  0.3613
 7954TIP3    H245278   6.140   2.181   6.315 -0.7733 -0.6913 -0.9171
 7955TIP3   OH245279   2.658   5.879  12.300  0.0735  0.0832  0.3408
 7955TIP3    H145280   2.583   5.835  12.260  0.1395  0.5513 -0.3202
 7955TIP3    H245281   2.648   5.971  12.274  0.7880  0.1768  0.3845
 7956TIP3   OH245282   4.167   2.944  11.613 -0.0068 -0.1423 -0.5117
 7956TIP3    H145283   4.133   2.921  11.527  0.8443  0.0395 -0.9123
 7956TIP3    H245284   4.091   2.976  11.662 -0.4337  0.0869 -1.3096
 7957TIP3   OH245285   2.630   4.262   3.992 -0.3855  0.1821 -0.1703
 7957TIP3    H145286   2.652   4.174   4.023 -0.8331 -0.1197 -0.6868
 7957TIP3    H245287   2.641   4.318   4.069 -1.5677 -0.5599  0.5739
 7958TIP3   OH245288   1.156   4.256  15.183 -0.2238 -0.2481 -0.6121
 7958TIP3    H145289   1.103   4.335  15.199  0.6727  0.2318  0.1392
 7958TIP3    H245290   1.244   4.282  15.210  0.0107 -1.6343  0.0064
 7959TIP3   OH245291   1.370   0.420   3.799 -0.2513 -0.6718  0.0874
 7959TIP3    H145292   1.359   0.511   3.827  1.0568  0.0327 -1.5066
 7959TIP3    H245293   1.290   0.376   3.826 -1.3264  1.1734  0.0520
 7960TIP3   OH245294   0.492   2.311  12.021  0.4563  0.1626  0.5160
 7960TIP3    H145295   0.403   2.315  12.056  0.4000 -0.4482  0.4552
 7960TIP3    H245296   0.536   2.246  12.075  0.6897  0.0274  0.1660
 7961TIP3   OH245297   3.611   4.677  14.724 -0.0796 -0.1790  0.3667
 7961TIP3    H145298   3.640   4.622  14.797  3.4675  0.9038 -0.0199
 7961TIP3    H245299   3.654   4.640  14.647 -3.2550 -0.9274 -1.2202
 7962TIP3   OH245300   0.335   3.602   4.128 -0.0762 -0.5814  0.2582
 7962TIP3    H145301   0.252   3.623   4.171  0.0100  1.6180 -0.5648
 7962TIP3    H245302   0.392   3.574   4.200 -0.5880  0.9408  1.2990
 7963TIP3   OH245303   6.358   0.635  16.712  0.5264  0.2216  0.0600
 7963TIP3    H145304   6.452   0.622  16.716  0.6010 -0.0470 -1.6498
 7963TIP3    H245305   6.340   0.652  16.619 -1.3511 -1.8033 -0.0229
 7964TIP3   OH245306   5.041   1.428   1.256 -0.5096 -0.1478  0.3102
 7964TIP3    H145307   4.985   1.350   1.264 -1.6224  0.7170  1.3691
 7964TIP3    H245308   5.089   1.432   1.338  0.1496 -0.1348 -0.0645
 7965TIP3   OH245309   0.581   4.869  17.228 -0.1605 -0.4227  0.6572
 7965TIP3    H145310   0.626   4.825  17.156  0.9057 -0.8218  1.5247
 7965TIP3    H245311   0.610   4.960  17.222  0.4777 -0.5982  0.9776
 7966TIP3   OH245312   4.098   3.182  13.156 -0.1385  0.5188  0.0750
 7966TIP3    H145313   4.032   3.181  13.226  0.3026  0.4135  0.4911
 7966TIP3    H245314   4.159   3.112  13.179 -0.9824 -0.7696 -1.3915
 7967TIP3   OH245315   3.639   6.381  14.701 -0.4409  0.2208 -0.7273
 7967TIP3    H145316   3.596   6.464  14.683 -0.9274  0.1752  0.1888
 7967TIP3    H245317   3.586   6.316  14.656 -0.7553  0.2780 -0.4421
 7968TIP3   OH245318   2.303   2.865  13.072  0.6674  0.3503 -0.9536
 7968TIP3    H145319   2.356   2.932  13.115  1.2005 -0.9291  0.4963
 7968TIP3    H245320   2.339   2.782  13.105 -1.3739 -0.5985 -0.9910
 7969TIP3   OH245321   0.398   3.364   2.061  0.2041  0.4136 -0.2347
 7969TIP3    H145322   0.490   3.379   2.043  0.1923 -0.6513 -1.3172
 7969TIP3    H245323   0.358   3.451   2.059  1.3230  0.9899  1.2342
 7970TIP3   OH245324   2.492   3.532   0.362  0.3380 -0.0598 -0.5305
 7970TIP3    H145325   2.450   3.482   0.432  1.2427  0.4530  0.4030
 7970TIP3    H245326   2.436   3.519   0.286 -0.0277 -1.5845 -0.0191
 7971TIP3   OH245327   5.105   5.538   3.015 -0.2923  0.1749 -0.3361
 7971TIP3    H145328   5.081   5.452   2.978  0.1238 -1.0032  1.9613
 7971TIP3    H245329   5.199   5.544   3.002 -0.2374  0.0221 -0.0285
 7972TIP3   OH245330   6.409   0.867  13.486 -0.1212 -0.3108  0.2189
 7972TIP3    H145331   6.385   0.791  13.540  1.7170 -0.4282  0.9236
 7972TIP3    H245332   6.365   0.941  13.527  1.0051 -0.4497  1.7534
 7973TIP3   OH245333   2.736   6.408  11.990  0.1892  0.4334 -0.1039
 7973TIP3    H145334   2.761   6.444  12.075 -0.7926  0.6634  0.0961
 7973TIP3    H245335   2.793   6.454  11.927  2.1111 -0.9327  0.5448
 7974TIP3   OH245336   3.873   0.464  11.377  0.3072  0.1138  0.0907
 7974TIP3    H145337   3.878   0.416  11.460  0.7917 -1.1591 -0.6570
 7974TIP3    H245338   3.780   0.488  11.369  0.1143 -0.4356  0.6180
 7975TIP3   OH245339   6.474   3.186  13.874 -0.5083  0.6099 -0.5250
 7975TIP3    H145340   6.560   3.190  13.917  0.2811  0.7253 -2.0317
 7975TIP3    H245341   6.484   3.119  13.806 -1.7748  0.2886 -0.4233
 7976TIP3   OH245342   5.281   1.940  14.489  0.9647 -0.2339 -0.2930
 7976TIP3    H145343   5.246   1.856  14.459  0.7778 -0.3226  0.1797
 7976TIP3    H245344   5.268   1.940  14.583  0.4766  0.5625 -0.3557
 7977TIP3   OH245345   2.306   0.333  12.928  0.0134  0.1698  0.1416
 7977TIP3    H145346   2.317   0.345  13.023  0.1190  0.5383  0.0856
 7977TIP3    H245347   2.299   0.238  12.917  0.5242  0.0867  0.4686
 7978TIP3   OH245348   4.805   1.698  14.010 -0.0129  0.6624 -0.2305
 7978TIP3    H145349   4.752   1.654  14.077  0.9606  1.1670  0.8944
 7978TIP3    H245350   4.750   1.771  13.981 -0.9647 -0.2912 -0.9363
 7979TIP3   OH245351   5.762   1.666  12.709  0.4507  0.2001  0.3181
 7979TIP3    H145352   5.687   1.628  12.663  1.0694  0.5556 -1.0371
 7979TIP3    H245353   5.740   1.658  12.802  0.2381 -2.7363  0.0940
 7980TIP3   OH245354   6.789   1.166   4.436 -0.0973  0.1992 -0.3347
 7980TIP3    H145355   6.818   1.194   4.523 -0.8562  0.6002 -0.1987
 7980TIP3    H245356   6.701   1.130   4.450  0.3013 -0.9805 -0.7366
 7981TIP3   OH245357   0.244   6.401   3.918  0.4343  0.2850  0.4781
 7981TIP3    H145358   0.336   6.373   3.921  0.0184 -1.3633 -0.7215
 7981TIP3    H245359   0.195   6.320   3.907 -1.1684  1.1644  0.9118
 7982TIP3   OH245360   5.397   4.106  11.973 -0.0230  0.0528  0.0777
 7982TIP3    H145361   5.459   4.092  11.902 -0.2526  0.9616 -0.3095
 7982TIP3    H245362   5.448   4.088  12.053  0.1865 -1.1207 -0.3106
 7983TIP3   OH245363   5.143   1.013   1.497 -0.2260 -0.3051 -0.4481
 7983TIP3    H145364   5.088   1.091   1.489  1.6763  1.1909  0.1676
 7983TIP3    H245365   5.154   1.001   1.592  0.3131 -0.7027 -0.5571
 7984TIP3   OH245366   1.483   1.387   5.943  0.2107  0.0712 -0.0159
 7984TIP3    H145367   1.464   1.367   6.035 -0.6056  0.3156 -0.1271
 7984TIP3    H245368   1.422   1.332   5.894 -1.4826  2.1476 -0.3470
 7985TIP3   OH245369   0.880   0.578   4.070  0.3209  0.6399  0.5744
 7985TIP3    H145370   0.952   0.600   4.130  1.5329 -1.5197  0.0153
 7985TIP3    H245371   0.814   0.645   4.086  1.6698  1.5964  2.4877
 7986TIP3   OH245372   5.899   6.097  10.661 -0.0661 -0.5244  0.7093
 7986TIP3    H145373   5.924   6.159  10.593 -1.2216 -0.0187  0.7236
 7986TIP3    H245374   5.963   6.026  10.654  1.3066  0.6771  0.7146
 7987TIP3   OH245375   3.158   2.949  12.314  0.4025  0.0638 -0.3112
 7987TIP3    H145376   3.075   2.901  12.304  0.3201  0.1083  0.1448
 7987TIP3    H245377   3.214   2.889  12.363  0.1057  0.6433  0.7794
 7988TIP3   OH245378   5.552   5.986   1.054  0.3090 -0.4531 -0.2014
 7988TIP3    H145379   5.565   5.931   0.976  2.1126 -1.3137  0.6381
 7988TIP3    H245380   5.556   6.076   1.021 -1.0338 -0.7816 -1.3656
 7989TIP3   OH245381   1.304   4.089   4.659  0.0150 -0.5313 -0.5940
 7989TIP3    H145382   1.361   4.165   4.647  0.7333 -1.3689 -3.1574
 7989TIP3    H245383   1.304   4.074   4.754  0.8272  1.8802 -0.1368
 7990TIP3   OH245384   0.249   1.462  15.727 -0.3228  0.0703 -0.3221
 7990TIP3    H145385   0.228   1.499  15.813  1.5443 -0.3776  0.3958
 7990TIP3    H245386   0.253   1.368  15.742 -0.1181 -0.0193 -0.9218
 7991TIP3   OH245387   5.313   6.013   3.191 -0.4864  0.7883 -0.0184
 7991TIP3    H145388   5.392   5.961   3.209 -0.6388  1.2516  2.3660
 7991TIP3    H245389   5.342   6.104   3.204 -1.4184  0.9504  1.0748
 7992TIP3   OH245390   3.767   0.629  11.762  0.2366  0.3150  0.3888
 7992TIP3    H145391   3.688   0.578  11.780  1.0203 -1.3393 -0.5993
 7992TIP3    H245392   3.805   0.647  11.848 -0.5712  0.0670  0.8011
 7993TIP3   OH245393   3.149   6.489  16.574 -0.1274 -0.0124 -0.4041
 7993TIP3    H145394   3.160   6.452  16.486  0.1976 -0.5229 -0.1528
 7993TIP3    H245395   3.193   6.574  16.569  0.2705 -0.2264 -0.6112
 7994TIP3   OH245396   5.912   2.364  17.255 -0.0118 -0.0034 -0.0397
 7994TIP3    H145397   5.964   2.298  17.208  1.2828  1.9671 -1.5092
 7994TIP3    H245398   5.862   2.408  17.186  0.1975  1.4679  0.7231
 7995TIP3   OH245399   1.826   5.300   3.768  0.1583 -0.3794 -0.2747
 7995TIP3    H145400   1.862   5.284   3.855  0.5295  0.2124 -0.3158
 7995TIP3    H245401   1.900   5.288   3.709  0.9133  2.9580 -0.1976
 7996TIP3   OH245402   6.724   5.567   2.549 -0.3259 -0.3393 -1.0530
 7996TIP3    H145403   6.798   5.592   2.604  0.0342 -0.5009 -1.4468
 7996TIP3    H245404   6.752   5.591   2.460 -0.5064 -0.9184 -1.2753
 7997TIP3   OH245405   0.766   0.331   0.234  0.5193  0.2233  0.5018
 7997TIP3    H145406   0.859   0.311   0.225  0.6366  0.7486  0.5369
 7997TIP3    H245407   0.760   0.385   0.313  0.2836  0.8124  0.0892
 7998TIP3   OH245408   1.436   1.402  15.998 -0.4010  0.4072  0.0601
 7998TIP3    H145409   1.379   1.333  15.962 -1.0927  1.3865 -0.7935
 7998TIP3    H245410   1.436   1.470  15.931  1.8681  0.4258 -0.0087
 7999TIP3   OH245411   2.454   2.084  14.015 -0.5096 -0.4020 -0.2689
 7999TIP3    H145412   2.428   1.991  14.013 -0.9279 -0.2952 -2.0314
 7999TIP3    H245413   2.473   2.105  13.923  1.4552  0.7637  0.3595
 8000TIP3   OH245414   1.615   5.967   4.882  0.3190 -0.0694  0.1874
 8000TIP3    H145415   1.528   5.982   4.917  0.6927  2.1853  0.3002
 8000TIP3    H245416   1.632   6.043   4.827  1.9477 -0.8039 -0.3844
 8001TIP3   OH245417   1.203   4.248  12.260 -0.1712  0.0125 -0.0933
 8001TIP3    H145418   1.135   4.182  12.270 -0.4768  0.2084 -0.8370
 8001TIP3    H245419   1.162   4.330  12.288  0.2698 -0.1243  1.0295
 8002TIP3   OH245420   4.784   6.303   5.029 -0.2263  0.2613 -0.5531
 8002TIP3    H145421   4.865   6.335   5.069 -0.7988  1.7006 -0.4668
 8002TIP3    H245422   4.786   6.338   4.940 -0.1282 -0.8362 -0.9934
 8003TIP3   OH245423   6.488   2.240  15.786  0.6648  0.3776 -0.5091
 8003TIP3    H145424   6.444   2.181  15.724 -1.2311  0.2596  0.8560
 8003TIP3    H245425   6.449   2.219  15.871  1.9611  1.7133  0.4721
 8004TIP3   OH245426   3.970   0.820   1.825 -0.0276  0.0846  0.0261
 8004TIP3    H145427   3.910   0.880   1.869 -1.7173 -1.3408 -0.2287
 8004TIP3    H245428   3.972   0.742   1.881  0.4774 -0.4274 -0.6803
 8005TIP3   OH245429   3.967   3.577   0.471 -0.3896 -0.0770  0.3101
 8005TIP3    H145430   4.054   3.537   0.480 -0.3407 -0.0229  0.0913
 8005TIP3    H245431   3.958   3.634   0.547 -0.3182 -0.2438  0.4437
 8006TIP3   OH245432   0.790   1.663  16.524  0.1609  0.1314  0.5439
 8006TIP3    H145433   0.855   1.655  16.455 -0.8094 -0.1543 -0.3572
 8006TIP3    H245434   0.735   1.737  16.497 -0.7932 -0.5718  0.5081
 8007TIP3   OH245435   1.899   3.293  13.522  0.1324  0.3022 -0.5045
 8007TIP3    H145436   1.958   3.248  13.461 -1.4947 -1.6111 -0.7787
 8007TIP3    H245437   1.850   3.354  13.467  0.9143  0.9586 -0.4976
 8008TIP3   OH245438   4.126   4.202  11.248  0.1159 -0.1234  0.0287
 8008TIP3    H145439   4.042   4.238  11.277  0.2796  0.4454 -0.1882
 8008TIP3    H245440   4.191   4.259  11.289  0.4016 -0.5814  0.2227
 8009TIP3   OH245441   3.277   2.289   2.087 -0.4532 -0.2432  0.3162
 8009TIP3    H145442   3.330   2.356   2.130 -1.2089 -0.3094  1.3816
 8009TIP3    H245443   3.270   2.219   2.152 -1.4373 -0.4402  0.0151
 8010TIP3   OH245444   2.015   4.331  11.576  0.3552  0.2953 -0.3806
 8010TIP3    H145445   1.991   4.258  11.519  0.1334  0.1049 -0.0469
 8010TIP3    H245446   2.101   4.360  11.544  0.0111  0.5104 -1.1213
 8011TIP3   OH245447   5.624   0.849  11.320 -0.1537 -0.3527 -0.2383
 8011TIP3    H145448   5.702   0.850  11.376  0.1080  0.2467 -0.5950
 8011TIP3    H245449   5.639   0.920  11.257 -1.9174  1.1618  0.9463
 8012TIP3   OH245450   1.800   6.092  12.533 -0.5650  0.5640  0.4353
 8012TIP3    H145451   1.881   6.080  12.485 -0.3382 -0.2409  0.9889
 8012TIP3    H245452   1.797   6.017  12.593 -2.4764 -0.3103 -0.6548
 8013TIP3   OH245453   4.785   6.233  14.926 -0.4942 -0.3414 -1.1484
 8013TIP3    H145454   4.876   6.244  14.897  1.0891 -0.9682  3.0021
 8013TIP3    H245455   4.747   6.321  14.920  2.0286  1.1103  1.6600
 8014TIP3   OH245456   1.045   5.063  14.556 -0.4014 -0.2292  0.1380
 8014TIP3    H145457   1.121   5.121  14.566 -0.6429  0.6361 -2.1822
 8014TIP3    H245458   1.028   5.030  14.644  1.1747  1.4434  1.1621
 8015TIP3   OH245459   4.827   5.875  15.113  0.0067  0.3048  0.2377
 8015TIP3    H145460   4.916   5.894  15.143 -0.6268  0.6420  2.0466
 8015TIP3    H245461   4.821   5.780  15.114  0.2254  0.2907  0.5653
 8016TIP3   OH245462   0.166   6.214   2.167  0.0219 -0.1503  0.3235
 8016TIP3    H145463   0.248   6.185   2.127  1.5276  0.9999  2.3850
 8016TIP3    H245464   0.135   6.284   2.109 -0.7462 -2.0267 -1.6620
 8017TIP3   OH245465   4.138   3.337   2.841 -0.4462 -0.0437  0.5546
 8017TIP3    H145466   4.179   3.408   2.890  0.4256  0.0341 -0.2608
 8017TIP3    H245467   4.160   3.354   2.749 -3.3559  0.6819 -0.1157
 8018TIP3   OH245468   5.040   1.819  12.263  0.2294 -0.2349  0.0897
 8018TIP3    H145469   4.956   1.857  12.292 -0.2032 -0.0956 -1.3050
 8018TIP3    H245470   5.105   1.884  12.290 -0.3701  0.8790 -1.0413
 8019TIP3   OH245471   4.023   1.580  16.980 -0.1212 -0.0929  0.3502
 8019TIP3    H145472   4.043   1.646  17.046 -1.0861 -0.6898  1.2615
 8019TIP3    H245473   4.083   1.508  16.999 -2.1859 -1.4237  2.3931
 8020TIP3   OH245474   2.950   0.406   3.851  0.4182  0.3356 -0.0060
 8020TIP3    H145475   2.969   0.321   3.889 -0.0379  0.9240  1.5967
 8020TIP3    H245476   3.032   0.434   3.811  0.8251 -0.4401  0.2842
 8021TIP3   OH245477   3.891   0.321  15.008  0.1304 -0.2267  0.2553
 8021TIP3    H145478   3.945   0.396  14.986  0.4801 -0.6927 -0.5119
 8021TIP3    H245479   3.954   0.248  15.015 -0.5795 -1.3976 -3.3574
 8022TIP3   OH245480   6.744   0.526   0.531 -0.1194 -0.3175  0.2429
 8022TIP3    H145481   6.729   0.500   0.622  3.0674 -0.0309  1.0007
 8022TIP3    H245482   6.716   0.451   0.479 -1.6431 -0.6451  1.4561
 8023TIP3   OH245483   5.057   5.977   3.130  0.1272  0.4173  0.1037
 8023TIP3    H145484   5.143   5.977   3.171  0.5550 -0.1383 -0.7484
 8023TIP3    H245485   4.998   6.016   3.195  0.8803  0.1085  0.9828
 8024TIP3   OH245486   4.320   5.889  15.042 -0.0319  0.1842  0.1322
 8024TIP3    H145487   4.337   5.922  15.131 -0.8688 -2.4552  1.3844
 8024TIP3    H245488   4.224   5.891  15.034  0.0663  2.7621 -1.7988
 8025TIP3   OH245489   2.839   2.663  17.152 -0.6138 -0.2631  0.0005
 8025TIP3    H145490   2.860   2.652  17.059 -0.8229 -2.8037  0.1824
 8025TIP3    H245491   2.896   2.601  17.198 -0.2053  1.2474  1.6487
 8026TIP3   OH245492   1.233   3.254  14.529  0.6048 -0.2586  0.1795
 8026TIP3    H145493   1.139   3.271  14.517  0.3952 -1.3204  0.2168
 8026TIP3    H245494   1.269   3.253  14.441  0.9244  1.8006  0.2165
 8027TIP3   OH245495   0.443   6.015  15.468 -0.5899  0.1248  0.2378
 8027TIP3    H145496   0.465   6.081  15.402 -2.3815  0.1541 -0.3891
 8027TIP3    H245497   0.384   5.955  15.422  2.1339 -2.8608  0.3012
 8028TIP3   OH245498   4.361   1.805  14.325 -0.2696 -0.9656  0.2450
 8028TIP3    H145499   4.447   1.775  14.354 -0.3617 -0.5997  0.9098
 8028TIP3    H245500   4.307   1.801  14.404 -0.6972 -0.5970 -0.0294
 8029TIP3   OH245501   2.859   6.051   4.892 -0.1012  0.0478 -0.9799
 8029TIP3    H145502   2.778   6.097   4.869 -0.1064  1.2339  1.0999
 8029TIP3    H245503   2.859   6.051   4.988  2.5198  0.4202 -0.9221
 8030TIP3   OH245504   2.555   3.219   1.210  0.2093 -0.7386  0.1691
 8030TIP3    H145505   2.566   3.243   1.118 -0.7911 -0.6038  0.0667
 8030TIP3    H245506   2.586   3.295   1.259 -3.1442  1.0206 -0.1481
 8031TIP3   OH245507   0.929   2.420  14.864  0.2689 -0.4281  0.0453
 8031TIP3    H145508   0.844   2.443  14.900  0.4208 -0.6100  0.5255
 8031TIP3    H245509   0.920   2.328  14.838 -0.0235 -0.1325 -0.9362
 8032TIP3   OH245510   2.214   5.001  13.878 -0.4617 -0.1315  0.1731
 8032TIP3    H145511   2.149   5.035  13.940 -0.0494 -0.3874  0.7531
 8032TIP3    H245512   2.211   4.906  13.890 -0.3584 -0.1776 -0.1788
 8033TIP3   OH245513   5.309   0.587   1.190 -0.9229  0.3224 -0.7368
 8033TIP3    H145514   5.403   0.599   1.183 -0.7672 -0.5374 -0.3194
 8033TIP3    H245515   5.278   0.664   1.238 -0.5131  0.8671 -1.3387
 8034TIP3   OH245516   0.257   4.158   2.779 -0.2163  0.0572 -0.3502
 8034TIP3    H145517   0.191   4.206   2.729  0.0431 -0.5565 -1.3118
 8034TIP3    H245518   0.213   4.135   2.861 -1.5551 -1.2029 -1.3696
 8035TIP3   OH245519   0.832   5.342   2.414 -0.4008 -0.1698 -0.1015
 8035TIP3    H145520   0.880   5.260   2.430 -0.9806 -0.7886 -1.4391
 8035TIP3    H245521   0.890   5.393   2.358 -1.0671 -0.7173 -1.3193
 8036TIP3   OH245522   4.302   2.468   3.506 -0.4979 -0.3209 -0.0629
 8036TIP3    H145523   4.384   2.428   3.479 -0.9005 -1.0105 -0.2590
 8036TIP3    H245524   4.298   2.453   3.601 -0.9972 -1.4086 -0.2411
 8037TIP3   OH245525   3.464   4.115   1.780  0.0211 -0.4168  0.1945
 8037TIP3    H145526   3.477   4.070   1.864 -0.7498  0.7515  0.9671
 8037TIP3    H245527   3.370   4.111   1.765  0.0792 -0.0376 -0.2906
 8038TIP3   OH245528   2.576   4.181   5.303 -0.1888  0.0179 -0.3583
 8038TIP3    H145529   2.532   4.180   5.388  0.7743  0.7726  0.1679
 8038TIP3    H245530   2.598   4.089   5.287  1.3293  0.0518  1.1610
 8039TIP3   OH245531   5.954   6.596   3.079  0.2865 -0.4077 -0.3659
 8039TIP3    H145532   5.917   6.618   2.994  0.4599  0.7672 -0.1593
 8039TIP3    H245533   6.047   6.581   3.061  0.7384  1.7787 -0.1314
 8040TIP3   OH245534   5.864   1.681   1.286  0.1635  0.3463  0.3853
 8040TIP3    H145535   5.796   1.699   1.350 -0.6845  0.4763 -0.5356
 8040TIP3    H245536   5.824   1.701   1.202  1.0038 -0.5643 -0.2568
 8041TIP3   OH245537   5.343   5.488   1.949 -0.3900  0.2863  0.0607
 8041TIP3    H145538   5.322   5.503   1.856 -3.1064 -0.9059  0.3722
 8041TIP3    H245539   5.329   5.395   1.962 -0.3345  0.4782  1.7220
 8042TIP3   OH245540   3.382   1.222  11.963  0.5656 -0.1390 -0.4794
 8042TIP3    H145541   3.431   1.176  12.031 -0.2076 -0.0262  0.1707
 8042TIP3    H245542   3.448   1.247  11.899  1.4115  0.3025  0.5276
 8043TIP3   OH245543   0.174   2.959  11.866  0.4246 -0.1111  1.0717
 8043TIP3    H145544   0.096   2.992  11.821  0.7431  0.0292  0.6215
 8043TIP3    H245545   0.141   2.930  11.951  0.2515  1.9949  1.7781
 8044TIP3   OH245546   5.390   0.016   6.157 -0.4361  0.1209  0.1024
 8044TIP3    H145547   5.318  -0.032   6.116  0.0987 -0.3005 -0.3758
 8044TIP3    H245548   5.364   0.107   6.151 -1.3151 -0.0810  0.7109
 8045TIP3   OH245549   2.992   3.465   0.330  0.1961  0.0501 -0.2193
 8045TIP3    H145550   2.991   3.530   0.260 -0.0020  0.3847  0.0847
 8045TIP3    H245551   2.967   3.515   0.408  1.6402 -0.0375  0.3220
 8046TIP3   OH245552   3.817   1.447  15.792  0.4453 -0.3747 -0.1264
 8046TIP3    H145553   3.759   1.447  15.869  0.4513 -0.7408 -0.1215
 8046TIP3    H245554   3.871   1.525  15.803  1.1445 -0.9572  0.7743
 8047TIP3   OH245555   3.050   0.922   4.122  0.0339  0.2835  0.1940
 8047TIP3    H145556   3.024   0.911   4.213  0.5928 -1.3214  0.1793
 8047TIP3    H245557   3.049   0.834   4.085  1.1265  0.7332 -0.9959
 8048TIP3   OH245558   6.733   6.700  12.893 -0.0584  0.2785 -0.1620
 8048TIP3    H145559   6.826   6.694  12.911 -0.1542  2.0851  1.1461
 8048TIP3    H245560   6.723   6.781  12.843 -1.0146  0.5705  0.4704
 8049TIP3   OH245561   0.348   5.092   1.553 -0.2758 -0.1455  0.2856
 8049TIP3    H145562   0.263   5.094   1.597 -0.1890  0.6937  0.4292
 8049TIP3    H245563   0.327   5.103   1.460 -0.3688 -0.7263  0.2284
 8050TIP3   OH245564   4.750   4.033  14.742  0.0917 -0.3432 -0.6167
 8050TIP3    H145565   4.817   4.100  14.727 -0.0749 -0.0961 -0.2599
 8050TIP3    H245566   4.799   3.956  14.770  0.2761 -0.3446 -0.9309
 8051TIP3   OH245567   6.577   4.374   0.412  0.5884 -0.0657  0.7104
 8051TIP3    H145568   6.505   4.413   0.362  1.0546  1.0524  0.8800
 8051TIP3    H245569   6.622   4.318   0.350 -0.6283 -1.0716  0.6930
 8052TIP3   OH245570   6.312   2.063  17.221  0.1800 -0.4452 -0.1521
 8052TIP3    H145571   6.244   2.014  17.175 -2.0442 -0.5014  2.8392
 8052TIP3    H245572   6.360   1.997  17.271 -0.4518  0.0090  1.0898
 8053TIP3   OH245573   3.914   5.360  12.067  0.1053  0.2796  0.2869
 8053TIP3    H145574   3.862   5.384  12.144  0.1391  1.0001  0.0938
 8053TIP3    H245575   3.944   5.444  12.031  0.5019 -0.0747 -0.2263
 8054TIP3   OH245576   4.190   5.591  13.734 -0.0599 -0.4793 -0.4455
 8054TIP3    H145577   4.135   5.593  13.655 -0.2317 -2.3908 -0.4163
 8054TIP3    H245578   4.262   5.650  13.714  0.6909 -2.0083 -2.6875
 8055TIP3   OH245579   4.406   2.311  16.578 -0.1355  0.2373 -0.2453
 8055TIP3    H145580   4.339   2.286  16.642  1.2012 -0.6483  0.8637
 8055TIP3    H245581   4.369   2.286  16.494 -0.3083 -2.4336  0.5205
 8056TIP3   OH245582   2.803   0.957  16.606 -0.0428 -0.2212 -0.2529
 8056TIP3    H145583   2.714   0.968  16.641 -0.0443  1.3598 -0.6689
 8056TIP3    H245584   2.816   0.862  16.604 -0.7178 -0.4376  2.2930
 8057TIP3   OH245585   4.298   5.368   5.417  0.3518 -0.2458 -0.6045
 8057TIP3    H145586   4.332   5.373   5.506  0.9976  0.6009 -0.8859
 8057TIP3    H245587   4.207   5.398   5.424  0.6650  0.6797 -0.3631
 8058TIP3   OH245588   3.323   0.802  13.321  0.2611  0.1574  0.1727
 8058TIP3    H145589   3.411   0.835  13.304  0.3859  0.0115  0.5124
 8058TIP3    H245590   3.270   0.880  13.337  0.4606  0.2155  0.5533
 8059TIP3   OH245591   3.740   6.054  16.098 -0.5321  0.6975 -1.1884
 8059TIP3    H145592   3.820   6.004  16.083 -1.0754 -0.0794 -1.5730
 8059TIP3    H245593   3.764   6.121  16.162  0.3369  0.2613 -1.0540
 8060TIP3   OH245594   4.926   2.427  11.086 -0.5180 -0.4086  0.4244
 8060TIP3    H145595   4.923   2.516  11.051 -2.4498 -0.1563  1.0888
 8060TIP3    H245596   5.016   2.397  11.070 -0.1804  1.1894 -0.9354
 8061TIP3   OH245597   1.429   0.734   4.558  0.8376  0.1475 -1.1275
 8061TIP3    H145598   1.345   0.779   4.547  0.1816 -1.0597 -1.2042
 8061TIP3    H245599   1.494   0.804   4.556 -0.3234  1.4831  1.7520
 8062TIP3   OH245600   6.098   1.283   3.987 -0.0344 -0.2606 -0.3258
 8062TIP3    H145601   6.027   1.225   3.960 -0.0504  1.3026 -4.5336
 8062TIP3    H245602   6.178   1.235   3.964  0.0776 -0.0203 -0.4396
 8063TIP3   OH245603   5.983   5.942   2.005 -0.0869  0.1735  0.1333
 8063TIP3    H145604   5.985   6.030   1.968  1.4805  0.4879  0.8672
 8063TIP3    H245605   5.929   5.949   2.084  0.6095  0.6632  0.5781
 8064TIP3   OH245606   0.225   2.285   5.318 -0.4013  0.6027  0.4106
 8064TIP3    H145607   0.210   2.225   5.391 -0.0724  0.3489  0.2717
 8064TIP3    H245608   0.295   2.244   5.267 -0.4533  0.9029  0.0916
 8065TIP3   OH245609   1.930   3.854   5.923  0.1933 -0.0403 -0.1750
 8065TIP3    H145610   1.890   3.818   6.002  0.8419 -0.1425  0.1188
 8065TIP3    H245611   1.864   3.912   5.886  0.0481  0.3485  0.6824
 8066TIP3   OH245612   4.551   3.346  13.702 -0.2528 -0.4409  0.4220
 8066TIP3    H145613   4.483   3.337  13.769 -1.6119  0.6187 -0.7570
 8066TIP3    H245614   4.609   3.415  13.737 -1.8898  1.3225 -0.1541
 8067TIP3   OH245615   4.302   3.890   0.880 -0.5680 -0.3195 -0.0814
 8067TIP3    H145616   4.225   3.941   0.854 -0.4373 -0.0767  0.0094
 8067TIP3    H245617   4.281   3.800   0.854 -0.4679 -0.0932 -0.9842
 8068TIP3   OH245618   0.259   1.393   1.191 -0.4845 -0.2842  0.2420
 8068TIP3    H145619   0.164   1.406   1.189 -0.5359 -0.5127  0.9669
 8068TIP3    H245620   0.289   1.443   1.267 -0.2747 -1.7393  1.1446
 8069TIP3   OH245621   0.740   1.944   1.576 -0.4952 -0.0380 -0.5876
 8069TIP3    H145622   0.710   2.013   1.635  0.9932 -0.8644  1.2499
 8069TIP3    H245623   0.765   1.989   1.496 -1.1192  1.3311 -0.0301
 8070TIP3   OH245624   2.463   5.000  16.821  0.3067  0.0846  0.4436
 8070TIP3    H145625   2.380   5.009  16.775  0.1121  0.4775  0.8697
 8070TIP3    H245626   2.453   5.051  16.901  0.4537 -1.0162  1.1898
 8071TIP3   OH245627   2.580   5.793   1.709 -0.2387  0.3123  0.0725
 8071TIP3    H145628   2.639   5.868   1.704  0.1341  0.0038 -0.1722
 8071TIP3    H245629   2.633   5.722   1.747  0.0010 -0.3973 -1.5170
 8072TIP3   OH245630   1.702   2.062   4.454  0.7233 -0.2293 -0.4194
 8072TIP3    H145631   1.616   2.053   4.412  1.2986 -2.4235 -1.2664
 8072TIP3    H245632   1.690   2.026   4.542  0.8449 -0.8785 -0.6635
 8073TIP3   OH245633   0.258   2.106  15.890 -0.0302  0.1379 -0.4940
 8073TIP3    H145634   0.168   2.079  15.875 -0.4719  1.5862 -0.6228
 8073TIP3    H245635   0.260   2.134  15.981  0.2966  0.1142 -0.4914
 8074TIP3   OH245636   1.865   4.807   1.712 -0.1651  0.2856  0.3005
 8074TIP3    H145637   1.776   4.781   1.691 -0.2661  1.5114 -0.9514
 8074TIP3    H245638   1.879   4.889   1.663  1.7183 -0.0076  0.2537
 8075TIP3   OH245639   3.543   1.284  11.768 -0.5650 -0.2443  0.0058
 8075TIP3    H145640   3.616   1.253  11.822 -1.2913  1.1432  1.9086
 8075TIP3    H245641   3.584   1.343  11.704  0.2046 -1.2254 -0.4355
 8076TIP3   OH245642   0.586   0.271  12.650  0.1791  0.2183  0.0978
 8076TIP3    H145643   0.656   0.297  12.710 -0.4578 -2.8063  2.4202
 8076TIP3    H245644   0.517   0.336  12.664  0.8812  0.7866  1.0537
 8077TIP3   OH245645   0.947   3.154  15.318  0.5193 -0.3213 -0.0651
 8077TIP3    H145646   0.861   3.161  15.276  0.4696 -1.6379 -0.2054
 8077TIP3    H245647   1.004   3.207  15.263 -0.0896  0.1451 -0.2669
 8078TIP3   OH245648   3.782   2.720   5.444  0.6991  0.6339 -0.6785
 8078TIP3    H145649   3.862   2.772   5.448 -0.6459  2.9586 -1.7323
 8078TIP3    H245650   3.753   2.713   5.536  1.9610 -0.0486 -0.3167
 8079TIP3   OH245651   4.182   4.952  13.365 -0.0297 -0.0752  0.0203
 8079TIP3    H145652   4.247   4.952  13.294 -1.7695  0.3268 -1.6585
 8079TIP3    H245653   4.142   4.866  13.362  0.8999 -0.5932  1.5561
 8080TIP3   OH245654   6.592   4.416  13.487  0.4486  0.4086 -0.3784
 8080TIP3    H145655   6.616   4.505  13.462  0.6175 -0.3286 -3.0935
 8080TIP3    H245656   6.498   4.410  13.470  0.3094  0.2244  0.3901
 8081TIP3   OH245657   5.367   3.320  12.885 -0.1446 -0.1433 -0.1092
 8081TIP3    H145658   5.331   3.407  12.868  0.6997  0.0250 -1.1171
 8081TIP3    H245659   5.363   3.276  12.800  2.3543  0.0277 -0.3684
 8082TIP3   OH245660   4.582   3.450  16.736 -0.0148  0.2973 -0.1076
 8082TIP3    H145661   4.663   3.403  16.719  0.8457  1.5785  0.2922
 8082TIP3    H245662   4.526   3.387  16.781 -0.0525 -1.2601 -2.1916
 8083TIP3   OH245663   6.156   5.514   1.680  0.3864 -0.5046  0.6678
 8083TIP3    H145664   6.106   5.595   1.692 -1.1635 -0.9884 -1.8314
 8083TIP3    H245665   6.234   5.540   1.632  1.0404 -0.1953  1.8703
 8084TIP3   OH245666   6.727   5.671  10.734  0.2614  0.2281 -0.6812
 8084TIP3    H145667   6.644   5.631  10.709  0.6082 -1.1048  0.2155
 8084TIP3    H245668   6.776   5.601  10.777  1.7618  1.0477 -0.9750
 8085TIP3   OH245669   0.323   5.925   1.103 -0.0302  0.6287  0.3434
 8085TIP3    H145670   0.333   5.974   1.184  1.8964  1.6798 -0.4609
 8085TIP3    H245671   0.404   5.875   1.094  0.0293  0.9486 -1.1833
 8086TIP3   OH245672   2.174   3.230  14.642  0.5142  0.4664  0.5767
 8086TIP3    H145673   2.080   3.225  14.658 -0.4602  4.4327 -2.3045
 8086TIP3    H245674   2.211   3.261  14.725 -1.3205  2.1682  0.8451
 8087TIP3   OH245675   0.117   2.246  13.983  0.1144  0.2178 -0.7302
 8087TIP3    H145676   0.072   2.329  13.970 -0.0315  0.2062 -0.3328
 8087TIP3    H245677   0.074   2.186  13.923 -4.1461 -1.1784  3.1355
 8088TIP3   OH245678   1.539   1.706   1.802  0.2735 -0.2719  0.2494
 8088TIP3    H145679   1.507   1.791   1.772  0.3381 -0.4094 -0.2176
 8088TIP3    H245680   1.508   1.698   1.892  1.1048  0.6790  0.6345
 8089TIP3   OH245681   0.209   2.357   4.996  0.2863 -0.6425  0.1726
 8089TIP3    H145682   0.136   2.382   4.939  0.2550 -1.0256  0.0380
 8089TIP3    H245683   0.175   2.282   5.045  1.2682 -2.1604 -1.3667
 8090TIP3   OH245684   4.934   1.232   3.238  0.5552 -0.1450 -0.0813
 8090TIP3    H145685   4.897   1.145   3.249  1.6724 -0.6990 -0.5127
 8090TIP3    H245686   4.997   1.241   3.310  1.1044 -0.0746 -0.5587
 8091TIP3   OH245687   4.225   2.853   4.685  0.2101 -0.4732  0.4663
 8091TIP3    H145688   4.237   2.884   4.595  1.4482  0.0093  0.7643
 8091TIP3    H245689   4.131   2.857   4.700 -0.0359 -0.7316 -0.8622
 8092TIP3   OH245690   4.691   4.217   5.455  0.4100  0.2639 -0.2949
 8092TIP3    H145691   4.737   4.199   5.373  1.9044  2.4518 -0.0129
 8092TIP3    H245692   4.687   4.312   5.460 -0.8561  0.1657  1.5518
 8093TIP3   OH245693   2.418   5.728  15.340 -0.0239  0.2151  0.9884
 8093TIP3    H145694   2.332   5.762  15.363 -1.1955 -1.6780 -0.3226
 8093TIP3    H245695   2.420   5.639  15.376  0.4637 -0.5830 -0.8742
 8094TIP3   OH245696   4.603   3.842  15.567 -0.5593 -0.9014  0.6914
 8094TIP3    H145697   4.690   3.834  15.606 -1.3293  0.5446  2.8544
 8094TIP3    H245698   4.543   3.815  15.636 -1.9034 -0.1873 -0.1607
 8095TIP3   OH245699   4.957   1.556   6.840  0.3472  0.0388 -0.0593
 8095TIP3    H145700   5.040   1.581   6.801  0.5052 -1.3319 -0.6620
 8095TIP3    H245701   4.918   1.494   6.778 -1.5070  1.2195 -0.1729
 8096TIP3   OH245702   5.689   1.312  12.180 -0.3265  0.0812 -0.0478
 8096TIP3    H145703   5.607   1.361  12.189 -0.4732 -0.0732 -0.4897
 8096TIP3    H245704   5.752   1.377  12.148 -0.2377  0.2313  0.4218
 8097TIP3   OH245705   6.481   6.207   2.823  0.1378 -0.1311  0.5973
 8097TIP3    H145706   6.549   6.156   2.778  1.5012  1.5039  0.7138
 8097TIP3    H245707   6.501   6.197   2.916 -2.0122 -2.5805  0.9170
 8098TIP3   OH245708   5.677   5.362  14.183  0.0722  0.0353 -0.1927
 8098TIP3    H145709   5.726   5.437  14.217 -1.7835  1.9047 -1.4571
 8098TIP3    H245710   5.617   5.339  14.254 -2.3897  2.6379 -1.2866
 8099TIP3   OH245711   0.222   6.393  15.826 -0.2526  0.7781 -0.1430
 8099TIP3    H145712   0.304   6.357  15.861 -1.6530 -2.4642  0.1199
 8099TIP3    H245713   0.181   6.436  15.900 -0.3736 -0.7015  0.6827
 8100TIP3   OH245714   6.321   1.752  17.223 -0.0891  0.0990  0.1580
 8100TIP3    H145715   6.413   1.727  17.235 -0.1911 -1.2626 -1.4839
 8100TIP3    H245716   6.272   1.670  17.233 -0.9505  0.4960 -0.6236
 8101TIP3   OH245717   4.290   0.837  11.769 -0.2860  0.1479 -0.0994
 8101TIP3    H145718   4.212   0.845  11.715 -0.1063 -0.2842 -0.4357
 8101TIP3    H245719   4.258   0.837  11.859 -0.6400  0.3255 -0.2264
 8102TIP3   OH245720   0.660   3.274   0.958 -0.0791 -0.4049 -0.1796
 8102TIP3    H145721   0.735   3.287   1.016 -0.6109  1.0302  0.2321
 8102TIP3    H245722   0.584   3.274   1.016 -0.5272 -0.1358 -0.7550
 8103TIP3   OH245723   6.739   0.207  12.882  0.2149 -0.1065 -0.0284
 8103TIP3    H145724   6.823   0.212  12.837  0.3090  0.1979  0.1781
 8103TIP3    H245725   6.680   0.169  12.818  0.9833 -2.3118  0.4717
 8104TIP3   OH245726   4.180   4.036   2.614  0.1765  0.3759 -0.7324
 8104TIP3    H145727   4.189   4.038   2.518 -3.2430  0.2634 -1.1986
 8104TIP3    H245728   4.166   3.944   2.635  0.2451  0.4846 -0.1905
 8105TIP3   OH245729   0.927   4.436  10.314 -0.1854  0.2926 -0.1057
 8105TIP3    H145730   0.989   4.495  10.270 -0.7785  1.3444  0.4427
 8105TIP3    H245731   0.982   4.382  10.371  0.2825  0.8591 -0.0105
 8106TIP3   OH245732   2.906   2.432   0.567 -0.2925 -0.0238 -0.2288
 8106TIP3    H145733   2.944   2.444   0.655 -2.2880 -2.3447  1.0748
 8106TIP3    H245734   2.832   2.492   0.564 -1.6184 -1.5174  0.6787
 8107TIP3   OH245735   4.734   1.122  11.058 -0.4301 -0.3943  0.1479
 8107TIP3    H145736   4.678   1.048  11.080  0.1969 -1.4688 -1.6785
 8107TIP3    H245737   4.696   1.158  10.978  0.0103  0.4839  0.3213
 8108TIP3   OH245738   2.309   1.268  14.591 -0.2359 -0.1470  0.5183
 8108TIP3    H145739   2.351   1.340  14.545 -0.7026 -0.6055 -0.6980
 8108TIP3    H245740   2.277   1.306  14.673 -0.5253  1.0409 -0.1202
 8109TIP3   OH245741   4.847   1.177  11.474 -1.0333 -0.5502 -0.0350
 8109TIP3    H145742   4.885   1.091  11.493  0.3402 -0.1111 -0.6320
 8109TIP3    H245743   4.884   1.235  11.541 -0.2313 -0.0149 -0.9180
 8110TIP3   OH245744   0.463   3.347  16.513 -0.0685  0.1462 -0.0036
 8110TIP3    H145745   0.535   3.370  16.454 -0.7385  0.3654 -0.7569
 8110TIP3    H245746   0.393   3.319  16.454 -0.0331 -1.7532  0.7691
 8111TIP3   OH245747   6.030   4.816  15.453  0.1030 -0.0685  0.0352
 8111TIP3    H145748   5.988   4.734  15.430  1.1829 -1.0365  1.3284
 8111TIP3    H245749   6.123   4.795  15.460  0.4343  1.3123  0.1718
 8112TIP3   OH245750   5.929   0.182   2.697 -0.6034  0.0567 -0.5802
 8112TIP3    H145751   5.879   0.169   2.778  1.6303 -1.2990  0.7028
 8112TIP3    H245752   5.959   0.272   2.701 -0.5779  0.0241  0.0913
 8113TIP3   OH245753   4.916   1.932  14.693  0.0214 -0.0064  0.3974
 8113TIP3    H145754   4.840   1.874  14.699 -0.4986  0.5007 -0.9447
 8113TIP3    H245755   4.926   1.968  14.781 -1.3306 -0.0268  0.5792
 8114TIP3   OH245756   3.943   4.540  14.261  0.0739  0.1594 -0.1942
 8114TIP3    H145757   3.894   4.570  14.184 -0.5447  0.6284  0.3743
 8114TIP3    H245758   3.876   4.514  14.324  0.5860 -0.9955 -0.0983
 8115TIP3   OH245759   0.573   2.748   4.808  0.5478 -0.2400  0.5711
 8115TIP3    H145760   0.482   2.779   4.803  0.6222  0.0927  1.1571
 8115TIP3    H245761   0.617   2.791   4.735  0.7665  1.4891  1.6574
 8116TIP3   OH245762   5.463   0.162   3.373  0.6657 -0.3999  1.1282
 8116TIP3    H145763   5.476   0.243   3.422 -0.5992 -0.2453  1.2415
 8116TIP3    H245764   5.455   0.094   3.439  1.8317 -0.6550  1.0305
 8117TIP3   OH245765   1.308   4.425  11.963 -0.6200 -0.0725 -0.4887
 8117TIP3    H145766   1.327   4.513  11.932 -1.1456 -0.0758 -0.8373
 8117TIP3    H245767   1.382   4.403  12.020  0.2760 -0.0025 -1.5900
 8118TIP3   OH245768   5.014   5.091  16.076  0.2941 -0.0516 -0.0540
 8118TIP3    H145769   4.924   5.094  16.107  0.4477 -1.1065  0.5244
 8118TIP3    H245770   5.017   5.155  16.005 -1.5022 -1.5989 -1.6276
 8119TIP3   OH245771   4.000   1.855  15.176  0.4087 -0.7325  0.7295
 8119TIP3    H145772   3.973   1.860  15.268  2.3997 -0.0210  1.3307
 8119TIP3    H245773   4.052   1.775  15.170 -0.6116 -1.3727 -0.0857
 8120TIP3   OH245774   5.987   5.699   6.377  0.1893  0.2054  0.0565
 8120TIP3    H145775   6.040   5.775   6.399  1.3536 -0.3179 -0.8435
 8120TIP3    H245776   5.897   5.727   6.396  0.6704  1.4509  0.6662
 8121TIP3   OH245777   1.107   2.173   0.855 -0.3453  0.1540 -0.3657
 8121TIP3    H145778   1.095   2.239   0.786 -0.3616 -0.5524 -1.0465
 8121TIP3    H245779   1.191   2.197   0.896  1.0464 -0.9669 -2.3973
 8122TIP3   OH245780   4.663   3.594   6.374  0.7509  0.4025 -0.3406
 8122TIP3    H145781   4.668   3.667   6.437  2.1094 -0.2200  0.3166
 8122TIP3    H245782   4.571   3.592   6.347 -0.0313  0.3407  2.0777
 8123TIP3   OH245783   5.922   5.023   6.168 -0.3240  0.5953 -0.8031
 8123TIP3    H145784   5.842   4.971   6.156 -0.0956 -0.6682  2.3849
 8123TIP3    H245785   5.993   4.966   6.137 -0.2653 -0.2898  0.8521
 8124TIP3   OH245786   3.735   4.350   4.008 -0.6432 -0.1580  0.4932
 8124TIP3    H145787   3.715   4.256   4.004 -0.6815 -0.1213 -1.2384
 8124TIP3    H245788   3.663   4.391   3.960  1.0669  0.3974 -1.8146
 8125TIP3   OH245789   1.819   1.921   2.862 -0.0270 -0.1289  0.1568
 8125TIP3    H145790   1.774   1.953   2.784 -0.2347  0.5459  0.5468
 8125TIP3    H245791   1.754   1.870   2.909 -0.0145 -0.2132  0.0823
 8126TIP3   OH245792   5.949   0.125  14.041  0.4867  0.0331  0.4983
 8126TIP3    H145793   5.955   0.132  13.945 -0.3220  0.5411  0.4739
 8126TIP3    H245794   5.896   0.201  14.067 -0.9097 -1.1085  1.1558
 8127TIP3   OH245795   0.325   3.344   4.392  0.3219  0.0880  0.1825
 8127TIP3    H145796   0.343   3.383   4.478 -0.4455  0.2844  0.2582
 8127TIP3    H245797   0.254   3.397   4.356 -2.6710 -2.7301  1.4052
 8128TIP3   OH245798   3.681   2.139   5.994 -0.3283  0.2347 -0.1701
 8128TIP3    H145799   3.733   2.060   5.979 -0.9375 -0.3313  0.6363
 8128TIP3    H245800   3.742   2.200   6.035 -0.1778 -0.2763  0.3803
 8129TIP3   OH245801   6.304   3.960  13.891 -0.0768  0.4766 -0.5117
 8129TIP3    H145802   6.314   4.020  13.965 -0.7888  0.0531 -0.0663
 8129TIP3    H245803   6.327   4.012  13.815  2.8640  0.3501  0.1649
 8130TIP3   OH245804   4.011   3.451  13.092 -0.1365  0.0755 -0.0643
 8130TIP3    H145805   4.027   3.494  13.176 -0.0638 -1.3851  0.7100
 8130TIP3    H245806   4.045   3.362  13.104 -0.7739 -0.3778 -1.3995
 8131TIP3   OH245807   4.512   2.315  14.255  0.1440  0.4783 -0.1154
 8131TIP3    H145808   4.543   2.238  14.302 -1.2538  0.4932  0.8553
 8131TIP3    H245809   4.584   2.378  14.263  1.6077 -0.9029 -1.5106
 8132TIP3   OH245810   4.518   1.522  11.192  0.4878  0.1085  0.1741
 8132TIP3    H145811   4.602   1.488  11.162  0.6269  1.8661 -1.6160
 8132TIP3    H245812   4.508   1.487  11.281  2.8957 -0.4644  0.2791
 8133TIP3   OH245813   0.309   0.736   2.568  0.4649  0.0176 -0.2021
 8133TIP3    H145814   0.222   0.766   2.543  0.2543  0.2004  0.7201
 8133TIP3    H245815   0.356   0.815   2.594  0.7141 -0.1502 -0.1281
 8134TIP3   OH245816   2.346   5.079   1.195  0.1597  0.1237 -0.2108
 8134TIP3    H145817   2.262   5.125   1.205  0.2838  0.4746 -0.7412
 8134TIP3    H245818   2.366   5.046   1.283 -0.4349  0.2082 -0.0366
 8135TIP3   OH245819   5.981   4.329  12.319 -0.6336 -0.4636 -0.3706
 8135TIP3    H145820   5.976   4.424  12.309  0.6594 -0.1157  1.7728
 8135TIP3    H245821   5.963   4.296  12.231  1.1366  1.8456 -1.7341
 8136TIP3   OH245822   3.933   2.528   1.322  0.3889 -0.3036  0.4696
 8136TIP3    H145823   3.850   2.480   1.315 -0.1836  0.7336 -0.1887
 8136TIP3    H245824   3.987   2.492   1.251 -0.4224  0.7132 -0.7006
 8137TIP3   OH245825   4.514   3.775   3.501 -0.6114  0.0975 -0.1413
 8137TIP3    H145826   4.488   3.845   3.440 -0.9323 -1.2606 -1.6354
 8137TIP3    H245827   4.570   3.718   3.449 -0.7419 -1.0094  0.8972
 8138TIP3   OH245828   4.086   0.762   4.966  0.0157 -0.0113  0.6108
 8138TIP3    H145829   3.997   0.733   4.988  0.2788  0.7744  3.0340
 8138TIP3    H245830   4.099   0.735   4.875 -3.1942  1.0385 -0.2944
 8139TIP3   OH245831   3.815   1.776  17.107  0.4288 -0.1269 -0.5429
 8139TIP3    H145832   3.773   1.860  17.085  0.7384  0.9958  2.5585
 8139TIP3    H245833   3.909   1.795  17.104  0.5604 -0.8431 -1.3201
 8140TIP3   OH245834   6.534   4.939  10.242 -0.3673  0.8928  0.4113
 8140TIP3    H145835   6.571   4.904  10.323 -0.4827 -0.1276  0.0287
 8140TIP3    H245836   6.509   5.029  10.265 -1.3008  0.3125  1.7858
 8141TIP3   OH245837   3.967   6.401  17.202 -0.5179  0.2911  0.5954
 8141TIP3    H145838   4.059   6.416  17.225 -0.6266  0.0036  1.2301
 8141TIP3    H245839   3.919   6.468  17.250 -0.6980  0.0381  0.7687
 8142TIP3   OH245840   0.130   3.163  16.757  0.2664  0.2679 -0.2068
 8142TIP3    H145841   0.163   3.232  16.815  1.0372 -0.0060 -0.2979
 8142TIP3    H245842   0.054   3.127  16.802 -1.3880  2.4930 -1.0538
 8143TIP3   OH245843   4.287   5.113   5.358  0.2073 -0.0683 -0.3084
 8143TIP3    H145844   4.307   5.111   5.264 -1.9111  0.5774 -0.8268
 8143TIP3    H245845   4.281   5.206   5.379 -1.0858 -0.2011  0.0203
 8144TIP3   OH245846   4.215   4.947   0.939  0.3544  0.1491  0.1149
 8144TIP3    H145847   4.147   4.967   1.003 -0.6852 -0.7387 -0.6693
 8144TIP3    H245848   4.277   4.892   0.985  0.4115  0.7453  0.7645
 8145TIP3   OH245849   5.111   3.809  15.177 -0.2083  0.3606  0.3797
 8145TIP3    H145850   5.073   3.722  15.162  1.7071 -0.2585 -1.3805
 8145TIP3    H245851   5.206   3.794  15.175  0.1577  2.3000  1.3857
 8146TIP3   OH245852   3.888   4.132  14.025  0.0615  0.0382  0.1306
 8146TIP3    H145853   3.880   4.038  14.043 -2.1008  0.2077  0.3561
 8146TIP3    H245854   3.940   4.166  14.097 -0.0305 -0.8323  0.6248
 8147TIP3   OH245855   5.235   6.520   5.614 -0.0640 -0.2509  0.7416
 8147TIP3    H145856   5.318   6.474   5.608 -0.5293 -0.9575 -0.9828
 8147TIP3    H245857   5.169   6.451   5.613 -0.7198  0.3671  0.0442
 8148TIP3   OH245858   6.009   4.013   4.760 -0.1310  0.0923  0.7645
 8148TIP3    H145859   6.071   4.068   4.712 -0.8852  0.2071 -0.0829
 8148TIP3    H245860   5.934   4.069   4.776 -0.0429 -0.0545  1.7754
 8149TIP3   OH245861   2.795   2.942   3.254 -0.4641 -0.4659  0.5985
 8149TIP3    H145862   2.710   2.913   3.222  0.0048  0.3934 -1.6584
 8149TIP3    H245863   2.786   3.036   3.266 -0.1490 -0.5388  1.4555
 8150TIP3   OH245864   1.461   5.609   2.377  0.1142  0.0047 -0.4131
 8150TIP3    H145865   1.493   5.617   2.466  0.0643  0.1192 -0.4050
 8150TIP3    H245866   1.374   5.649   2.379  0.8260  1.6340 -0.9167
 8151TIP3   OH245867   3.721   6.139  11.901 -0.7217  0.4121  0.2927
 8151TIP3    H145868   3.661   6.192  11.849 -0.6202 -1.7872 -2.2502
 8151TIP3    H245869   3.793   6.199  11.923 -0.9644  1.5529 -1.7838
 8152TIP3   OH245870   5.755   3.636  12.045 -0.2603  0.8106 -0.1194
 8152TIP3    H145871   5.792   3.611  11.960  0.7245  0.5590  0.3647
 8152TIP3    H245872   5.802   3.717  12.069 -0.6485  0.9719  0.1076
 8153TIP3   OH245873   5.885   3.120   4.243  0.1500  0.7119  0.1631
 8153TIP3    H145874   5.851   3.068   4.316 -1.6811 -0.3470 -1.3542
 8153TIP3    H245875   5.967   3.076   4.219 -0.9936 -1.0982 -0.6166
 8154TIP3   OH245876   5.582   1.882  12.729  0.1602  0.3763  0.0912
 8154TIP3    H145877   5.547   1.968  12.751  0.8372  0.4609  0.8973
 8154TIP3    H245878   5.676   1.889  12.748  0.9518  0.6215 -3.3520
 8155TIP3   OH245879   5.004   2.099   6.202  0.3047 -0.3530  0.2039
 8155TIP3    H145880   5.048   2.182   6.187  1.5518 -0.8345  0.9823
 8155TIP3    H245881   4.991   2.095   6.297  1.0015 -1.3797  0.2790
 8156TIP3   OH245882   6.536   1.875  15.460 -0.6208  0.4475 -0.7116
 8156TIP3    H145883   6.537   1.795  15.511  1.4799  0.3579 -0.7750
 8156TIP3    H245884   6.467   1.862  15.395  1.2965 -2.4842 -2.4190
 8157TIP3   OH245885   1.823   5.065   3.108  0.5597 -0.3516  0.1416
 8157TIP3    H145886   1.784   4.981   3.129  0.9796 -0.8163 -0.8845
 8157TIP3    H245887   1.917   5.051   3.116  0.7776 -0.6256 -2.1104
 8158TIP3   OH245888   6.229   4.804  15.212  0.0456  0.0257 -0.0208
 8158TIP3    H145889   6.247   4.807  15.118  0.1525  0.0315  0.0004
 8158TIP3    H245890   6.160   4.868  15.225 -0.1244 -0.1353 -0.1301
 8159TIP3   OH245891   4.102   5.881  16.191 -0.4811 -0.3602 -0.3851
 8159TIP3    H145892   4.086   5.962  16.240  2.3323  0.8451 -1.2502
 8159TIP3    H245893   4.134   5.912  16.106  0.1237 -2.4092 -0.9411
 8160TIP3   OH245894   4.211   3.014  14.989 -0.5969  0.2141  0.0644
 8160TIP3    H145895   4.273   3.002  14.917 -0.7395 -3.4014  0.3639
 8160TIP3    H245896   4.127   2.985  14.954 -0.8653 -0.6449  1.3355
 8161TIP3   OH245897   1.602   2.184   3.661 -0.3254 -0.6101  0.7797
 8161TIP3    H145898   1.678   2.222   3.705 -0.0015  1.6556 -1.4594
 8161TIP3    H245899   1.633   2.101   3.626  0.4034 -0.8164  1.8948
 8162TIP3   OH245900   5.767   2.837   1.501 -0.0108  0.1107  0.5643
 8162TIP3    H145901   5.791   2.825   1.593 -0.9857 -1.4834  0.6557
 8162TIP3    H245902   5.672   2.827   1.500 -0.1431  1.3161 -0.4596
 8163TIP3   OH245903   6.460   2.771  14.075  0.4717 -0.1634 -0.2328
 8163TIP3    H145904   6.513   2.700  14.110 -0.8623 -0.6524  0.8849
 8163TIP3    H245905   6.509   2.850  14.097  0.0582 -0.4977  2.2252
 8164TIP3   OH245906   5.827   0.023  14.766 -0.2234  0.0950 -0.0446
 8164TIP3    H145907   5.922   0.037  14.773 -0.1403 -0.2876 -0.3734
 8164TIP3    H245908   5.818  -0.068  14.740 -0.6084  0.6406 -1.9849
 8165TIP3   OH245909   6.706   0.419  15.446  0.3858 -0.4122 -0.7578
 8165TIP3    H145910   6.711   0.325  15.463  2.1004 -0.2463 -0.2138
 8165TIP3    H245911   6.700   0.460  15.533 -0.8626 -0.0130 -1.0024
 8166TIP3   OH245912   3.313   2.952   2.054 -0.3404  0.0559  0.4408
 8166TIP3    H145913   3.243   2.894   2.026  0.0990 -0.1575 -0.2299
 8166TIP3    H245914   3.394   2.905   2.033  0.0287 -0.3332  2.4870
 8167TIP3   OH245915   1.202   2.703  16.164  0.0345 -0.1389 -0.8777
 8167TIP3    H145916   1.116   2.661  16.173  0.0313  0.1117  0.4033
 8167TIP3    H245917   1.190   2.767  16.094 -0.9063  0.0905 -0.5220
 8168TIP3   OH245918   2.212   2.675   3.751  0.0518  0.2503 -0.3667
 8168TIP3    H145919   2.259   2.756   3.774 -0.9357  0.2385  1.9614
 8168TIP3    H245920   2.130   2.705   3.711 -0.1219  0.3858  0.0928
 8169TIP3   OH245921   6.319   1.917  13.621 -0.4555 -0.6181  0.1970
 8169TIP3    H145922   6.271   1.989  13.581  0.4277 -0.1950 -0.1389
 8169TIP3    H245923   6.409   1.951  13.630 -0.4407 -1.0039  1.7403
 8170TIP3   OH245924   4.603   0.843  16.066 -0.6645 -0.0248 -0.1405
 8170TIP3    H145925   4.692   0.813  16.047 -0.1452  1.0463  0.4759
 8170TIP3    H245926   4.546   0.777  16.027  0.4030 -0.8214 -0.3942
 8171TIP3   OH245927   2.021   6.730  12.630  0.7468 -0.3827 -0.0038
 8171TIP3    H145928   2.096   6.755  12.577 -0.3556  1.4585 -0.8040
 8171TIP3    H245929   2.019   6.635  12.627  2.3661 -0.4131 -0.8912
 8172TIP3   OH245930   2.506   5.441  16.431  0.1532  0.0282 -0.2952
 8172TIP3    H145931   2.550   5.523  16.452  1.4582 -1.0836  1.6996
 8172TIP3    H245932   2.559   5.402  16.362  3.3207 -1.8002  2.7782
 8173TIP3   OH245933   0.077   0.922   0.474 -0.0518  0.1699  0.3351
 8173TIP3    H145934   0.024   0.975   0.415  0.1716  1.2470  1.0807
 8173TIP3    H245935   0.044   0.942   0.561  0.8472  0.0137  0.7248
 8174TIP3   OH245936   5.951   3.464   1.066  0.3700  0.4683 -0.1876
 8174TIP3    H145937   5.895   3.510   1.129  0.6493  0.2890  0.1966
 8174TIP3    H245938   5.926   3.373   1.074  0.3162  0.4619 -0.4317
 8175TIP3   OH245939   1.223   0.465   5.383  0.2766  0.2311  0.2931
 8175TIP3    H145940   1.267   0.496   5.462  2.9279  0.4187 -1.1264
 8175TIP3    H245941   1.141   0.513   5.381  0.8723  1.4544  2.0739
 8176TIP3   OH245942   6.196   5.654  14.307  0.2896  0.3131  0.7119
 8176TIP3    H145943   6.287   5.640  14.281  0.4524  1.0070  0.8899
 8176TIP3    H245944   6.197   5.650  14.402  0.1652  0.4898  0.7216
 8177TIP3   OH245945   0.109   0.198   1.849 -0.0755  0.0077 -0.1823
 8177TIP3    H145946   0.036   0.188   1.787 -0.6597  1.0265  0.3284
 8177TIP3    H245947   0.099   0.123   1.908  0.1690 -0.6719 -0.9657
 8178TIP3   OH245948   5.937   3.176  12.673 -0.3553  0.4563 -0.2486
 8178TIP3    H145949   5.997   3.154  12.602 -1.2482  2.2460 -1.6067
 8178TIP3    H245950   5.934   3.096  12.727  1.2412 -0.5331 -1.5350
 8179TIP3   OH245951   1.394   5.792   4.632 -0.0369 -0.4705  0.3142
 8179TIP3    H145952   1.341   5.810   4.709  1.1600  3.3689  0.4226
 8179TIP3    H245953   1.484   5.807   4.660  0.4292  1.0678 -1.7597
 8180TIP3   OH245954   3.742   1.054   1.320  0.0496  0.0402  0.3635
 8180TIP3    H145955   3.816   0.993   1.324 -0.3494 -0.4456  0.3260
 8180TIP3    H245956   3.703   1.051   1.407  0.3023  0.5884  0.5008
 8181TIP3   OH245957   6.729   3.231  14.058 -0.2411  0.3802  0.2480
 8181TIP3    H145958   6.699   3.151  14.101 -1.4043  0.2025 -0.8143
 8181TIP3    H245959   6.715   3.300  14.123  0.5529 -0.2235  1.0878
 8182TIP3   OH245960   4.169   5.711  10.774  0.3897  0.4296 -0.0760
 8182TIP3    H145961   4.101   5.778  10.768  0.9845  0.9059 -2.2215
 8182TIP3    H245962   4.231   5.746  10.839 -0.0786  1.2203 -0.0400
 8183TIP3   OH245963   5.639   3.189   2.934 -0.2732  0.1422  0.1925
 8183TIP3    H145964   5.725   3.162   2.965 -0.1852 -1.0377 -0.9992
 8183TIP3    H245965   5.582   3.113   2.950 -0.5544  0.0571 -1.1105
 8184TIP3   OH245966   1.091   3.341  13.216 -0.1909 -0.0216  0.1467
 8184TIP3    H145967   1.158   3.279  13.247  0.6117  1.3269  1.1930
 8184TIP3    H245968   1.033   3.287  13.162  0.9597 -1.5140  0.3170
 8185TIP3   OH245969   5.022   6.402  15.778 -0.2449  0.1075 -0.4913
 8185TIP3    H145970   5.104   6.369  15.814 -0.0701  1.4110  0.3792
 8185TIP3    H245971   4.958   6.389  15.848 -0.1301  1.7108 -0.0495
 8186TIP3   OH245972   2.742   6.617   2.074 -0.7936 -0.7141 -0.3600
 8186TIP3    H145973   2.698   6.580   2.151 -0.1560 -1.1041 -0.1703
 8186TIP3    H245974   2.672   6.659   2.024 -1.0638  0.4505  0.9468
 8187TIP3   OH245975   3.969   6.243   2.855 -0.5643 -0.0587  0.4588
 8187TIP3    H145976   4.048   6.241   2.800  0.2300  0.6473  1.5286
 8187TIP3    H245977   3.930   6.329   2.838  0.1173  0.4871  1.5526
 8188TIP3   OH245978   6.478   1.316   5.716 -0.0339  0.2063 -0.3275
 8188TIP3    H145979   6.558   1.305   5.664  0.1549  2.8728 -0.7417
 8188TIP3    H245980   6.501   1.380   5.783 -1.5198  0.1692  0.2563
 8189TIP3   OH245981   4.765   1.394  11.144  0.4846  0.9071  0.0907
 8189TIP3    H145982   4.852   1.410  11.109  0.9303 -1.1068  0.1167
 8189TIP3    H245983   4.745   1.304  11.117 -1.0475  0.8875  1.1615
 8190TIP3   OH245984   0.261   6.700  12.863 -0.1064 -0.4967 -0.0901
 8190TIP3    H145985   0.201   6.686  12.790  1.2100 -0.5002 -1.2118
 8190TIP3    H245986   0.347   6.705  12.822  0.5842  0.2671  1.3946
 8191TIP3   OH245987   6.623   0.979   5.575 -0.1364 -0.2736  0.1679
 8191TIP3    H145988   6.530   0.959   5.574 -0.4229  0.4808  2.5781
 8191TIP3    H245989   6.633   1.054   5.517 -1.0728 -0.2694  0.0113
 8192TIP3   OH245990   5.669   5.481  13.806 -0.4550  0.3623 -0.3113
 8192TIP3    H145991   5.633   5.395  13.784 -0.1860  0.1331  0.1220
 8192TIP3    H245992   5.762   5.475  13.785 -0.1997  0.1517  0.7804
 8193TIP3   OH245993   4.779   4.748   5.632 -0.1355  0.2855  0.5309
 8193TIP3    H145994   4.843   4.726   5.565 -1.1189 -0.2762 -0.2689
 8193TIP3    H245995   4.789   4.842   5.646  0.0796  0.4130 -0.4157
 8194TIP3   OH245996   0.565   2.356   3.455 -0.6244  0.6853 -0.4237
 8194TIP3    H145997   0.573   2.339   3.549  0.4482  1.1632 -0.4157
 8194TIP3    H245998   0.567   2.451   3.448 -0.1795  0.6342 -0.9756
 8195TIP3   OH245999   4.420   4.738   0.706  0.7883 -0.4525 -0.1189
 8195TIP3    H146000   4.343   4.792   0.689  1.0008 -0.3601 -0.7948
 8195TIP3    H246001   4.432   4.686   0.627  1.3030 -0.6053  0.0528
 8196TIP3   OH246002   0.602   2.685   2.976 -0.8198  0.0680  0.0593
 8196TIP3    H146003   0.607   2.777   2.948 -1.3752 -0.2820 -1.2838
 8196TIP3    H246004   0.509   2.665   2.979 -0.6928 -0.7548 -0.7878
 8197TIP3   OH246005   0.355   5.408   1.451  0.0327 -0.8591 -0.1228
 8197TIP3    H146006   0.289   5.347   1.419 -0.5876  0.0874 -0.7204
 8197TIP3    H246007   0.322   5.494   1.425  0.8778 -0.2691  0.6955
 8198TIP3   OH246008   6.333   6.121  17.220 -0.5986  0.2274  0.6743
 8198TIP3    H146009   6.329   6.046  17.160 -2.0913 -0.0066  1.0237
 8198TIP3    H246010   6.419   6.160  17.205  0.0078 -1.2602  0.1224
 8199TIP3   OH246011   5.545   6.323  10.355 -0.3214 -0.2661 -0.2333
 8199TIP3    H146012   5.473   6.366  10.309 -1.6346 -1.9722  0.1251
 8199TIP3    H246013   5.509   6.304  10.442  0.7924 -0.5742  0.1733
 8200TIP3   OH246014   4.561   6.257  16.358 -0.1845 -0.0428  0.3926
 8200TIP3    H146015   4.590   6.319  16.291 -0.9315 -0.7971 -0.6604
 8200TIP3    H246016   4.492   6.303  16.406 -0.8590 -0.0944 -0.4955
 8201TIP3   OH246017   3.082   0.030   1.603  0.0444  0.2055 -0.7046
 8201TIP3    H146018   3.172   0.046   1.574  0.1982 -0.7825 -0.7790
 8201TIP3    H246019   3.061   0.107   1.656  1.7528 -0.5551  1.2076
 8202TIP3   OH246020   6.104   1.292   3.486  0.0866 -0.4048 -0.8998
 8202TIP3    H146021   6.194   1.291   3.517  0.0498 -1.2414 -0.7819
 8202TIP3    H246022   6.096   1.212   3.434 -0.4363 -0.0601 -1.3616
 8203TIP3   OH246023   5.340   1.871   1.672  0.0340 -0.4380 -0.0986
 8203TIP3    H146024   5.348   1.841   1.763 -1.1133 -1.6164 -0.3624
 8203TIP3    H246025   5.295   1.956   1.679  1.8150  0.5095  0.5427
 8204TIP3   OH246026   0.328   2.890  12.823  0.0221 -0.1163 -0.1385
 8204TIP3    H146027   0.388   2.965  12.824  0.6116 -0.4440 -2.7174
 8204TIP3    H246028   0.240   2.929  12.829  0.3869  0.5892  0.7513
 8205TIP3   OH246029   0.645   2.215   2.046  0.1548 -0.3138 -0.2175
 8205TIP3    H146030   0.590   2.138   2.027 -0.6541  0.2736 -0.3197
 8205TIP3    H246031   0.594   2.289   2.012 -0.4756  0.6127  2.5091
 8206TIP3   OH246032   2.034   1.403  14.715  0.4868  0.1026  0.4698
 8206TIP3    H146033   1.980   1.354  14.777  0.5543 -0.9506 -0.2616
 8206TIP3    H246034   2.057   1.484  14.760 -1.9962  0.7776  0.7111
 8207TIP3   OH246035   1.647   5.967   3.133 -0.3657  0.2224 -0.4946
 8207TIP3    H146036   1.601   6.043   3.098 -0.8141 -0.4159 -1.3210
 8207TIP3    H246037   1.620   5.963   3.225 -1.0258  0.5510 -0.6678
 8208TIP3   OH246038   6.477   4.097  11.660 -0.4072 -0.3027 -0.2605
 8208TIP3    H146039   6.462   4.034  11.730  0.6484  0.2255  0.4700
 8208TIP3    H246040   6.424   4.173  11.685 -0.1349 -0.1642 -0.0992
 8209TIP3   OH246041   3.380   6.341   0.598  0.1977 -0.4382  0.1539
 8209TIP3    H146042   3.358   6.385   0.516  0.8778  0.0062  0.2028
 8209TIP3    H246043   3.385   6.411   0.662  0.9766 -0.6166  0.2984
 8210TIP3   OH246044   0.631   5.027  11.744 -0.3715 -0.2868 -0.3839
 8210TIP3    H146045   0.711   5.039  11.693  0.0168  0.7861  0.4259
 8210TIP3    H246046   0.641   4.941  11.785  0.3872 -0.1404 -0.2598
 8211TIP3   OH246047   0.645   1.252   3.420 -0.1327 -0.0930  0.0274
 8211TIP3    H146048   0.638   1.308   3.343 -3.0918 -1.1017 -0.5902
 8211TIP3    H246049   0.605   1.169   3.393 -0.3433 -0.8320  2.3324
 8212TIP3   OH246050   2.755   6.186   5.755  0.5035  0.7025 -0.3864
 8212TIP3    H146051   2.691   6.237   5.705  0.7372  0.4924 -0.9054
 8212TIP3    H246052   2.740   6.095   5.728 -0.1987  0.4220  0.8478
 8213TIP3   OH246053   5.178   5.278   5.377  0.5033  0.3612 -0.5092
 8213TIP3    H146054   5.236   5.226   5.321  0.4552  0.1857 -0.3988
 8213TIP3    H246055   5.146   5.215   5.442 -0.0801  0.3817 -0.7711
 8214TIP3   OH246056   2.785   3.699   4.668  0.0508 -0.4012  0.0626
 8214TIP3    H146057   2.707   3.747   4.641  1.9226  3.7192  1.2337
 8214TIP3    H246058   2.759   3.655   4.749 -1.0021  1.2454  0.6617
 8215TIP3   OH246059   0.407   1.272  16.491 -0.2119 -0.3995 -0.4428
 8215TIP3    H146060   0.426   1.365  16.502 -1.1707 -0.1781 -0.5306
 8215TIP3    H246061   0.481   1.237  16.441 -0.3005  0.5211 -1.2310
 8216TIP3   OH246062   4.783   5.179  16.724  0.6023  0.2190  0.2678
 8216TIP3    H146063   4.707   5.146  16.771 -1.1247  1.7199 -1.3418
 8216TIP3    H246064   4.853   5.182  16.790 -0.9854 -0.2418  2.0379
 8217TIP3   OH246065   6.758   4.363  15.833  0.5686 -0.0592 -0.4616
 8217TIP3    H146066   6.715   4.358  15.747 -0.7117  0.0383  0.1433
 8217TIP3    H246067   6.737   4.451  15.864  2.3264  0.4817 -0.6753
 8218TIP3   OH246068   2.067   6.131  11.577  0.1751  0.0545 -0.6580
 8218TIP3    H146069   2.104   6.197  11.635  2.1069 -0.1774 -1.5322
 8218TIP3    H246070   2.010   6.180  11.518  2.0214  1.1104 -1.6634
 8219TIP3   OH246071   5.785   3.346  16.546  0.0293  0.4107 -0.1534
 8219TIP3    H146072   5.872   3.350  16.585 -0.2231  1.7401  0.3362
 8219TIP3    H246073   5.793   3.391  16.462 -0.2205  0.7633  0.0040
 8220TIP3   OH246074   4.288   1.195   4.493  0.9854 -0.2719 -0.2098
 8220TIP3    H146075   4.236   1.162   4.420  0.8460 -0.9405  0.1793
 8220TIP3    H246076   4.230   1.189   4.569  1.0125  0.7458 -0.0947
 8221TIP3   OH246077   3.255   0.925  16.685 -0.3199 -0.0340  0.0341
 8221TIP3    H146078   3.236   0.953  16.596 -1.4764  0.2957  0.3756
 8221TIP3    H246079   3.326   0.983  16.714 -0.1101  0.0196 -0.5801
 8222TIP3   OH246080   2.631   2.273   3.351 -0.0822 -0.0007  0.1612
 8222TIP3    H146081   2.658   2.195   3.399 -1.2629  0.7532  2.1806
 8222TIP3    H246082   2.570   2.241   3.285 -1.1693 -0.7552  1.4742
 8223TIP3   OH246083   4.778   4.587  13.018  0.1021 -0.3306  0.3964
 8223TIP3    H146084   4.801   4.498  12.988 -0.4241 -1.3404  2.7921
 8223TIP3    H246085   4.685   4.582  13.039  0.7463 -0.3208  3.8533
 8224TIP3   OH246086   4.576   5.433   6.290  0.2206  0.0402 -0.7391
 8224TIP3    H146087   4.559   5.424   6.383 -0.0468 -1.1127 -0.8895
 8224TIP3    H246088   4.624   5.516   6.282  0.2105  0.1637  0.4040
 8225TIP3   OH246089   2.428   5.481  15.460 -0.1032  0.5281 -0.1989
 8225TIP3    H146090   2.362   5.422  15.497  0.7402 -0.5512 -0.3731
 8225TIP3    H246091   2.512   5.439  15.482  0.4735  0.9893 -1.4711
 8226TIP3   OH246092   4.614   5.314  14.150  0.4644  0.1573 -0.6216
 8226TIP3    H146093   4.611   5.376  14.077  1.6048 -0.0692 -0.8842
 8226TIP3    H246094   4.678   5.351  14.211 -0.6063  0.4309  0.3586
 8227TIP3   OH246095   6.443   5.531  12.722 -0.2662  0.8523  0.5486
 8227TIP3    H146096   6.446   5.483  12.805 -0.9717 -2.1722 -1.0404
 8227TIP3    H246097   6.369   5.590  12.731 -1.7064 -0.9756  1.3796
 8228TIP3   OH246098   0.981   5.043  14.818  0.0744  0.1646 -0.0370
 8228TIP3    H146099   0.987   5.096  14.897 -2.8406  0.5361  0.0525
 8228TIP3    H246100   0.989   4.952  14.849 -1.0191  0.3086  0.7109
 8229TIP3   OH246101   3.224   6.791   3.454 -0.5639 -0.3890 -0.4991
 8229TIP3    H146102   3.201   6.853   3.385  0.5962  0.1203 -0.4476
 8229TIP3    H246103   3.317   6.803   3.468 -0.4278 -1.7297 -0.0556
 8230TIP3   OH246104   1.755   6.342   3.853  0.0167  0.0906  0.4024
 8230TIP3    H146105   1.769   6.437   3.850  1.4648 -0.1286 -1.8762
 8230TIP3    H246106   1.841   6.304   3.835 -0.6752 -1.6584  0.5912
 8231TIP3   OH246107   4.740   6.305   4.299  0.1559  0.0145  0.2008
 8231TIP3    H146108   4.810   6.351   4.253 -1.3236 -0.4576 -2.7658
 8231TIP3    H246109   4.759   6.213   4.287 -1.7724 -0.1659 -2.2093
 8232TIP3   OH246110   6.114   5.417   0.860 -0.3985  0.2334  0.7147
 8232TIP3    H146111   6.128   5.381   0.773  1.3647  2.9756 -0.2799
 8232TIP3    H246112   6.059   5.494   0.846  2.1883  2.3970  1.4462
 8233TIP3   OH246113   3.208   3.832  13.661 -0.3097 -0.0958  0.4107
 8233TIP3    H146114   3.259   3.912  13.653 -1.1196  0.5725  1.6389
 8233TIP3    H246115   3.247   3.772  13.597  0.1450  1.3430 -0.7062
 8234TIP3   OH246116   6.296   0.334   0.040  0.0466 -0.7643  0.2184
 8234TIP3    H146117   6.387   0.348   0.015 -0.0968  0.9968  0.5595
 8234TIP3    H246118   6.298   0.328   0.135 -0.4258  1.8506  0.4628
 8235TIP3   OH246119   0.930   3.967   2.611  0.5147  0.1030 -0.3214
 8235TIP3    H146120   0.902   3.968   2.520  0.6660 -0.1214 -0.3699
 8235TIP3    H246121   0.981   4.047   2.621  1.1441 -0.2553 -0.6382
 8236TIP3   OH246122   5.852   6.334   5.270  0.2876 -0.4461 -0.3965
 8236TIP3    H146123   5.879   6.286   5.348  2.0198 -1.4828 -1.5653
 8236TIP3    H246124   5.787   6.396   5.301 -0.2044 -1.8687  1.6018
 8237TIP3   OH246125   1.688   0.441   5.887  1.0636  0.1621  0.0019
 8237TIP3    H146126   1.629   0.515   5.873 -0.0566 -0.7849 -0.4256
 8237TIP3    H246127   1.719   0.452   5.977  1.7411  1.7030 -0.3817
 8238TIP3   OH246128   3.953   4.660  13.019  0.5346 -0.3397 -0.4937
 8238TIP3    H146129   3.863   4.684  12.999  0.5267 -1.0690 -1.3863
 8238TIP3    H246130   3.994   4.647  12.933  1.0215 -1.6711 -0.0841
 8239TIP3   OH246131   3.985   1.243  12.941  0.1060 -0.2882  0.8466
 8239TIP3    H146132   3.909   1.258  12.884  0.9113 -0.8057 -0.3934
 8239TIP3    H246133   3.981   1.314  13.005  0.4894  1.7287 -1.2606
 8240TIP3   OH246134   5.951   3.589   5.740 -0.0311 -0.3155  0.0569
 8240TIP3    H146135   5.961   3.613   5.833  0.1497 -0.8603  0.1802
 8240TIP3    H246136   6.030   3.621   5.698 -0.7703  1.2569 -0.1909
 8241TIP3   OH246137   6.437   6.509   1.628 -0.1664 -0.1441  0.0015
 8241TIP3    H146138   6.448   6.445   1.558  1.7257  1.2277 -1.0422
 8241TIP3    H246139   6.352   6.550   1.610  1.5681  2.4585 -3.6421
 8242TIP3   OH246140   2.217   5.529  10.623 -0.2962  0.0756  0.5045
 8242TIP3    H146141   2.231   5.601  10.685  0.3040  0.6653 -0.2930
 8242TIP3    H246142   2.301   5.518  10.579 -1.4267  1.7546 -2.3761
 8243TIP3   OH246143   4.279   5.304   4.176  0.3745  0.5221 -0.4455
 8243TIP3    H146144   4.261   5.325   4.084  0.8470  0.1291 -0.6363
 8243TIP3    H246145   4.330   5.223   4.172  2.1749  1.5740  0.0412
 8244TIP3   OH246146   0.259   3.216  12.031 -0.0647 -0.4836  0.7772
 8244TIP3    H146147   0.342   3.222  12.079 -0.0012 -0.4376  0.6633
 8244TIP3    H246148   0.268   3.137  11.977 -0.2076 -0.6353  0.9761
 8245TIP3   OH246149   1.630   1.481   5.362 -0.2318  0.1299 -0.1400
 8245TIP3    H146150   1.721   1.507   5.376 -0.1072  0.0686 -0.7762
 8245TIP3    H246151   1.635   1.392   5.327 -0.6020 -0.3312  0.9333
 8246TIP3   OH246152   6.312   3.591   1.482 -0.1230  0.5243 -0.0110
 8246TIP3    H146153   6.391   3.641   1.464 -0.3309  0.3427 -1.5938
 8246TIP3    H246154   6.344   3.506   1.512  0.2786  0.6260 -0.1440
 8247TIP3   OH246155   2.335   3.973   4.248 -0.2452  0.1137 -0.0821
 8247TIP3    H146156   2.366   4.064   4.247 -1.0629  0.4041  0.1604
 8247TIP3    H246157   2.262   3.974   4.309  1.1283 -1.1723  1.7112
 8248TIP3   OH246158   2.379   3.864   6.192 -0.0847  0.3553  0.0190
 8248TIP3    H146159   2.294   3.819   6.192 -0.4219  0.9568  0.9798
 8248TIP3    H246160   2.437   3.804   6.238 -0.1281  0.1860 -0.1462
 8249TIP3   OH246161   4.001   2.458  12.483 -0.0291 -0.0548  0.5641
 8249TIP3    H146162   4.018   2.548  12.458 -0.7433  0.3474  1.4813
 8249TIP3    H246163   4.045   2.406  12.416  0.5681  0.9649  0.1428
 8250TIP3   OH246164   6.314   5.601   2.097 -0.2392 -0.6182 -0.1040
 8250TIP3    H146165   6.224   5.584   2.070 -0.3259  0.9293 -0.9218
 8250TIP3    H246166   6.307   5.680   2.150  0.8034  0.4527 -1.4922
 8251TIP3   OH246167   4.615   1.598  10.811  0.3210 -0.6740  0.4976
 8251TIP3    H146168   4.564   1.679  10.804 -0.7373 -1.2666  1.1998
 8251TIP3    H246169   4.695   1.625  10.857 -0.6668 -0.2776  2.0668
 8252TIP3   OH246170   2.578   5.665  10.340  0.2044 -0.0799 -0.4194
 8252TIP3    H146171   2.557   5.758  10.343  1.2683  0.1607  0.1400
 8252TIP3    H246172   2.525   5.630  10.269 -1.0365  0.7365  0.0833
 8253TIP3   OH246173   2.715   0.207   2.052  0.1075 -0.2326  0.2836
 8253TIP3    H146174   2.637   0.255   2.026 -0.6664 -1.8948 -0.6703
 8253TIP3    H246175   2.738   0.243   2.137 -1.1045  0.9855  0.1380
 8254TIP3   OH246176   4.428   4.488  13.690 -0.2169  0.1103  0.2143
 8254TIP3    H146177   4.339   4.500  13.657 -0.1977  1.9808  0.7472
 8254TIP3    H246178   4.481   4.473  13.611 -0.9423 -0.6714 -0.1312
 8255TIP3   OH246179   3.223   6.459  13.526 -0.5455  0.4698  0.3444
 8255TIP3    H146180   3.297   6.483  13.471 -0.1038 -1.3721  0.0893
 8255TIP3    H246181   3.261   6.448  13.613 -0.3312 -1.2442  0.0629
 8256TIP3   OH246182   3.805   1.772   4.529 -0.1307  0.4620  0.0598
 8256TIP3    H146183   3.853   1.850   4.501  1.2547 -0.7874 -1.2477
 8256TIP3    H246184   3.822   1.707   4.460 -0.4400 -1.3032  1.5671
 8257TIP3   OH246185   5.162   1.051   2.661  0.2481 -0.4365 -0.2636
 8257TIP3    H146186   5.176   1.137   2.623  1.6998 -1.8832 -3.3994
 8257TIP3    H246187   5.217   1.050   2.739  1.1216  1.0795 -0.8221
 8258TIP3   OH246188   0.512   2.161  15.905  0.4524 -0.3907  0.3435
 8258TIP3    H146189   0.501   2.098  15.976 -2.9152  0.9150  1.2029
 8258TIP3    H246190   0.425   2.168  15.866  1.3687  1.5962 -1.5623
 8259TIP3   OH246191   1.760   5.997  15.986  0.5761  0.0530  0.1383
 8259TIP3    H146192   1.710   5.918  15.965  1.1183 -1.2421  3.1478
 8259TIP3    H246193   1.694   6.063  16.007  0.1233 -0.5004  0.4752
 8260TIP3   OH246194   3.431   6.446   2.597 -0.9128 -0.1844 -0.3529
 8260TIP3    H146195   3.509   6.468   2.649  0.1233 -1.2147 -1.4099
 8260TIP3    H246196   3.438   6.501   2.519 -1.1039 -0.4487 -0.5592
 8261TIP3   OH246197   4.968   4.598   2.893 -0.1466  0.6142  0.1572
 8261TIP3    H146198   4.971   4.503   2.895  1.3171  0.6357  1.6077
 8261TIP3    H246199   4.884   4.621   2.934 -0.0298 -0.0535  0.7821
 8262TIP3   OH246200   3.961   0.717  12.312  0.1956  0.4265  1.1937
 8262TIP3    H146201   4.047   0.754  12.296  0.0875  0.3672  0.4026
 8262TIP3    H246202   3.971   0.624  12.292 -0.6504  0.8234 -1.5992
 8263TIP3   OH246203   0.338   5.913   4.326  0.1718  0.3924  0.0989
 8263TIP3    H146204   0.253   5.892   4.365  0.4439  2.6462  2.1549
 8263TIP3    H246205   0.400   5.862   4.377  0.1966  0.0253 -0.2945
 8264TIP3   OH246206   2.010   0.904  13.800  0.3675 -0.7436  0.3036
 8264TIP3    H146207   2.005   0.916  13.895 -0.3912  1.9967 -0.0179
 8264TIP3    H246208   1.931   0.855  13.778 -0.9558  1.0402  0.8288
 8265TIP3   OH246209   3.533   4.528  13.515 -0.0232  0.2534 -0.0146
 8265TIP3    H146210   3.486   4.451  13.547 -0.3023  0.7896  0.9252
 8265TIP3    H246211   3.512   4.532  13.422 -2.4191  0.8474  0.4889
 8266TIP3   OH246212   2.710   5.049   2.100  0.1866 -0.1459 -0.2876
 8266TIP3    H146213   2.735   5.141   2.089  0.1929 -0.3010 -1.8612
 8266TIP3    H246214   2.672   5.025   2.015  1.9649 -2.1385 -0.6004
 8267TIP3   OH246215   1.883   4.509  17.013  0.0253 -0.2855 -0.3291
 8267TIP3    H146216   1.909   4.600  17.030 -0.2197  0.0240 -1.5137
 8267TIP3    H246217   1.796   4.502  17.054 -0.0375  0.0700 -0.3932
 8268TIP3   OH246218   4.350   5.166  14.651  0.3128 -0.1078  0.1890
 8268TIP3    H146219   4.330   5.255  14.623 -0.1968 -0.3020 -0.0827
 8268TIP3    H246220   4.345   5.114  14.571 -0.4101 -0.5456  0.5038
 8269TIP3   OH246221   4.393   3.941   6.398  0.1373  1.0415 -0.7771
 8269TIP3    H146222   4.488   3.942   6.388  0.6225  0.5265  2.5868
 8269TIP3    H246223   4.375   4.014   6.458 -1.3961  0.2796 -0.2587
 8270TIP3   OH246224   1.228   4.330  13.616 -0.1217  0.6889 -0.4232
 8270TIP3    H146225   1.249   4.236  13.616 -1.3927  0.3686  0.9051
 8270TIP3    H246226   1.254   4.361  13.703  1.2398  1.8415 -1.1895
 8271TIP3   OH246227   4.944   2.722  14.113 -0.1923 -0.3787  0.5979
 8271TIP3    H146228   5.025   2.770  14.131 -0.6405  0.7976 -0.3803
 8271TIP3    H246229   4.955   2.688  14.024 -0.2531 -1.3526  0.9452
 8272TIP3   OH246230   1.412   4.097  11.241 -0.2595  0.1878  0.6675
 8272TIP3    H146231   1.448   4.012  11.268 -0.3633  0.5040  1.8516
 8272TIP3    H246232   1.317   4.081  11.236 -0.3272  0.3278  1.3260
 8273TIP3   OH246233   5.573   5.039   0.392  0.0148  0.0355  0.6832
 8273TIP3    H146234   5.645   4.980   0.368 -0.5670 -0.7217  0.7558
 8273TIP3    H246235   5.495   4.984   0.388 -0.5194  0.7628  0.9445
 8274TIP3   OH246236   0.087   3.212   2.864 -0.3102 -0.3176  0.1560
 8274TIP3    H146237   0.033   3.134   2.855 -1.1745  0.3506 -0.6307
 8274TIP3    H246238   0.133   3.220   2.781  1.5484 -1.2210  1.0149
 8275TIP3   OH246239   1.803   0.258   2.539  0.7909 -0.9243 -0.4363
 8275TIP3    H146240   1.865   0.185   2.547  2.5041  0.3148 -1.6946
 8275TIP3    H246241   1.787   0.265   2.444  1.1065  0.6685 -0.3952
 8276TIP3   OH246242   5.354   2.780   4.437  0.5304 -0.1529 -0.5117
 8276TIP3    H146243   5.326   2.745   4.352  1.4554  0.7605 -1.2182
 8276TIP3    H246244   5.275   2.820   4.473  0.1665 -0.3890 -1.0330
 8277TIP3   OH246245   3.999   4.351   4.098 -0.1891 -0.1374 -0.0943
 8277TIP3    H146246   3.907   4.367   4.078 -0.7341  0.9700  2.7840
 8277TIP3    H246247   3.999   4.316   4.187  2.2157  0.6218  0.2966
 8278TIP3   OH246248   6.771   2.774  13.975 -0.4512  0.4620  0.5319
 8278TIP3    H146249   6.813   2.839  13.919 -3.1827  2.6884  0.8844
 8278TIP3    H246250   6.756   2.820  14.058 -3.6654 -0.0467  0.3540
 8279TIP3   OH246251   1.870   1.547   5.487  0.8080 -0.5466  0.2026
 8279TIP3    H146252   1.895   1.520   5.575 -0.0197  0.6873  0.8434
 8279TIP3    H246253   1.945   1.597   5.455  1.8759 -2.5351 -0.5503
 8280TIP3   OH246254   3.700   1.117  15.433  0.1922 -0.3415 -0.2579
 8280TIP3    H146255   3.754   1.177  15.383  0.5480  0.6041  1.2133
 8280TIP3    H246256   3.750   1.099  15.513 -2.4570  2.3333  2.2682
 8281TIP3   OH246257   3.516   3.449   0.161  0.5371  0.1913 -0.2817
 8281TIP3    H146258   3.584   3.382   0.159 -1.5786 -2.0917 -1.9483
 8281TIP3    H246259   3.560   3.528   0.130  2.6900 -0.9030 -0.1808
 8282TIP3   OH246260   1.479   5.448   0.290 -0.0489 -0.2645  0.8459
 8282TIP3    H146261   1.444   5.412   0.371  0.4350 -0.2937  1.0455
 8282TIP3    H246262   1.406   5.495   0.251 -0.1114  0.2750  1.6048
 8283TIP3   OH246263   3.076   2.826  12.926 -0.0832  0.5794 -0.0866
 8283TIP3    H146264   3.040   2.793  12.844 -0.8505 -0.1276  0.5081
 8283TIP3    H246265   3.150   2.769  12.945 -1.1761 -0.6246  0.7469
 8284TIP3   OH246266   0.078   2.210   4.659  0.2474  0.4162  0.2279
 8284TIP3    H146267   0.046   2.264   4.731  1.6224  0.8606  0.5364
 8284TIP3    H246268   0.167   2.184   4.686  0.2961 -0.4815 -0.7294
 8285TIP3   OH246269   4.493   0.713  14.934 -0.2374 -0.4022  0.1658
 8285TIP3    H146270   4.470   0.714  14.841 -2.5587 -0.7931  0.6651
 8285TIP3    H246271   4.571   0.658  14.939  1.1152  1.1797 -1.7292
 8286TIP3   OH246272   2.002   2.368  14.432 -0.1956  0.0045  0.6448
 8286TIP3    H146273   1.952   2.371  14.350 -0.0676  0.6116  0.5784
 8286TIP3    H246274   2.061   2.444  14.426  0.2658 -0.3176  1.0131
 8287TIP3   OH246275   1.148   5.850  16.821 -0.3901 -0.2993  0.7895
 8287TIP3    H146276   1.118   5.940  16.836 -1.6695 -0.9689  2.6047
 8287TIP3    H246277   1.113   5.828  16.734  2.5960  1.9084 -1.1595
 8288TIP3   OH246278   1.427   2.757  12.515  0.0349 -0.0686 -0.3182
 8288TIP3    H146279   1.492   2.704  12.469  0.3102 -0.7055  0.7682
 8288TIP3    H246280   1.424   2.720  12.603  0.7343  2.1573  0.7104
 8289TIP3   OH246281   4.142   5.068   1.558 -0.5810 -0.0199  0.1879
 8289TIP3    H146282   4.197   5.039   1.630  0.3913  1.1204 -0.0586
 8289TIP3    H246283   4.054   5.042   1.583  0.1437 -3.0971  0.0021
 8290TIP3   OH246284   3.212   4.898   1.604  0.5342  0.1959  0.1321
 8290TIP3    H146285   3.195   4.808   1.634  0.5181 -0.2295 -1.0974
 8290TIP3    H246286   3.276   4.888   1.534  0.8213  1.1886  0.2404
 8291TIP3   OH246287   0.985   6.507  13.076  0.1720  0.2374 -0.2064
 8291TIP3    H146288   1.064   6.453  13.076 -0.6052 -0.9432 -0.5804
 8291TIP3    H246289   0.922   6.458  13.129 -0.4028  1.0228 -0.1373
 8292TIP3   OH246290   1.630   2.080  13.814  0.0690  0.6522  0.1047
 8292TIP3    H146291   1.623   2.067  13.909  0.9202 -0.3411  0.0516
 8292TIP3    H246292   1.539   2.077  13.783 -0.1501 -0.1531  0.7592
 8293TIP3   OH246293   6.558   6.169  13.738  0.3241 -0.1405  0.2915
 8293TIP3    H146294   6.462   6.171  13.738  0.2720 -1.0690 -1.3951
 8293TIP3    H246295   6.584   6.249  13.693  0.3811  0.2857  1.0528
 8294TIP3   OH246296   2.227   4.264  14.617 -0.0802 -0.3615  0.1699
 8294TIP3    H146297   2.256   4.352  14.639  1.2267 -1.1892  1.9967
 8294TIP3    H246298   2.240   4.258  14.522 -0.8114  1.5895 -0.1012
 8295TIP3   OH246299   4.261   3.628   0.813  0.0878 -0.1809  0.0153
 8295TIP3    H146300   4.306   3.557   0.860  0.3631 -2.4761 -3.3081
 8295TIP3    H246301   4.173   3.628   0.849  0.1285 -2.1895  0.2454
 8296TIP3   OH246302   0.340   0.365   5.667 -0.6220  0.1905  0.4245
 8296TIP3    H146303   0.336   0.283   5.716 -0.1423  0.0583  0.2484
 8296TIP3    H246304   0.411   0.352   5.604 -1.4913  0.2069 -0.5850
 8297TIP3   OH246305   3.816   5.149   4.856  0.4249 -0.1325 -0.0309
 8297TIP3    H146306   3.830   5.068   4.904  0.5215  0.5340  1.1309
 8297TIP3    H246307   3.738   5.133   4.803  0.3831 -0.9426  0.2599
 8298TIP3   OH246308   5.162   2.180  15.763  0.0906  0.1417  0.7317
 8298TIP3    H146309   5.099   2.109  15.780 -1.0010  0.5787 -1.1875
 8298TIP3    H246310   5.165   2.230  15.845 -4.3209  1.7951  0.1164
 8299TIP3   OH246311   6.281   6.753   1.803  0.3883  0.0372  0.3433
 8299TIP3    H146312   6.255   6.844   1.818  0.7688  0.1641  0.2272
 8299TIP3    H246313   6.221   6.722   1.735  0.1024  0.1256  0.5516
 8300TIP3   OH246314   0.504   0.953  15.621 -0.2942 -0.1543 -0.1532
 8300TIP3    H146315   0.476   0.943  15.530  0.0125 -0.5069 -0.2135
 8300TIP3    H246316   0.600   0.956  15.616 -0.1849 -1.8695  0.2956
 8301TIP3   OH246317   5.691   6.325   5.879  0.0686  0.1781  0.0713
 8301TIP3    H146318   5.785   6.313   5.867  0.0115 -0.9666  0.6149
 8301TIP3    H246319   5.676   6.302   5.971 -0.7582  0.2210 -0.0481
 8302TIP3   OH246320   4.566   4.417   2.656 -0.0198  0.2170  0.1414
 8302TIP3    H146321   4.489   4.402   2.711  0.5516 -0.7779  0.7090
 8302TIP3    H246322   4.565   4.346   2.592 -0.2477  0.9230 -0.6598
 8303TIP3   OH246323   4.752   0.020  11.768 -0.2909 -0.3725 -0.1097
 8303TIP3    H146324   4.739  -0.075  11.762 -0.9238 -0.4494  1.8036
 8303TIP3    H246325   4.726   0.053  11.682  1.2063 -2.0264 -1.2820
 8304TIP3   OH246326   0.682   0.722  16.093 -0.8953  0.9697 -0.4245
 8304TIP3    H146327   0.766   0.729  16.139 -1.5923 -0.5996  1.2606
 8304TIP3    H246328   0.638   0.648  16.136 -2.0892  0.0661 -2.9642
 8305TIP3   OH246329   4.342   6.501  12.045 -0.4878  0.5956 -0.1707
 8305TIP3    H146330   4.289   6.449  11.985  1.3195  0.0263 -1.3763
 8305TIP3    H246331   4.329   6.460  12.131 -1.4535  0.0504 -0.5664
 8306TIP3   OH246332   2.104   4.392   3.931 -0.3272 -0.4529 -0.6364
 8306TIP3    H146333   2.080   4.456   3.998 -0.8012  0.0432 -1.2694
 8306TIP3    H246334   2.200   4.394   3.929 -0.2849 -0.8420  0.3706
 8307TIP3   OH246335   4.073   2.323   4.386  0.5641 -0.0919 -0.0039
 8307TIP3    H146336   4.049   2.246   4.334 -0.5190 -0.1981  0.6289
 8307TIP3    H246337   4.049   2.398   4.331  0.4639 -0.2024 -0.1092
 8308TIP3   OH246338   4.676   5.741  13.642  0.4372  0.4335  0.2256
 8308TIP3    H146339   4.695   5.647  13.639  0.0913  0.3823 -1.1760
 8308TIP3    H246340   4.637   5.755  13.728 -0.3129 -0.8801  0.1272
 8309TIP3   OH246341   6.050   3.128   2.556 -0.2209  0.5315  0.3002
 8309TIP3    H146342   5.994   3.110   2.480  0.8250  1.4910 -0.7260
 8309TIP3    H246343   6.031   3.218   2.579 -0.4106  0.2950  1.0952
 8310TIP3   OH246344   2.891   3.257  11.635  0.1702 -0.4830  0.2133
 8310TIP3    H146345   2.912   3.349  11.621  2.2026 -0.9904 -0.5151
 8310TIP3    H246346   2.826   3.237  11.568 -0.2588  0.4086  0.3519
 8311TIP3   OH246347   5.841   5.169  14.750 -0.1494  0.1766 -0.2624
 8311TIP3    H146348   5.898   5.245  14.739 -2.2819  1.9041 -0.1863
 8311TIP3    H246349   5.796   5.161  14.666  0.5775 -1.5161 -0.5237
 8312TIP3   OH246350   2.706   5.953  16.427  0.5864 -0.4592  0.4344
 8312TIP3    H146351   2.652   6.024  16.391  1.2681 -0.2586 -0.2197
 8312TIP3    H246352   2.771   5.998  16.482 -0.6298 -0.7820  2.2213
 8313TIP3   OH246353   6.645   6.642   5.532  0.6641  0.4708 -0.3945
 8313TIP3    H146354   6.651   6.727   5.576  1.2410 -0.9342  2.4624
 8313TIP3    H246355   6.707   6.587   5.579 -0.3552 -1.7881 -1.5793
 8314TIP3   OH246356   3.284   2.951  16.424  0.1692 -0.9906 -0.0898
 8314TIP3    H146357   3.223   2.900  16.370  0.7925 -0.6104 -1.1668
 8314TIP3    H246358   3.317   3.019  16.367 -1.3331  1.2840  1.5695
 8315TIP3   OH246359   4.352   5.551   3.552  0.0739 -0.4494  0.1425
 8315TIP3    H146360   4.302   5.559   3.471 -0.3302 -1.1875  0.3049
 8315TIP3    H246361   4.292   5.583   3.620  1.0295  1.8641 -0.0108
 8316TIP3   OH246362   5.526   5.406   4.436 -0.2856  0.6437 -0.2252
 8316TIP3    H146363   5.546   5.359   4.517  0.0458 -0.5352 -0.9684
 8316TIP3    H246364   5.446   5.455   4.455 -1.9375 -1.9200 -0.0355
 8317TIP3   OH246365   5.791   6.098  11.963  0.9924  0.1265  0.2746
 8317TIP3    H146366   5.751   6.176  11.926 -2.1221 -2.9185 -3.7678
 8317TIP3    H246367   5.885   6.114  11.956  0.5001  3.4062 -0.3793
 8318TIP3   OH246368   1.277   3.490  13.957 -0.0181  0.4824 -0.0396
 8318TIP3    H146369   1.351   3.480  14.017  0.0192 -1.0341 -0.3077
 8318TIP3    H246370   1.313   3.536  13.881  0.8135 -0.7016 -0.3926
 8319TIP3   OH246371   1.384   5.903  14.254  0.2915 -0.5005  0.6792
 8319TIP3    H146372   1.390   5.922  14.348  1.2735 -1.5804  0.8688
 8319TIP3    H246373   1.298   5.935  14.228  0.5455  1.0704  1.6363
 8320TIP3   OH246374   1.511   0.831  13.677  0.3295  0.0113  0.3797
 8320TIP3    H146375   1.495   0.829  13.771  0.3406 -0.0758  0.3799
 8320TIP3    H246376   1.424   0.839  13.638  0.1492 -1.7060  0.3416
 8321TIP3   OH246377   2.023   6.353   2.808  0.1739 -0.4221 -1.0851
 8321TIP3    H146378   1.976   6.297   2.870  1.1614 -0.1235 -0.0213
 8321TIP3    H246379   2.090   6.296   2.770  0.6214 -0.2012 -0.6441
 8322TIP3   OH246380   2.215   6.299  12.175  0.2456 -0.0781  0.2733
 8322TIP3    H146381   2.205   6.390  12.149 -0.9674 -0.1042  0.5696
 8322TIP3    H246382   2.155   6.251  12.118  1.2794 -0.7694 -0.2579
 8323TIP3   OH246383   5.529   3.986   5.504 -0.2106 -0.1275 -0.0062
 8323TIP3    H146384   5.495   3.932   5.433  1.3862 -0.0264 -0.9099
 8323TIP3    H246385   5.481   4.069   5.496  1.1108  0.5406 -2.1585
 8324TIP3   OH246386   6.083   3.424   1.395  0.7774  0.8059  0.4069
 8324TIP3    H146387   6.159   3.408   1.339  0.0819 -1.1723 -0.0611
 8324TIP3    H246388   6.057   3.336   1.425 -1.6614  1.3559  0.0917
 8325TIP3   OH246389   3.702   3.494   1.201  0.4365  0.4557 -0.1639
 8325TIP3    H146390   3.722   3.582   1.234  0.1806  0.9289 -1.2216
 8325TIP3    H246391   3.721   3.499   1.107  0.2135 -0.5607 -0.2756
 8326TIP3   OH246392   0.291   0.591  11.270  0.1884  0.6643  0.0534
 8326TIP3    H146393   0.296   0.666  11.210 -0.2553  1.0659  0.5049
 8326TIP3    H246394   0.198   0.586  11.294 -0.0556 -0.9103 -1.0692
 8327TIP3   OH246395   0.657   2.153  15.044 -0.0796 -0.2735 -0.7980
 8327TIP3    H146396   0.605   2.113  15.114 -1.5495  0.5797 -1.3728
 8327TIP3    H246397   0.692   2.079  14.995  0.2375 -0.8705  0.2959
 8328TIP3   OH246398   6.395   5.557  14.867  0.3345 -0.2596 -0.1498
 8328TIP3    H146399   6.405   5.628  14.803  0.1539 -0.8076 -0.7886
 8328TIP3    H246400   6.305   5.566  14.899  1.2111  1.7390  2.1242
 8329TIP3   OH246401   4.460   0.825  12.013  0.7820 -0.0641  0.0657
 8329TIP3    H146402   4.422   0.912  12.027  0.4502 -0.3078  0.7625
 8329TIP3    H246403   4.512   0.833  11.934 -1.6078  0.0231 -1.6186
 8330TIP3   OH246404   2.369   1.139  13.187 -0.2918 -0.6092  0.2365
 8330TIP3    H146405   2.322   1.221  13.197  0.9114  0.2304 -0.5945
 8330TIP3    H246406   2.457   1.158  13.220  0.0195 -1.5474 -0.0173
 8331TIP3   OH246407   0.570   2.696  13.299 -0.1311 -0.0426 -0.3931
 8331TIP3    H146408   0.605   2.783  13.278 -0.7540  0.2796 -0.1023
 8331TIP3    H246409   0.559   2.697  13.394  0.8606 -0.8206 -0.2539
 8332TIP3   OH246410   0.575   0.311  15.417  0.0556 -0.3165  0.0528
 8332TIP3    H146411   0.525   0.236  15.386 -1.6823 -0.3076  2.5492
 8332TIP3    H246412   0.603   0.286  15.505  0.9743  1.2829  0.2421
 8333TIP3   OH246413   3.352   1.847  14.206 -0.3336 -0.5995  0.4002
 8333TIP3    H146414   3.267   1.867  14.244 -0.7510 -0.7340 -0.4458
 8333TIP3    H246415   3.382   1.769  14.254  0.2380  0.6049  2.0688
 8334TIP3   OH246416   6.382   1.318  15.490  0.5456 -0.7096 -0.1864
 8334TIP3    H146417   6.473   1.327  15.519  0.7055 -0.1724 -0.8337
 8334TIP3    H246418   6.367   1.223  15.490  0.5865 -0.7387  1.4578
 8335TIP3   OH246419   4.825   4.590  12.373  0.3716 -0.0319  0.0881
 8335TIP3    H146420   4.873   4.571  12.453  1.2793  0.3612 -0.3555
 8335TIP3    H246421   4.881   4.650  12.325 -0.2164 -0.1790 -0.7988
 8336TIP3   OH246422   5.755   3.624   0.337 -0.3330 -0.5472  0.1229
 8336TIP3    H146423   5.737   3.532   0.318  0.1508 -0.4019 -1.1203
 8336TIP3    H246424   5.711   3.673   0.268  1.2415  0.0258 -0.5138
 8337TIP3   OH246425   4.871   2.219  15.777  0.2736  0.4538  0.1600
 8337TIP3    H146426   4.916   2.140  15.750  0.2438  0.2009  0.8220
 8337TIP3    H246427   4.778   2.199  15.768  0.2810  0.7644 -0.6268
 8338TIP3   OH246428   1.641   4.986  17.070  0.2761  0.0157 -0.2530
 8338TIP3    H146429   1.573   5.046  17.038 -0.3357  0.7251  2.1801
 8338TIP3    H246430   1.708   5.044  17.107  0.6172 -0.7536  0.3563
 8339TIP3   OH246431   5.329   4.697   2.692 -0.1782 -0.4740 -0.1665
 8339TIP3    H146432   5.253   4.691   2.633 -1.4487  1.1675  1.1736
 8339TIP3    H246433   5.295   4.744   2.768  2.1081 -0.1145  0.6855
 8340TIP3   OH246434   0.249   5.229  11.961 -0.2998 -0.1316  0.4130
 8340TIP3    H146435   0.192   5.160  11.925  0.9135 -0.7718 -0.3333
 8340TIP3    H246436   0.188   5.299  11.987 -1.3819 -0.4291 -1.1668
 8341TIP3   OH246437   1.131   1.301   5.583  0.1314  0.7792 -0.1392
 8341TIP3    H146438   1.071   1.349   5.527 -0.6349 -1.4975 -1.4119
 8341TIP3    H246439   1.184   1.249   5.523 -0.2015 -1.1977  1.1694
 8342TIP3   OH246440   3.946   0.677  15.204  0.8445 -0.0804  0.5299
 8342TIP3    H146441   3.999   0.606  15.168  0.0836 -0.3319 -0.1075
 8342TIP3    H246442   3.945   0.744  15.135 -0.5207 -0.5165  0.0867
 8343TIP3   OH246443   6.712   2.880  14.516 -0.1574  0.4600 -0.2332
 8343TIP3    H146444   6.684   2.930  14.439  1.3844  0.1493 -1.0475
 8343TIP3    H246445   6.643   2.895  14.581 -1.2120  1.2087 -1.4681
 8344TIP3   OH246446   4.850   4.968   1.513  0.1172  0.5848 -0.4728
 8344TIP3    H146447   4.839   4.941   1.604 -0.6384 -0.2569 -0.8033
 8344TIP3    H246448   4.931   5.020   1.513  0.1933  0.4886  0.6470
 8345TIP3   OH246449   4.165   1.376  14.425 -0.5578  0.0442  0.2388
 8345TIP3    H146450   4.220   1.361  14.347 -3.2485  1.1188 -2.0104
 8345TIP3    H246451   4.178   1.468  14.446 -1.8438  0.4421 -0.6376
 8346TIP3   OH246452   1.317   0.510  13.710 -0.1520 -0.3204 -0.0594
 8346TIP3    H146453   1.256   0.441  13.685 -0.4676 -0.1660  0.2673
 8346TIP3    H246454   1.279   0.590  13.674 -0.2353 -0.1980  0.2962
 8347TIP3   OH246455   0.705   5.834  11.891 -0.2341 -0.3867  0.5647
 8347TIP3    H146456   0.759   5.870  11.961 -0.5389  0.2277  0.4845
 8347TIP3    H246457   0.767   5.810  11.823  0.0407 -0.7555  0.9402
 8348TIP3   OH246458   6.167   5.380  16.975  0.4826 -0.3232  0.8565
 8348TIP3    H146459   6.197   5.456  17.024 -1.4821 -0.1265  1.8486
 8348TIP3    H246460   6.242   5.321  16.974  1.4378  0.8139  1.7007
 8349TIP3   OH246461   2.598   1.234  12.655 -0.5196 -0.0768 -0.4354
 8349TIP3    H146462   2.648   1.293  12.599 -0.3849  1.2450  1.0292
 8349TIP3    H246463   2.589   1.280  12.738 -0.3745 -2.1296  0.8016
 8350TIP3   OH246464   6.725   6.114  13.940 -0.2057  0.4105  0.2109
 8350TIP3    H146465   6.710   6.128  13.847  0.6202  2.4261  0.3312
 8350TIP3    H246466   6.813   6.148  13.955  0.6032 -1.9175  1.3452
 8351TIP3   OH246467   4.369   4.305  10.581 -0.2380  0.3823  0.2528
 8351TIP3    H146468   4.361   4.394  10.549 -1.6228  0.5005  0.8689
 8351TIP3    H246469   4.294   4.258  10.544  0.2203 -0.4138  0.3026
 8352TIP3   OH246470   1.941   4.124  12.971  0.6962 -0.0028 -0.2721
 8352TIP3    H146471   2.017   4.067  12.959  0.8234  0.6080 -3.2330
 8352TIP3    H246472   1.866   4.065  12.959  0.8038  0.0505 -1.3501
 8353TIP3   OH246473   2.248   5.695  14.635  0.0465  0.2905 -0.3505
 8353TIP3    H146474   2.262   5.666  14.726  1.4082 -0.0097 -0.6241
 8353TIP3    H246475   2.159   5.731  14.634  0.3721  1.2809  1.3673
 8354TIP3   OH246476   0.029   6.191   2.397 -0.3170  0.3283  0.3167
 8354TIP3    H146477   0.049   6.260   2.460 -0.9482  0.7837  0.0302
 8354TIP3    H246478   0.098   6.199   2.331 -2.0237  2.7189 -1.3345
 8355TIP3   OH246479   0.891   2.685   4.245 -0.4899  0.1557  1.1647
 8355TIP3    H146480   0.882   2.780   4.240 -2.0901 -0.0029 -3.6266
 8355TIP3    H246481   0.980   2.668   4.216 -0.7665  0.1659  0.2913
 8356TIP3   OH246482   2.174   0.186  14.505 -0.2521 -0.3643  0.3456
 8356TIP3    H146483   2.188   0.143  14.421  0.4591 -1.4319  0.9949
 8356TIP3    H246484   2.260   0.224  14.526 -0.8442  1.3544 -0.1827
 8357TIP3   OH246485   1.024   4.995  15.814 -0.0582 -0.0462 -0.1230
 8357TIP3    H146486   0.933   5.004  15.788  0.1514 -0.5271 -1.0339
 8357TIP3    H246487   1.028   4.911  15.859 -0.0301 -0.0923 -0.2124
 8358TIP3   OH246488   6.784   5.461   4.130 -0.0306 -0.0459 -0.3206
 8358TIP3    H146489   6.827   5.451   4.045 -1.1979 -0.9866 -0.8228
 8358TIP3    H246490   6.751   5.551   4.130 -0.0733 -0.0603 -0.8838
 8359TIP3   OH246491   0.592   6.420  11.563  0.6498 -0.0260 -0.2450
 8359TIP3    H146492   0.602   6.326  11.578 -0.6882  0.0116  1.1701
 8359TIP3    H246493   0.518   6.445  11.619 -0.0088  1.5865 -1.7484
 8360TIP3   OH246494   6.648   4.695  13.378  0.2885  0.0339  0.0820
 8360TIP3    H146495   6.736   4.676  13.344 -0.4659  0.5900 -2.3917
 8360TIP3    H246496   6.599   4.726  13.302 -2.2865 -0.9459  1.2210
 8361TIP3   OH246497   3.199   0.958   3.679  0.0083 -0.4045 -0.7755
 8361TIP3    H146498   3.156   0.941   3.595 -0.0984  1.0430 -1.0307
 8361TIP3    H246499   3.292   0.950   3.660 -0.0274 -0.3740 -0.9628
 8362TIP3   OH246500   3.251   3.085   4.561 -0.3849 -0.1212  0.6290
 8362TIP3    H146501   3.338   3.070   4.599  0.7808  0.4808 -1.6143
 8362TIP3    H246502   3.251   3.178   4.537 -1.6061 -0.1546  0.4279
 8363TIP3   OH246503   2.200   3.546  13.481 -0.5795 -0.2043 -0.5185
 8363TIP3    H146504   2.193   3.538  13.576  0.0340  0.1857 -0.4346
 8363TIP3    H246505   2.110   3.559  13.451 -0.7690 -0.2541  0.0132
 8364TIP3   OH246506   6.476   3.490  14.736  0.8054  0.1235  0.2092
 8364TIP3    H146507   6.412   3.474  14.806 -0.3097 -0.1273 -0.8501
 8364TIP3    H246508   6.527   3.408  14.732 -0.8997 -0.9338 -1.0632
 8365TIP3   OH246509   5.595   1.846   1.977 -0.0034  0.4025 -0.1296
 8365TIP3    H146510   5.522   1.889   1.933  1.2305  0.9657 -1.7384
 8365TIP3    H246511   5.656   1.917   1.999  0.6814 -0.1916 -0.0665
 8366TIP3   OH246512   5.284   2.884  11.681 -0.3066  0.4990  0.0556
 8366TIP3    H146513   5.198   2.849  11.702  0.1645  0.2672  1.7815
 8366TIP3    H246514   5.267   2.954  11.618 -1.5976 -0.5047 -0.7531
 8367TIP3   OH246515   3.995   3.393  15.309 -0.5080 -0.0773  0.0686
 8367TIP3    H146516   3.920   3.381  15.252 -0.6023 -0.1581  0.2082
 8367TIP3    H246517   4.045   3.464  15.269 -0.3727 -0.3887 -0.3157
 8368TIP3   OH246518   2.906   0.657  10.982  0.2397  0.0691  0.4219
 8368TIP3    H146519   2.913   0.729  10.920 -2.1439  2.0552  2.2581
 8368TIP3    H246520   2.840   0.599  10.945  0.2685  0.2140  0.1470
 8369TIP3   OH246521   1.967   6.016  16.978 -0.0158 -0.0451 -0.0127
 8369TIP3    H146522   2.002   5.970  16.901 -2.7315 -1.2323 -0.6465
 8369TIP3    H246523   1.876   5.987  16.984 -1.0919  3.1890  1.2442
 8370TIP3   OH246524   3.024   0.623  10.529  0.3855  0.8001 -0.3417
 8370TIP3    H146525   2.999   0.648  10.440 -1.1034  0.4201 -0.0519
 8370TIP3    H246526   3.081   0.694  10.558 -1.0497  2.1833 -0.7459
 8371TIP3   OH246527   1.832   2.624   4.503  0.1650  0.3585 -0.0065
 8371TIP3    H146528   1.813   2.705   4.549  1.1535  0.3351  0.4557
 8371TIP3    H246529   1.766   2.620   4.434 -0.4885  1.0677  0.5607
 8372TIP3   OH246530   0.984   0.865   4.628 -0.1639 -0.1691  0.0755
 8372TIP3    H146531   0.930   0.914   4.565 -0.5445 -0.4163  0.2117
 8372TIP3    H246532   0.928   0.854   4.705 -0.2487 -1.2263 -0.1252
 8373TIP3   OH246533   5.059   3.594  16.149  0.1805 -0.1506 -0.0803
 8373TIP3    H146534   5.059   3.679  16.193  0.5837 -0.2179  0.0609
 8373TIP3    H246535   4.982   3.596  16.093 -1.2350 -0.6635  1.7673
 8374TIP3   OH246536   5.051   2.287   1.917 -0.3665  0.0809 -0.4172
 8374TIP3    H146537   5.132   2.324   1.951 -1.2756  0.2262  1.7631
 8374TIP3    H246538   5.004   2.363   1.881 -0.5579  0.4423  0.5447
 8375TIP3   OH246539   5.175   3.190   5.535  0.2135 -1.1426 -0.1664
 8375TIP3    H146540   5.251   3.182   5.478 -0.8877  2.2490 -2.4374
 8375TIP3    H246541   5.100   3.176   5.477 -0.9108  0.0631  0.9307
 8376TIP3   OH246542   5.431   6.498  17.217 -0.6302  0.0814  0.0997
 8376TIP3    H146543   5.509   6.463  17.173  0.1975  2.0422 -0.1020
 8376TIP3    H246544   5.392   6.422  17.261  1.9178 -0.8194  0.9860
 8377TIP3   OH246545   0.238   2.644   4.955  0.0782  0.5209  0.2151
 8377TIP3    H146546   0.246   2.566   5.009  2.8743  1.3228  1.0972
 8377TIP3    H246547   0.281   2.621   4.872  0.1947  0.8581  0.1782
 8378TIP3   OH246548   4.658   5.835   5.297  0.0168 -0.1507 -0.6403
 8378TIP3    H146549   4.680   5.910   5.241  2.3518 -0.3199 -0.0600
 8378TIP3    H246550   4.577   5.860   5.340  1.4622  2.7681  0.6913
 8379TIP3   OH246551   2.110   0.505  15.550  1.0258  0.1716  0.3774
 8379TIP3    H146552   2.189   0.538  15.594  0.5889 -0.7919  1.9649
 8379TIP3    H246553   2.039   0.525  15.611  0.1966 -0.0600 -0.4887
 8380TIP3   OH246554   0.475   0.093   1.308 -0.0141  0.1829  0.1999
 8380TIP3    H146555   0.432   0.136   1.381  1.3389  0.4401  0.8880
 8380TIP3    H246556   0.454   0.001   1.318 -2.4294  0.5406 -0.9290
 8381TIP3   OH246557   5.294   1.376   2.941  0.0944 -0.4158  0.3122
 8381TIP3    H146558   5.313   1.331   2.859  2.2518  1.4590 -0.3308
 8381TIP3    H246559   5.214   1.426   2.923  0.8703  0.4578 -0.9222
 8382TIP3   OH246560   1.129   1.766   1.855  0.0340 -0.2250 -0.0148
 8382TIP3    H146561   1.073   1.818   1.797  0.0638  0.6386  0.7137
 8382TIP3    H246562   1.120   1.676   1.823 -1.6065 -0.0741 -0.0506
 8383TIP3   OH246563   2.512   1.880  16.575 -0.2060  0.2598 -0.5655
 8383TIP3    H146564   2.472   1.944  16.516  0.9117  0.7511 -0.8242
 8383TIP3    H246565   2.559   1.933  16.640  1.7588 -0.2522 -1.4902
 8384TIP3   OH246566   1.635   2.918   3.854 -0.3084 -0.1828  0.0131
 8384TIP3    H146567   1.707   2.980   3.854 -1.6451  1.7442  4.2069
 8384TIP3    H246568   1.574   2.951   3.787  2.0110 -1.2531 -2.8279
 8385TIP3   OH246569   4.861   3.654  15.673  0.0390  0.4096  0.2133
 8385TIP3    H146570   4.923   3.615  15.611  0.1133  1.1302 -0.1830
 8385TIP3    H246571   4.890   3.745  15.681 -0.5354  0.5653  0.5866
 8386TIP3   OH246572   2.584   4.733   5.401 -0.5545 -0.5203  0.2475
 8386TIP3    H146573   2.614   4.666   5.462  1.1815 -0.4052 -0.4242
 8386TIP3    H246574   2.601   4.816   5.446 -1.1990 -0.4842  0.4303
 8387TIP3   OH246575   3.492   5.096  12.828 -0.1755 -0.6156  0.1175
 8387TIP3    H146576   3.407   5.139  12.819  0.3464  0.8419  1.6977
 8387TIP3    H246577   3.555   5.159  12.794  0.3563 -1.4882 -0.5838
 8388TIP3   OH246578   1.667   2.749  16.369  0.2146 -0.0182 -0.5560
 8388TIP3    H146579   1.589   2.708  16.331 -0.2597  1.2627 -1.0216
 8388TIP3    H246580   1.648   2.843  16.366  1.2687  0.2454  0.4639
 8389TIP3   OH246581   3.756   4.449  15.202 -0.0512  0.3254 -0.9295
 8389TIP3    H146582   3.758   4.354  15.212 -0.5531  0.3647 -0.3703
 8389TIP3    H246583   3.773   4.483  15.290  0.7704  0.7649 -1.2488
 8390TIP3   OH246584   0.595   0.131   5.848 -0.3383 -0.2458 -0.3710
 8390TIP3    H146585   0.521   0.186   5.876 -0.1455 -0.1943  0.0523
 8390TIP3    H246586   0.555   0.046   5.829 -0.8168  0.3356 -2.1625
 8391TIP3   OH246587   1.324   6.074  12.873  0.4705  0.3891 -0.3267
 8391TIP3    H146588   1.326   5.991  12.826  0.1602  1.6957 -2.8396
 8391TIP3    H246589   1.412   6.085  12.908  0.5403 -0.9234 -0.0600
 8392TIP3   OH246590   1.176   2.780  11.689  0.0536 -0.1000  0.2679
 8392TIP3    H146591   1.148   2.870  11.671 -2.5010 -1.0382 -0.9811
 8392TIP3    H246592   1.246   2.763  11.626  0.6929  1.0444  0.6448
 8393TIP3   OH246593   1.860   4.195   0.170  0.1449 -0.2021 -0.0412
 8393TIP3    H146594   1.870   4.218   0.078 -0.0828 -0.4441 -0.1272
 8393TIP3    H246595   1.819   4.109   0.169  0.9773 -0.6075  0.2848
 8394TIP3   OH246596   6.103   5.247  12.108  0.3666  0.2950  0.2789
 8394TIP3    H146597   6.170   5.290  12.161  0.8338 -0.2319  0.1219
 8394TIP3    H246598   6.090   5.305  12.034 -0.0653  0.8824  0.8030
 8395TIP3   OH246599   6.088   4.309   1.723 -0.2102  0.6543  0.3091
 8395TIP3    H146600   6.071   4.399   1.694 -1.4679  0.0752 -0.7858
 8395TIP3    H246601   6.009   4.261   1.701  0.8276 -0.9552 -0.0338
 8396TIP3   OH246602   6.633   4.341   0.675  0.7257  0.2303 -0.9406
 8396TIP3    H146603   6.713   4.385   0.702  0.1996  0.3974  0.4379
 8396TIP3    H246604   6.624   4.362   0.582  1.6838  1.1382 -0.8444
 8397TIP3   OH246605   0.383   0.942   3.545  0.0117 -0.6790 -0.0248
 8397TIP3    H146606   0.456   0.889   3.578  1.1059  0.8794  0.1815
 8397TIP3    H246607   0.347   0.985   3.622  0.3033  0.2520 -0.3930
 8398TIP3   OH246608   0.099   1.874   0.540  0.3524  0.6476  0.2150
 8398TIP3    H146609   0.016   1.848   0.499  0.6217  0.6113 -0.3128
 8398TIP3    H246610   0.117   1.961   0.504  0.9900  0.2854 -0.3590
 8399TIP3   OH246611   1.097   2.246   2.486  0.4914 -0.0005 -0.4407
 8399TIP3    H146612   1.063   2.336   2.488  1.3041  0.3206 -0.6804
 8399TIP3    H246613   1.169   2.249   2.424  0.3575 -0.8901 -0.6550
 8400TIP3   OH246614   4.735   3.205   5.541 -0.4919 -0.3547  0.1859
 8400TIP3    H146615   4.740   3.170   5.630  2.0944 -1.6090 -0.3473
 8400TIP3    H246616   4.760   3.297   5.549 -1.8471 -0.0205  0.9031
 8401TIP3   OH246617   0.086   4.228  14.238 -0.4810  0.5350 -0.2225
 8401TIP3    H146618   0.090   4.177  14.157 -0.0037  0.8480 -0.3978
 8401TIP3    H246619   0.176   4.255  14.253 -0.3148 -0.6284  1.1184
 8402TIP3   OH246620   4.621   5.770   3.215 -0.5657  0.0486  0.1080
 8402TIP3    H146621   4.665   5.822   3.282 -1.1079  0.9580 -0.2163
 8402TIP3    H246622   4.534   5.810   3.207 -1.0180 -0.9525 -0.1120
 8403TIP3   OH246623   1.844   5.027  14.386 -0.1430 -0.0057  0.1342
 8403TIP3    H146624   1.751   5.047  14.393 -0.1500 -0.3238  1.2284
 8403TIP3    H246625   1.876   5.031  14.476  0.4865 -1.7969  0.0268
 8404TIP3   OH246626   0.793   6.530  12.881 -0.6657  0.1743  0.3688
 8404TIP3    H146627   0.854   6.502  12.948 -1.2920 -0.2751  0.7617
 8404TIP3    H246628   0.711   6.547  12.928 -1.0830 -0.0457 -0.2625
 8405TIP3   OH246629   3.935   2.479   5.733  0.1518  0.0251 -0.1989
 8405TIP3    H146630   3.865   2.538   5.707  0.6244  0.6663 -0.0528
 8405TIP3    H246631   3.925   2.403   5.676  0.7371  1.0872 -1.7863
 8406TIP3   OH246632   1.704   6.288  15.533 -0.2609  0.2128 -0.9069
 8406TIP3    H146633   1.626   6.233  15.541  0.0496 -0.0661  0.3302
 8406TIP3    H246634   1.696   6.327  15.446 -0.8752 -1.1863 -1.5190
 8407TIP3   OH246635   0.768   1.061   5.583  0.3527 -0.5766 -0.4595
 8407TIP3    H146636   0.783   1.141   5.633  1.4010 -0.7109 -0.5415
 8407TIP3    H246637   0.698   1.084   5.522 -0.5424 -0.2432  0.6699
 8408TIP3   OH246638   2.344   5.859   4.196  0.2636 -0.4516  0.4185
 8408TIP3    H146639   2.343   5.862   4.291  1.1384  2.0857  0.4156
 8408TIP3    H246640   2.393   5.780   4.174  1.6868 -0.0787  2.1125
 8409TIP3   OH246641   1.175   3.041  12.099 -0.5299 -0.3215  0.6459
 8409TIP3    H146642   1.165   2.950  12.128 -0.1004 -0.4905  0.2763
 8409TIP3    H246643   1.269   3.052  12.087 -0.6908 -0.2727 -0.7156
 8410TIP3   OH246644   1.290   5.637  13.768 -0.7301 -0.2298 -0.1035
 8410TIP3    H146645   1.380   5.669  13.773 -1.0082  1.1195 -2.4305
 8410TIP3    H246646   1.296   5.556  13.717 -0.9365  0.6476 -1.5916
 8411TIP3   OH246647   2.053   1.661   1.354  0.5517  0.2548  0.0526
 8411TIP3    H146648   1.966   1.675   1.389  0.2369  0.9854 -0.9597
 8411TIP3    H246649   2.108   1.726   1.398  1.1596 -1.7511  2.4976
 8412TIP3   OH246650   2.590   3.900  16.464 -0.1401 -0.1533 -0.2090
 8412TIP3    H146651   2.526   3.886  16.534 -0.1532  0.3926 -0.1036
 8412TIP3    H246652   2.540   3.937  16.392  0.2009  1.1694  0.2098
 8413TIP3   OH246653   4.573   4.601  12.228 -0.4042 -0.2807 -0.3447
 8413TIP3    H146654   4.649   4.596  12.285 -0.8433  0.3847  0.3304
 8413TIP3    H246655   4.556   4.695  12.219 -0.2584 -0.3633 -1.7104
 8414TIP3   OH246656   0.330   6.119   1.300  0.0493  0.2562  0.5156
 8414TIP3    H146657   0.416   6.162   1.311 -0.1537  0.2483  2.5520
 8414TIP3    H246658   0.267   6.191   1.303 -0.1283  0.0803  1.1641
 8415TIP3   OH246659   5.154   6.404  14.647  0.1074 -0.1585 -0.4649
 8415TIP3    H146660   5.134   6.496  14.664  2.1525  0.5092 -1.4016
 8415TIP3    H246661   5.093   6.378  14.579 -1.8136 -0.1317  1.1501
 8416TIP3   OH246662   0.499   0.471  16.809 -0.2941  0.2378  0.3351
 8416TIP3    H146663   0.467   0.421  16.885 -0.1208 -0.4905 -0.0663
 8416TIP3    H246664   0.533   0.405  16.749 -1.4938  0.7016 -0.9085
 8417TIP3   OH246665   4.190   4.828   3.634 -0.0609  0.3048 -0.2085
 8417TIP3    H146666   4.273   4.784   3.617  0.1139  0.6410 -0.2242
 8417TIP3    H246667   4.191   4.905   3.577 -0.4404  0.2376 -0.3066
 8418TIP3   OH246668   2.623   2.708  14.484 -0.0549  0.0781 -0.3800
 8418TIP3    H146669   2.669   2.776  14.434 -1.3197  0.5184 -0.9981
 8418TIP3    H246670   2.569   2.663  14.420 -1.6314  0.5745  0.5288
 8419TIP3   OH246671   0.439   0.367  13.276 -0.1802 -0.3194 -0.0836
 8419TIP3    H146672   0.469   0.433  13.339 -1.6104 -0.8368  1.2005
 8419TIP3    H246673   0.458   0.283  13.318 -2.7316 -0.6783  0.5236
 8420TIP3   OH246674   1.045   6.679  11.383 -0.3276 -0.0862  0.1986
 8420TIP3    H146675   1.035   6.695  11.477 -0.7878 -2.3279  0.6037
 8420TIP3    H246676   1.122   6.729  11.358 -2.6231  4.1654  0.7232
 8421TIP3   OH246677   0.142   3.741  14.477  0.0115 -0.0006  0.6537
 8421TIP3    H146678   0.072   3.753  14.541 -0.6043  0.4067 -0.0763
 8421TIP3    H246679   0.105   3.772  14.394  1.0966  0.3352  0.2719
 8422TIP3   OH246680   2.718   3.633   4.927 -0.3312  0.0324  0.1911
 8422TIP3    H146681   2.744   3.572   4.996  0.4500  0.4915  0.3117
 8422TIP3    H246682   2.699   3.715   4.973  0.6029  0.4668 -0.1616
 8423TIP3   OH246683   5.737   0.661   0.602  0.0804  0.0463  0.6142
 8423TIP3    H146684   5.722   0.575   0.561  0.0443 -0.0778  0.8863
 8423TIP3    H246685   5.768   0.640   0.690  2.2721  0.2653 -0.0415
 8424TIP3   OH246686   5.480   1.370   3.525 -0.5265 -0.1110 -0.3371
 8424TIP3    H146687   5.431   1.387   3.605  0.1824 -0.0989  0.0953
 8424TIP3    H246688   5.447   1.286   3.494 -1.6719  0.4465 -0.7015
 8425TIP3   OH246689   4.673   6.668   2.186 -0.3039 -0.5633 -0.1226
 8425TIP3    H146690   4.591   6.659   2.138 -0.6081 -0.3372  0.3409
 8425TIP3    H246691   4.703   6.578   2.201 -0.3777 -0.6400 -0.4400
 8426TIP3   OH246692   5.440   3.501   5.565 -0.1623 -0.1816  0.5247
 8426TIP3    H146693   5.374   3.500   5.635 -0.8266  1.3279 -0.0481
 8426TIP3    H246694   5.523   3.510   5.612 -0.4443 -0.9327  1.1964
 8427TIP3   OH246695   3.650   0.197  14.959  0.1153  0.3560  0.3578
 8427TIP3    H146696   3.671   0.128  14.896 -1.2897  0.3704 -0.1619
 8427TIP3    H246697   3.733   0.244  14.972  0.6556 -0.2537 -0.7359
 8428TIP3   OH246698   3.119   6.512   0.109  0.4933 -0.6433 -0.7839
 8428TIP3    H146699   3.042   6.568   0.104  0.5953 -0.5980 -2.1653
 8428TIP3    H246700   3.154   6.509   0.020  1.4756 -1.5296 -0.4061
 8429TIP3   OH246701   3.981   4.979  12.490  0.3196  0.2454 -0.8390
 8429TIP3    H146702   3.930   4.991  12.410 -0.3190 -1.6303 -0.7763
 8429TIP3    H246703   4.052   4.920  12.464 -0.0238 -0.5587  0.0056
 8430TIP3   OH246704   3.444   5.002   4.179 -0.4536  0.0210  0.1333
 8430TIP3    H146705   3.423   4.995   4.272  0.9816 -1.1561  0.4099
 8430TIP3    H246706   3.490   4.921   4.159 -1.5444 -0.1820 -1.8489
 8431TIP3   OH246707   5.912   5.008   5.505 -0.0482  0.5459  0.3569
 8431TIP3    H146708   5.941   5.009   5.414  0.9166  0.0742  0.6468
 8431TIP3    H246709   5.966   4.941   5.547 -3.0566 -2.0959  0.4664
 8432TIP3   OH246710   2.263   1.739  11.752  0.0832 -0.0425  0.1466
 8432TIP3    H146711   2.245   1.811  11.691  0.6483  0.3182  0.3935
 8432TIP3    H246712   2.354   1.753  11.779  0.3981 -1.2231 -0.2796
 8433TIP3   OH246713   2.134   0.381  12.369  0.4773  0.1600  0.2792
 8433TIP3    H146714   2.105   0.471  12.352 -0.5491 -0.2046  0.0094
 8433TIP3    H246715   2.161   0.348  12.284 -1.0176 -0.4096 -0.0102
 8434TIP3   OH246716   5.817   6.168   5.518  0.2641 -0.1244  0.4018
 8434TIP3    H146717   5.755   6.102   5.549  0.0717  0.0604  0.4128
 8434TIP3    H246718   5.853   6.206   5.598 -0.2392  0.3588  0.3986
 8435TIP3   OH246719   1.417   3.492   1.292 -0.5731 -0.0190 -0.0416
 8435TIP3    H146720   1.382   3.484   1.203 -3.5948  0.0442  1.0230
 8435TIP3    H246721   1.354   3.446   1.346  0.7240  0.6942  2.1864
 8436TIP3   OH246722   2.433   1.115   4.482 -0.8897 -0.2957 -0.4557
 8436TIP3    H146723   2.365   1.183   4.479  0.3663  1.0250 -0.2884
 8436TIP3    H246724   2.394   1.040   4.437 -3.2087 -0.3232  1.3954
 8437TIP3   OH246725   3.615   1.126   0.857 -0.4221  0.3698 -0.6012
 8437TIP3    H146726   3.600   1.183   0.932 -0.2878 -0.3413 -0.0184
 8437TIP3    H246727   3.527   1.101   0.828 -0.4603 -0.7785  0.4478
 8438TIP3   OH246728   2.932   4.329  15.548 -0.3654  0.1416 -0.1193
 8438TIP3    H146729   2.865   4.298  15.487 -0.0713 -0.4146 -0.1683
 8438TIP3    H246730   3.014   4.322  15.500 -0.2078  0.3267  0.1157
 8439TIP3   OH246731   4.771   1.714   1.908 -0.5556  0.4104 -0.1032
 8439TIP3    H146732   4.735   1.776   1.844  1.1393 -0.0153 -1.5526
 8439TIP3    H246733   4.817   1.649   1.855 -0.8130 -1.1308  1.4830
 8440TIP3   OH246734   4.075   0.314  14.177  0.9434 -0.1307 -0.1074
 8440TIP3    H146735   4.001   0.369  14.151  1.0830 -0.0943 -0.4265
 8440TIP3    H246736   4.151   0.373  14.175  0.8084  0.1339  1.3572
 8441TIP3   OH246737   2.275   4.544  11.871  0.2573 -0.6245  0.1685
 8441TIP3    H146738   2.220   4.469  11.850  0.6635 -1.1164  0.8476
 8441TIP3    H246739   2.358   4.506  11.900  1.3970  0.0972 -1.9285
 8442TIP3   OH246740   2.162   4.116  11.391  0.0166 -0.2794  0.5316
 8442TIP3    H146741   2.222   4.069  11.334 -2.2683 -1.2062 -1.2609
 8442TIP3    H246742   2.192   4.207  11.387  2.2268 -0.9362  1.0204
 8443TIP3   OH246743   2.347   0.248  16.536  0.0728 -0.2016 -0.3016
 8443TIP3    H146744   2.332   0.157  16.511  0.4908 -0.3984  0.1255
 8443TIP3    H246745   2.307   0.300  16.467 -0.1233 -0.7137 -0.5754
 8444TIP3   OH246746   5.851   2.321  12.790  0.1281  0.2226  0.7426
 8444TIP3    H146747   5.804   2.401  12.813 -0.6479  0.1348 -0.4424
 8444TIP3    H246748   5.792   2.274  12.731  1.7691  0.2070 -0.9891
 8445TIP3   OH246749   0.582   5.601  12.229  0.1145 -0.0667 -0.7065
 8445TIP3    H146750   0.676   5.608  12.215  0.0873  0.6948 -0.5754
 8445TIP3    H246751   0.551   5.542  12.160  0.5934  0.1991 -1.1541
 8446TIP3   OH246752   1.965   2.115   2.001  0.1232 -0.5082  0.0688
 8446TIP3    H146753   1.991   2.055   2.071 -1.7630 -1.5920 -0.0924
 8446TIP3    H246754   2.012   2.085   1.924  1.8420  0.3916  0.7229
 8447TIP3   OH246755   3.821   6.412  16.950 -0.8101  0.7407 -0.5334
 8447TIP3    H146756   3.844   6.500  16.919  0.9153  0.7732  0.6742
 8447TIP3    H246757   3.850   6.411  17.041 -1.1109 -0.9822 -0.4326
 8448TIP3   OH246758   0.571   2.852   0.753 -0.0046  0.3784 -0.4777
 8448TIP3    H146759   0.628   2.898   0.692 -0.8159 -0.4146 -1.8791
 8448TIP3    H246760   0.502   2.915   0.774  0.5343  0.8140  0.0223
 8449TIP3   OH246761   5.221   5.958  12.266  0.1366 -0.1154 -0.1723
 8449TIP3    H146762   5.196   6.021  12.199  0.5134  0.1907 -0.0279
 8449TIP3    H246763   5.194   5.998  12.349  0.9943  0.1762 -0.0224
 8450TIP3   OH246764   2.572   3.587   2.611 -0.0090  0.4715  0.4397
 8450TIP3    H146765   2.663   3.569   2.636  0.2073 -1.0562 -1.2591
 8450TIP3    H246766   2.572   3.680   2.587  1.6813 -0.0027 -1.6745
 8451TIP3   OH246767   1.056   1.579  14.715 -0.1924 -0.1383  0.2550
 8451TIP3    H146768   1.122   1.566  14.646  0.3904  0.5096  0.6679
 8451TIP3    H246769   1.107   1.611  14.790 -1.2484  2.6569 -0.1245
 8452TIP3   OH246770   6.672   1.174   2.085  0.0971 -0.4424  0.2012
 8452TIP3    H146771   6.658   1.175   1.990  0.0410 -1.3251  0.1889
 8452TIP3    H246772   6.750   1.228   2.098  1.0421 -1.5838 -0.5269
 8453TIP3   OH246773   3.300   6.712   3.746  0.3357 -0.4600  0.8494
 8453TIP3    H146774   3.276   6.658   3.822 -0.3376  0.4846  1.3255
 8453TIP3    H246775   3.338   6.650   3.684  2.0099 -1.0776  2.4151
 8454TIP3   OH246776   3.749   3.403  12.015 -0.2367 -0.7159  0.0542
 8454TIP3    H146777   3.766   3.326  12.070 -0.7204 -1.2337 -0.5074
 8454TIP3    H246778   3.689   3.457  12.067 -1.5471 -1.7084 -0.3598
 8455TIP3   OH246779   4.532   2.946  15.689 -0.2412  0.0798 -0.4430
 8455TIP3    H146780   4.538   3.038  15.718 -0.0927  0.0690 -0.4388
 8455TIP3    H246781   4.438   2.932  15.674 -0.2266  0.3321 -0.7731
 8456TIP3   OH246782   1.736   0.926   4.757 -0.4934 -0.7173  0.2571
 8456TIP3    H146783   1.822   0.951   4.724 -0.9353  0.0999 -0.2994
 8456TIP3    H246784   1.750   0.911   4.850  0.0378  0.4830  0.3875
 8457TIP3   OH246785   1.876   2.355  15.489  0.5767 -0.0123 -0.0100
 8457TIP3    H146786   1.871   2.318  15.400 -2.2133 -1.9194  0.8178
 8457TIP3    H246787   1.953   2.314  15.527  0.9555 -0.3302 -1.0644
 8458TIP3   OH246788   5.224   4.814  14.006  0.3525  0.1777  0.4487
 8458TIP3    H146789   5.187   4.735  14.044 -0.7086  0.3799 -0.1316
 8458TIP3    H246790   5.222   4.798  13.911  0.8589  0.5846  0.3639
 8459TIP3   OH246791   1.774   0.057  14.010 -0.0287  0.0599 -0.1509
 8459TIP3    H146792   1.843   0.072  14.074 -0.5507 -0.0578  0.4542
 8459TIP3    H246793   1.796  -0.026  13.968 -1.1718 -1.3593  1.9007
 8460TIP3   OH246794   3.958   2.307   0.870  0.3750  0.1766  0.0345
 8460TIP3    H146795   4.033   2.250   0.885  0.7949  1.4035  3.3748
 8460TIP3    H246796   3.962   2.326   0.776  3.5114 -0.7721 -0.1556
 8461TIP3   OH246797   2.365   2.211   1.832 -0.6059  0.0193 -0.1549
 8461TIP3    H146798   2.303   2.239   1.765  0.0856 -2.0773 -1.7711
 8461TIP3    H246799   2.361   2.115   1.830  0.9669 -0.1262  1.3644
 8462TIP3   OH246800   1.090   3.844  15.109 -0.0975  0.0102 -0.1079
 8462TIP3    H146801   1.096   3.753  15.081 -1.3038 -0.1120 -0.0474
 8462TIP3    H246802   1.000   3.869  15.086 -0.1453  0.8181  0.9314
 8463TIP3   OH246803   3.655   0.526  14.893  0.4549 -0.1022  0.4170
 8463TIP3    H146804   3.730   0.569  14.852 -0.3060 -0.9957 -2.1630
 8463TIP3    H246805   3.692   0.455  14.944  1.4229 -0.5833 -0.8966
 8464TIP3   OH246806   2.792   2.420  12.779  0.1347 -0.2387  0.3886
 8464TIP3    H146807   2.737   2.342  12.790  1.3324 -1.4766 -1.8225
 8464TIP3    H246808   2.881   2.385  12.770  1.1604  1.6219  2.3484
 8465TIP3   OH246809   1.745   6.446  16.703 -0.3586  0.6001  0.8700
 8465TIP3    H146810   1.805   6.497  16.758  1.1096  2.3109 -2.0157
 8465TIP3    H246811   1.720   6.506  16.633 -1.4534 -1.6294 -0.7967
 8466TIP3   OH246812   4.579   1.446   3.608 -0.1377  0.4935  0.4492
 8466TIP3    H146813   4.596   1.522   3.664  1.1645  0.9044 -0.4562
 8466TIP3    H246814   4.488   1.456   3.582 -0.8873  0.1407  2.6669
 8467TIP3   OH246815   3.802   6.149  13.672  0.0791 -0.3949  0.1778
 8467TIP3    H146816   3.730   6.147  13.736  1.1332 -2.0241  1.4125
 8467TIP3    H246817   3.825   6.057  13.660  1.7797  0.0729 -0.3803
 8468TIP3   OH246818   2.026   4.892  13.647 -0.1432  0.0083 -0.2373
 8468TIP3    H146819   1.971   4.815  13.634 -1.7084  0.6338  1.9908
 8468TIP3    H246820   2.096   4.861  13.704  0.2538 -0.1606 -0.8117
 8469TIP3   OH246821   2.840   2.829   1.195  0.6561  0.0828  0.4425
 8469TIP3    H146822   2.930   2.807   1.173  0.6434 -0.9867  1.3768
 8469TIP3    H246823   2.836   2.825   1.290  0.4394  3.4878  0.7032
 8470TIP3   OH246824   4.054   6.654  15.549 -0.2125 -0.0405  0.1114
 8470TIP3    H146825   4.045   6.748  15.541 -1.1218  0.0032  1.4198
 8470TIP3    H246826   3.965   6.620  15.552  0.0949 -0.9000  0.0682
 8471TIP3   OH246827   4.754   5.817  16.252 -0.4531  0.9930  0.4420
 8471TIP3    H146828   4.679   5.851  16.203  0.4668  1.5383 -0.6340
 8471TIP3    H246829   4.772   5.884  16.317 -0.8397  0.9022  0.6457
 8472TIP3   OH246830   1.260   3.783   3.285 -0.3153 -0.9128  0.1559
 8472TIP3    H146831   1.312   3.704   3.272  0.9202 -0.1251  0.2079
 8472TIP3    H246832   1.240   3.782   3.379 -1.0429 -1.5896  0.0103
 8473TIP3   OH246833   2.335   5.508   3.775  0.4768  0.0038  0.4816
 8473TIP3    H146834   2.259   5.555   3.810  0.7027  0.8379 -0.1097
 8473TIP3    H246835   2.348   5.546   3.688  1.7629  0.1040  0.6996
 8474TIP3   OH246836   4.733   0.686  11.723  0.4637  0.0240 -0.6427
 8474TIP3    H146837   4.782   0.767  11.709  1.3799 -0.5067 -0.6170
 8474TIP3    H246838   4.670   0.683  11.652 -0.3822  1.3354  0.0202
 8475TIP3   OH246839   2.724   4.805  13.027 -0.0967  0.3925 -0.3598
 8475TIP3    H146840   2.795   4.785  13.088  0.8193  1.3690 -1.0675
 8475TIP3    H246841   2.653   4.745  13.051  1.5934 -1.8707 -0.7837
 8476TIP3   OH246842   1.626   4.982   0.841 -0.3499 -0.1396 -0.4928
 8476TIP3    H146843   1.564   4.949   0.906 -1.1765 -0.2227 -1.3053
 8476TIP3    H246844   1.660   4.903   0.798  1.0488 -0.1593  0.5594
 8477TIP3   OH246845   6.262   6.661  12.275  0.9704 -0.2101 -0.1430
 8477TIP3    H146846   6.248   6.580  12.324  1.3682  0.4976  1.1718
 8477TIP3    H246847   6.270   6.632  12.184  0.1639 -1.5475  0.1746
 8478TIP3   OH246848   3.974   0.957  12.460 -0.3409 -0.2913  0.2600
 8478TIP3    H146849   4.001   1.023  12.398  1.2547 -1.9447 -0.8916
 8478TIP3    H246850   3.931   0.890  12.407 -0.4664 -0.9525  1.1642
 8479TIP3   OH246851   3.638   1.215  16.145 -0.0202  0.0011 -0.0357
 8479TIP3    H146852   3.686   1.209  16.228  1.4940  0.8657 -0.7963
 8479TIP3    H246853   3.681   1.151  16.088  0.2537  0.7792 -0.7327
 8480TIP3   OH246854   3.725   4.783  10.744  0.2883 -0.0695  0.4992
 8480TIP3    H146855   3.717   4.691  10.769  0.1206 -0.0592  0.4856
 8480TIP3    H246856   3.700   4.831  10.823  1.0061 -0.0284  0.7113
 8481TIP3   OH246857   0.684   3.099   3.930  0.0742  0.3671 -0.1767
 8481TIP3    H146858   0.687   3.194   3.917 -1.9203  0.7506  1.6060
 8481TIP3    H246859   0.595   3.074   3.907  0.1890 -0.8634  0.6149
 8482TIP3   OH246860   3.122   3.086  13.390 -0.0522 -0.5134  0.3979
 8482TIP3    H146861   3.127   3.131  13.474 -0.4516 -1.0819  0.7287
 8482TIP3    H246862   3.121   2.993  13.412 -1.4298 -0.6547 -0.1637
 8483TIP3   OH246863   1.124   2.025  16.048  0.0104  0.4026  0.4077
 8483TIP3    H146864   1.082   1.943  16.022 -1.0790  1.0286  0.1466
 8483TIP3    H246865   1.062   2.093  16.022  0.7150  1.2886  0.9941
 8484TIP3   OH246866   6.343   4.616  16.315  0.0309  0.1878 -0.1413
 8484TIP3    H146867   6.438   4.624  16.302  0.0161  0.8456  0.1240
 8484TIP3    H246868   6.331   4.524  16.340  0.3263 -0.4979 -2.3258
 8485TIP3   OH246869   3.643   0.621  11.359  0.2998 -0.1923  0.5323
 8485TIP3    H146870   3.574   0.618  11.426  0.4449  0.3320  0.7088
 8485TIP3    H246871   3.655   0.714  11.341  0.0151 -0.3372 -0.4875
 8486TIP3   OH246872   3.395   4.682  13.873  0.4398  0.4659 -0.3552
 8486TIP3    H146873   3.393   4.747  13.802  1.2820  0.5762 -0.2851
 8486TIP3    H246874   3.483   4.646  13.870  0.1534 -0.2784 -0.0207
 8487TIP3   OH246875   1.981   1.666  11.199 -0.1144 -0.8038  0.0939
 8487TIP3    H146876   1.904   1.615  11.224 -1.7176  1.5300  0.2804
 8487TIP3    H246877   1.946   1.737  11.145  1.7884  0.7728  0.8133
 8488TIP3   OH246878   4.210   5.001  15.625  0.0970  0.3042  0.4970
 8488TIP3    H146879   4.199   4.908  15.647  0.6191  0.2757  0.6516
 8488TIP3    H246880   4.269   5.001  15.550  0.0556  0.5109  0.4648
 8489TIP3   OH246881   3.309   1.891   5.777 -0.1281  0.2913  0.3944
 8489TIP3    H146882   3.283   1.807   5.739 -1.2500  0.0903  1.5696
 8489TIP3    H246883   3.336   1.870   5.866  2.6366  0.7370 -0.2271
 8490TIP3   OH246884   3.033   0.253   1.750  0.2810  0.2306 -0.0112
 8490TIP3    H146885   3.024   0.263   1.844 -1.0895  1.8647 -0.2566
 8490TIP3    H246886   3.071   0.336   1.721 -2.6569  1.2957 -1.2249
 8491TIP3   OH246887   1.948   3.602  13.413 -0.1049  0.0521 -0.0813
 8491TIP3    H146888   1.900   3.556  13.345  0.9616 -1.0614 -0.1091
 8491TIP3    H246889   1.915   3.692  13.409 -2.6675 -0.7779  0.3591
 8492TIP3   OH246890   1.692   2.513  12.858  0.5413 -0.5227 -0.2139
 8492TIP3    H146891   1.606   2.539  12.890  0.5769 -0.1901 -0.3837
 8492TIP3    H246892   1.681   2.423  12.827  0.4789 -0.8096  0.6188
 8493TIP3   OH246893   4.389   3.616   4.312 -0.4800  0.6369  0.1496
 8493TIP3    H146894   4.305   3.575   4.293 -0.2330 -0.1779  0.7620
 8493TIP3    H246895   4.382   3.704   4.275 -1.2211  0.2302 -0.7170
 8494TIP3   OH246896   4.252   0.214  16.114 -0.1007 -0.1360 -0.7020
 8494TIP3    H146897   4.337   0.197  16.155 -0.4793  0.1866  0.2596
 8494TIP3    H246898   4.268   0.290  16.058 -0.2408  1.4986  1.3080
 8495TIP3   OH246899   1.190   1.451  15.630 -0.1402  0.3480 -0.0373
 8495TIP3    H146900   1.222   1.396  15.558  0.7686  1.6576 -0.6664
 8495TIP3    H246901   1.173   1.536  15.590 -0.2506  0.9138  1.1696
 8496TIP3   OH246902   3.831   3.774  13.678 -0.1336  0.1085  0.1033
 8496TIP3    H146903   3.889   3.847  13.701  1.7694 -0.1330 -3.2407
 8496TIP3    H246904   3.842   3.711  13.749  3.9019  0.0733 -0.3130
 8497TIP3   OH246905   2.489   4.347   5.963  0.2687 -0.0881 -0.1508
 8497TIP3    H146906   2.532   4.264   5.983 -0.6658 -0.4177  0.5548
 8497TIP3    H246907   2.486   4.394   6.046 -0.2894  0.1318 -0.2888
 8498TIP3   OH246908   1.667   5.875  16.476 -0.3931  0.2923  0.4288
 8498TIP3    H146909   1.580   5.869  16.516 -0.8550 -0.1871 -0.6177
 8498TIP3    H246910   1.698   5.785  16.474 -0.6352  0.2211 -0.8324
 8499TIP3   OH246911   2.265   2.636   4.900  0.2063  0.1098  0.0912
 8499TIP3    H146912   2.339   2.686   4.868  0.4398 -0.4646 -0.2791
 8499TIP3    H246913   2.294   2.545   4.898 -0.1821 -0.0426  0.8271
 8500TIP3   OH246914   5.087   0.067  14.197  0.0647  0.5966 -0.1257
 8500TIP3    H146915   5.083   0.065  14.292  0.0430  1.5906 -0.0926
 8500TIP3    H246916   5.027  -0.002  14.169 -0.6425  0.9095  0.5770
 8501TIP3   OH246917   4.176   4.168   5.455 -0.2721  0.2448  0.5348
 8501TIP3    H146918   4.103   4.108   5.469 -1.0975  0.9418 -0.6183
 8501TIP3    H246919   4.205   4.192   5.543  0.7527 -2.5691  1.0664
 8502TIP3   OH246920   1.799   2.370   1.469 -0.6262  0.6165  0.4202
 8502TIP3    H146921   1.890   2.340   1.464 -1.5473 -2.5694  0.4047
 8502TIP3    H246922   1.777   2.394   1.379 -0.0404  0.5412  0.2524
 8503TIP3   OH246923   3.660   3.952  16.850  0.4641  0.1974 -0.7056
 8503TIP3    H146924   3.647   3.860  16.873 -3.2523  0.9876  1.0037
 8503TIP3    H246925   3.610   4.000  16.915  2.4684  3.5348 -1.3912
 8504TIP3   OH246926   4.870   3.127   1.302 -0.1578 -0.1714  0.3722
 8504TIP3    H146927   4.820   3.106   1.381 -0.6551 -2.0664 -0.3963
 8504TIP3    H246928   4.815   3.098   1.229  0.8301  0.3555 -0.6251
 8505TIP3   OH246929   5.468   6.224  12.809 -0.2936 -0.2864  0.1282
 8505TIP3    H146930   5.519   6.287  12.759  0.2873 -0.1896  0.8163
 8505TIP3    H246931   5.441   6.272  12.887 -0.8160 -0.5584  0.1170
 8506TIP3   OH246932   1.730   1.063  16.165  0.6113 -0.4411 -0.3922
 8506TIP3    H146933   1.776   1.032  16.244 -0.2673  0.4612  0.5037
 8506TIP3    H246934   1.712   1.155  16.183  0.0290 -0.3323 -1.4929
 8507TIP3   OH246935   2.843   4.224   5.216 -0.2527 -0.0832  0.4318
 8507TIP3    H146936   2.759   4.218   5.261 -1.0317 -1.4793 -1.1016
 8507TIP3    H246937   2.820   4.235   5.124  1.2830  1.4995  0.1935
 8508TIP3   OH246938   4.614   6.273  15.387 -0.2280 -0.9407  0.0803
 8508TIP3    H146939   4.659   6.232  15.312 -0.5943 -2.4157  0.6289
 8508TIP3    H246940   4.641   6.364  15.384  0.3789 -1.1386 -1.4018
 8509TIP3   OH246941   4.055   4.271   3.362 -0.1456  0.6426 -0.6646
 8509TIP3    H146942   4.084   4.304   3.448 -1.0067  1.0041 -0.5034
 8509TIP3    H246943   4.129   4.218   3.331  0.1830  0.5051  0.3001
 8510TIP3   OH246944   1.237   0.509   1.559 -0.4026  0.0703 -0.3526
 8510TIP3    H146945   1.327   0.477   1.565 -0.0579  0.8605 -1.1263
 8510TIP3    H246946   1.196   0.482   1.641  0.6264 -0.0262  0.1325
 8511TIP3   OH246947   5.463   1.234  11.212  0.6297  0.0654 -0.0543
 8511TIP3    H146948   5.438   1.327  11.217 -1.2062 -0.3566 -0.5663
 8511TIP3    H246949   5.468   1.206  11.304  0.4661  0.4898  0.0898
 8512TIP3   OH246950   5.633   1.361   2.613 -0.2990 -0.2000 -0.4320
 8512TIP3    H146951   5.635   1.389   2.704 -0.9593 -1.7658  0.1095
 8512TIP3    H246952   5.710   1.305   2.603 -0.3489 -0.2165 -0.7592
 8513TIP3   OH246953   0.749   0.683   0.053 -0.0037  0.1973 -0.8103
 8513TIP3    H146954   0.825   0.664   0.109 -1.1318  2.2273  1.5933
 8513TIP3    H246955   0.787   0.724  -0.024  1.3753  1.4546  0.4735
 8514TIP3   OH246956   3.027   5.805  12.508  0.0059  0.4414  0.2345
 8514TIP3    H146957   3.058   5.784  12.420  1.8312  0.8265  0.7321
 8514TIP3    H246958   2.935   5.781  12.508 -0.0066  0.3343 -1.7434
 8515TIP3   OH246959   4.131   0.424  11.350  0.5619  0.1677 -0.6239
 8515TIP3    H146960   4.041   0.454  11.333  0.4385 -1.2995 -2.9031
 8515TIP3    H246961   4.119   0.339  11.393  0.8488 -0.0153 -0.9053
 8516TIP3   OH246962   3.630   2.874   1.348  0.5324  0.0653 -0.1351
 8516TIP3    H146963   3.554   2.932   1.347  0.1976 -0.3337  0.9977
 8516TIP3    H246964   3.704   2.934   1.360  0.3639  0.4094 -0.7521
 8517TIP3   OH246965   5.760   3.774  15.050 -0.3086  0.3704  0.1442
 8517TIP3    H146966   5.836   3.802  14.999 -0.3156  0.4899  0.1998
 8517TIP3    H246967   5.742   3.847  15.109 -1.0643  0.7558 -0.5286
 8518TIP3   OH246968   6.505   1.217  11.219 -0.4218 -0.6062  0.8104
 8518TIP3    H146969   6.543   1.270  11.289  0.8185 -0.5008  0.1068
 8518TIP3    H246970   6.416   1.251  11.208  0.4203  1.5962  0.1681
 8519TIP3   OH246971   3.614   3.173  11.209 -0.3347 -0.1868 -0.1630
 8519TIP3    H146972   3.609   3.077  11.203  1.8382 -0.3812  0.3727
 8519TIP3    H246973   3.626   3.202  11.118 -1.6479 -0.3446 -0.4035
 8520TIP3   OH246974   4.297   1.467  13.863  0.3936  0.1178  0.0023
 8520TIP3    H146975   4.282   1.534  13.929 -1.8108 -0.5394  0.2502
 8520TIP3    H246976   4.367   1.413  13.899 -0.9973 -0.4408  2.0072
 8521TIP3   OH246977   2.161   2.016   1.007 -0.0850 -0.2397  0.0003
 8521TIP3    H146978   2.158   2.071   0.929 -0.0529 -1.2365 -0.7241
 8521TIP3    H246979   2.071   1.984   1.017 -0.9365  2.3873  2.2809
 8522TIP3   OH246980   3.469   1.247   5.847  0.3372 -0.3372 -0.2331
 8522TIP3    H146981   3.380   1.213   5.853  0.4603 -0.6193  0.0262
 8522TIP3    H246982   3.524   1.175   5.878  0.5171  0.5669  1.6878
 8523TIP3   OH246983   3.249   2.079  12.547 -0.1091  0.1303 -0.3838
 8523TIP3    H146984   3.306   2.079  12.470  0.8655  0.7285  0.3155
 8523TIP3    H246985   3.222   2.170  12.557  2.1410  0.6522  1.6485
 8524TIP3   OH246986   1.961   2.842   2.514 -1.1299 -0.6043  0.2475
 8524TIP3    H146987   1.931   2.862   2.602  0.1967 -0.9659  0.8097
 8524TIP3    H246988   2.053   2.818   2.525 -1.3002 -2.0295 -1.0348
 8525TIP3   OH246989   1.231   2.604   2.654 -0.1750 -0.4286 -0.2398
 8525TIP3    H146990   1.217   2.552   2.574 -1.8569  0.5889 -0.6555
 8525TIP3    H246991   1.264   2.688   2.621 -1.2450  0.1312  0.0791
 8526TIP3   OH246992   5.297   4.847   4.720  0.6761  0.1410  0.4038
 8526TIP3    H146993   5.212   4.807   4.739 -0.7352  2.5335 -0.4114
 8526TIP3    H246994   5.307   4.838   4.625  2.4294 -2.0025  0.7135
 8527TIP3   OH246995   0.076   1.101  11.120 -0.0935 -0.2851  0.2657
 8527TIP3    H146996  -0.013   1.094  11.085 -0.6769  2.7706  0.8221
 8527TIP3    H246997   0.132   1.101  11.042 -0.7448 -0.5493 -0.2153
 8528TIP3   OH246998   6.705   1.515   3.395 -0.4179 -0.3305 -0.0577
 8528TIP3    H146999   6.610   1.527   3.392 -0.3997 -0.1782 -0.0111
 8528TIP3    H247000   6.740   1.584   3.339 -0.4519 -1.8207 -2.0799
 8529TIP3   OH247001   6.123   0.513  10.800  0.2830  0.0659 -0.1860
 8529TIP3    H147002   6.102   0.420  10.784  0.1854  0.1355 -0.4716
 8529TIP3    H247003   6.217   0.519  10.786  0.3779 -0.0935  0.3480
 8530TIP3   OH247004   1.605   2.817  15.235  0.4293 -0.6573  0.0892
 8530TIP3    H147005   1.535   2.764  15.273  0.6372 -0.5244  0.6799
 8530TIP3    H247006   1.572   2.907  15.239  1.1604 -0.4201  1.6659
 8531TIP3   OH247007   3.551   6.684   0.815 -0.3874  0.5797 -0.3747
 8531TIP3    H147008   3.479   6.685   0.751  0.2326  0.1895 -1.0940
 8531TIP3    H247009   3.533   6.606   0.869  0.4957 -0.6169 -1.7478
 8532TIP3   OH247010   0.246   6.582  16.393  0.2795  0.1490 -0.7514
 8532TIP3    H147011   0.234   6.538  16.477  0.5008  0.7610 -0.3869
 8532TIP3    H247012   0.204   6.525  16.329 -1.4645  0.5053  0.0036
 8533TIP3   OH247013   0.941   4.384  11.782 -0.2973  0.2035 -0.0187
 8533TIP3    H147014   0.862   4.364  11.732  0.6852  0.1266 -1.6099
 8533TIP3    H247015   0.913   4.381  11.873 -2.6863  2.6076 -0.5524
 8534TIP3   OH247016   0.848   0.815   1.345  0.2640 -0.3787  0.0267
 8534TIP3    H147017   0.931   0.789   1.386 -1.0820  1.2797  4.4959
 8534TIP3    H247018   0.784   0.753   1.380 -0.6239 -0.8762 -2.3483
 8535TIP3   OH247019   5.126   6.469  16.151 -0.1000  0.3164  0.0592
 8535TIP3    H147020   5.145   6.402  16.216 -3.7681  0.3299  1.3933
 8535TIP3    H247021   5.171   6.439  16.072  0.7607 -2.1629  1.3862
 8536TIP3   OH247022   5.561   1.763   1.190  0.5061  0.0368  0.1945
 8536TIP3    H147023   5.543   1.855   1.171 -3.8999 -0.3052  1.6351
 8536TIP3    H247024   5.573   1.760   1.285  1.8101 -0.7851  0.0265
 8537TIP3   OH247025   3.626   3.338   4.367  0.1247  0.1623 -0.0394
 8537TIP3    H147026   3.657   3.419   4.408  1.4707 -0.3301 -0.0245
 8537TIP3    H247027   3.659   3.342   4.277 -1.5318  0.5424 -0.6627
 8538TIP3   OH247028   5.777   6.462  16.078  0.4132 -0.7764  0.4559
 8538TIP3    H147029   5.833   6.540  16.072  0.0812 -0.4364  1.5243
 8538TIP3    H247030   5.692   6.495  16.106 -0.5527 -1.2150 -1.8119
 8539TIP3   OH247031   1.628   2.442  13.473  0.3681  0.0860  0.2749
 8539TIP3    H147032   1.575   2.515  13.504 -1.5848 -1.2478  0.2993
 8539TIP3    H247033   1.717   2.477  13.468 -0.5923  2.6642 -0.4687
 8540TIP3   OH247034   5.637   6.750   0.200  0.4108 -0.2120  0.1343
 8540TIP3    H147035   5.693   6.779   0.272  0.9495 -0.3437 -0.2275
 8540TIP3    H247036   5.689   6.766   0.121 -0.4472  0.6066 -0.2836
 8541TIP3   OH247037   5.859   5.708  13.783  0.0872  0.3718 -0.0683
 8541TIP3    H147038   5.772   5.691  13.820  1.0772 -1.0471  1.7445
 8541TIP3    H247039   5.913   5.732  13.857  1.3574  0.9400 -1.1329
 8542TIP3   OH247040   0.059   3.173   6.791 -0.4011 -0.3484 -0.2554
 8542TIP3    H147041   0.032   3.094   6.744  0.6382  0.0617 -1.5975
 8542TIP3    H247042   0.135   3.205   6.743  0.5771  0.2400  1.5895
 8543TIP3   OH247043   3.865   3.684   4.961  0.0823  0.2424 -0.0999
 8543TIP3    H147044   3.890   3.696   4.869 -0.2476 -1.6432 -0.4747
 8543TIP3    H247045   3.887   3.767   5.003  4.4481 -0.2254 -0.9497
 8544TIP3   OH247046   3.117   2.695   1.135 -0.3101 -0.2726 -0.3303
 8544TIP3    H147047   3.197   2.672   1.088  0.7852  2.1389  0.1979
 8544TIP3    H247048   3.129   2.787   1.160 -2.9893 -0.0029  0.3167
 8545TIP3   OH247049   6.738   1.897  13.597 -0.1326  0.6369 -0.2072
 8545TIP3    H147050   6.812   1.838  13.589 -0.4751  0.0024  1.0276
 8545TIP3    H247051   6.663   1.846  13.567 -0.0631  1.3954 -1.8111
 8546TIP3   OH247052   5.040   4.775   0.747 -0.2771  0.6263 -0.6409
 8546TIP3    H147053   5.092   4.855   0.753  3.4408 -1.5539 -0.7100
 8546TIP3    H247054   5.054   4.731   0.830  0.1635 -1.2253 -1.6422
 8547TIP3   OH247055   2.657   5.404  15.665 -0.5434 -0.0836  0.4553
 8547TIP3    H147056   2.641   5.320  15.708 -0.9519 -0.3421 -0.1936
 8547TIP3    H247057   2.745   5.396  15.628 -0.1475  0.1770  1.3084
 8548TIP3   OH247058   5.475   4.150  15.476 -0.4875 -0.8000 -0.3695
 8548TIP3    H147059   5.455   4.087  15.546  1.5530  0.3063  1.3040
 8548TIP3    H247060   5.569   4.166  15.483 -0.5192  0.6444 -2.3082
 8549TIP3   OH247061   6.692   1.316  15.280 -0.2203 -0.0359  0.0828
 8549TIP3    H147062   6.649   1.272  15.206  0.2771  0.0662 -0.2724
 8549TIP3    H247063   6.676   1.259  15.355 -0.2915 -0.4002 -0.2066
 8550TIP3   OH247064   0.679   0.627   1.493  0.0006  0.0790  0.1917
 8550TIP3    H147065   0.673   0.559   1.560 -0.3964 -0.5648 -0.4786
 8550TIP3    H247066   0.627   0.594   1.420  0.6007  0.6657 -0.5278
 8551TIP3   OH247067   3.242   4.379  15.473  0.0589  0.1701 -0.2169
 8551TIP3    H147068   3.267   4.288  15.485 -0.9235 -0.1063 -0.1345
 8551TIP3    H247069   3.320   4.422  15.438  0.1185 -0.9856 -1.5658
 8552TIP3   OH247070   3.822   3.852  14.115 -0.2402  0.4552 -0.1500
 8552TIP3    H147071   3.802   3.892  14.199  1.5333  0.0731  0.5197
 8552TIP3    H247072   3.769   3.899  14.052 -0.7436  1.5426  1.0404
 8553TIP3   OH247073   2.769   6.405   3.249 -0.0150 -0.0148  0.2936
 8553TIP3    H147074   2.795   6.400   3.157  0.0925  2.9633  0.0516
 8553TIP3    H247075   2.683   6.363   3.252  0.6671 -1.5862 -0.8009
 8554TIP3   OH247076   5.178   4.105  13.213  0.3259 -0.0891 -0.2001
 8554TIP3    H147077   5.148   4.015  13.225  0.8610 -0.5268 -1.8572
 8554TIP3    H247078   5.273   4.101  13.224  0.3909  0.1934 -0.6027
 8555TIP3   OH247079   6.408   2.317   5.789 -0.5619 -0.0719  0.2173
 8555TIP3    H147080   6.387   2.409   5.778  0.3456 -0.0005 -1.2124
 8555TIP3    H247081   6.445   2.311   5.877  0.3393  1.1433 -0.0507
 8556TIP3   OH247082   6.524   6.040  13.142  0.2630  0.2277 -0.8669
 8556TIP3    H147083   6.459   6.047  13.073 -1.9997 -2.3238  0.7921
 8556TIP3    H247084   6.563   5.953  13.130  1.0937  0.4518  0.0508
 8557TIP3   OH247085   5.626   5.532  13.126  0.2399 -0.0316  0.5294
 8557TIP3    H147086   5.546   5.571  13.159 -0.8527 -1.1658 -0.6544
 8557TIP3    H247087   5.696   5.588  13.159 -0.9688  0.5353  2.2453
 8558TIP3   OH247088   2.141   4.317   3.364  0.0107 -0.0602 -0.1788
 8558TIP3    H147089   2.138   4.231   3.407 -0.1734 -0.3199 -0.6999
 8558TIP3    H247090   2.208   4.366   3.413 -0.5633 -0.1607  0.7266
 8559TIP3   OH247091   5.244   6.577   4.820  0.1197  0.2886 -0.7180
 8559TIP3    H147092   5.154   6.598   4.798  0.4079  0.6072 -1.6167
 8559TIP3    H247093   5.292   6.586   4.738  1.5784  3.4712  0.2919
 8560TIP3   OH247094   4.977   0.812  12.582 -0.2551  0.1526 -0.0207
 8560TIP3    H147095   4.906   0.760  12.619 -0.4457 -0.7086 -1.5089
 8560TIP3    H247096   5.032   0.749  12.537  0.6424  1.0063 -0.1573
 8561TIP3   OH247097   0.040   1.275  16.868 -0.1076  0.1798 -0.0164
 8561TIP3    H147098  -0.027   1.330  16.827 -2.2109 -0.9753  1.6457
 8561TIP3    H247099   0.090   1.334  16.923  0.0046  0.9921 -0.9645
 8562TIP3   OH247100   4.593   5.153   2.104 -0.5904  0.2350 -0.2221
 8562TIP3    H147101   4.515   5.201   2.077 -0.2181 -0.7513 -3.4423
 8562TIP3    H247102   4.661   5.220   2.114 -0.5866  0.6844 -2.6584
 8563TIP3   OH247103   2.497   6.570   4.533  0.0938  0.1698 -0.6397
 8563TIP3    H147104   2.473   6.539   4.446  1.4444 -3.0323 -0.0185
 8563TIP3    H247105   2.570   6.630   4.517 -2.1939  2.8318 -1.8685
 8564TIP3   OH247106   1.504   1.776  14.392 -0.9086  0.2818 -0.2172
 8564TIP3    H147107   1.539   1.700  14.346  1.0482  1.6836 -1.1542
 8564TIP3    H247108   1.413   1.782  14.363 -0.5348 -0.5686 -1.6448
 8565TIP3   OH247109   6.732   0.397  14.441 -0.6539 -0.2395 -0.3926
 8565TIP3    H147110   6.750   0.430  14.353 -1.1603  1.9947  0.2950
 8565TIP3    H247111   6.813   0.409  14.489 -0.3400 -1.5711 -0.5403
 8566TIP3   OH247112   5.664   3.766  15.439 -0.1232  0.5121  0.1644
 8566TIP3    H147113   5.747   3.728  15.470 -0.2634  1.1125  1.3244
 8566TIP3    H247114   5.619   3.693  15.397  0.0553 -0.3872  1.4601
 8567TIP3   OH247115   5.413   2.149   5.803  0.2658  0.0943  0.6160
 8567TIP3    H147116   5.331   2.196   5.788  0.2446 -0.0320  0.3149
 8567TIP3    H247117   5.460   2.201   5.868  0.0739  0.3212  0.5729
 8568TIP3   OH247118   2.644   6.138  13.050  0.2648  0.5131 -0.4749
 8568TIP3    H147119   2.587   6.163  13.123  0.1583  0.8466 -0.6700
 8568TIP3    H247120   2.730   6.126  13.091  0.2888  1.0673 -0.3451
 8569TIP3   OH247121   3.216   4.495  17.104 -0.5113 -0.6208 -0.0689
 8569TIP3    H147122   3.155   4.474  17.034  0.9495 -1.3001 -1.1907
 8569TIP3    H247123   3.248   4.583  17.084 -0.3117 -0.6975 -0.0887
 8570TIP3   OH247124   5.245   1.245  10.502  0.1336 -0.0884 -0.3014
 8570TIP3    H147125   5.206   1.240  10.415  0.0607  1.4547 -0.3897
 8570TIP3    H247126   5.259   1.339  10.517  2.2389 -0.4468  0.4202
 8571TIP3   OH247127   5.924   0.787   5.912 -0.7733 -0.6408 -0.6651
 8571TIP3    H147128   5.956   0.867   5.870  0.0978 -0.2544  0.6797
 8571TIP3    H247129   5.838   0.811   5.947 -0.7375 -0.4424 -0.7121
 8572TIP3   OH247130   4.694   2.628  11.586  0.4147  0.2512 -0.4120
 8572TIP3    H147131   4.701   2.541  11.547 -1.4694  0.0555 -0.3793
 8572TIP3    H247132   4.758   2.681  11.537  0.8909 -0.9152 -1.0801
 8573TIP3   OH247133   1.244   2.922   1.495  0.1897 -0.3431 -0.2213
 8573TIP3    H147134   1.214   2.882   1.413  0.0692 -0.8594  0.0720
 8573TIP3    H247135   1.164   2.948   1.540  0.2301 -0.5576 -0.0212
 8574TIP3   OH247136   4.105   0.730  13.245 -0.1678 -0.3782  0.7458
 8574TIP3    H147137   4.184   0.769  13.283  0.5110 -0.0413 -0.8931
 8574TIP3    H247138   4.111   0.750  13.151 -2.8356  0.7368  0.7185
 8575TIP3   OH247139   0.295   5.825   4.726 -0.2792  0.0488  0.3548
 8575TIP3    H147140   0.224   5.859   4.781 -0.5694 -1.0982  0.7173
 8575TIP3    H247141   0.318   5.741   4.767  2.4217  1.1211  1.2153
 8576TIP3   OH247142   1.594   5.707  13.741  0.1778  0.3188  0.2626
 8576TIP3    H147143   1.639   5.683  13.822 -0.1594 -0.5099  0.2096
 8576TIP3    H247144   1.604   5.802  13.736 -0.5802  0.5013  1.7456
 8577TIP3   OH247145   3.242   4.892  12.985 -0.3370  0.4298  0.1131
 8577TIP3    H147146   3.325   4.930  13.014 -0.0116 -0.8537  0.9438
 8577TIP3    H247147   3.212   4.951  12.915  1.7119  0.4345 -0.8482
 8578TIP3   OH247148   0.411   5.830  15.666  0.4725 -0.8528 -0.1746
 8578TIP3    H147149   0.476   5.791  15.608  0.1925 -1.1286 -0.3066
 8578TIP3    H247150   0.394   5.916  15.629  0.3003 -1.0249 -0.5034
 8579TIP3   OH247151   0.530   2.294  14.114  0.3524  0.0546  0.0202
 8579TIP3    H147152   0.463   2.284  14.182  0.3853 -3.6974 -0.2967
 8579TIP3    H247153   0.609   2.321  14.161 -0.0888 -0.7147  1.2406
 8580TIP3   OH247154   3.921   6.381   5.676  0.4788  0.0715 -0.3199
 8580TIP3    H147155   3.834   6.375   5.637  0.8969 -1.5471 -1.0915
 8580TIP3    H247156   3.953   6.468   5.652 -0.5096  0.2745 -0.9271
 8581TIP3   OH247157   1.255   1.755   5.433 -0.2707 -0.1400  0.1798
 8581TIP3    H147158   1.269   1.664   5.458 -0.9303 -0.2505  0.1556
 8581TIP3    H247159   1.321   1.771   5.365  0.3432 -0.3695  0.7165
 8582TIP3   OH247160   1.174   4.617   1.566  0.0228  0.7234 -0.1698
 8582TIP3    H147161   1.082   4.620   1.593  0.5238 -2.0719  2.2991
 8582TIP3    H247162   1.190   4.703   1.527 -2.6917  2.6020  2.4368
 8583TIP3   OH247163   4.979   3.555   6.089  0.2831 -0.4758  0.7781
 8583TIP3    H147164   4.997   3.485   6.026 -0.0086  1.2815 -1.4029
 8583TIP3    H247165   4.933   3.622   6.038  0.7748  1.4319  2.6615
 8584TIP3   OH247166   6.175   0.069  12.442  0.0788  0.5740  0.0971
 8584TIP3    H147167   6.095   0.021  12.464 -2.4043  3.6261 -1.4198
 8584TIP3    H247168   6.206   0.029  12.360 -1.6540  1.1428 -0.8793
 8585TIP3   OH247169   4.559   2.582   2.330 -0.2630 -0.6158 -0.4296
 8585TIP3    H147170   4.643   2.600   2.372 -0.3563  0.1032 -0.5384
 8585TIP3    H247171   4.571   2.497   2.288  0.0853 -0.9814  0.3828
 8586TIP3   OH247172   1.244   0.944   0.803  0.2372  0.6966 -0.3820
 8586TIP3    H147173   1.243   0.853   0.831  0.4358 -0.0045 -2.4556
 8586TIP3    H247174   1.282   0.992   0.877  0.1289 -0.8817  0.7445
 8587TIP3   OH247175   3.574   4.950   1.088 -0.0378  0.2401 -0.1508
 8587TIP3    H147176   3.525   4.872   1.061  0.5595  0.6648 -2.7624
 8587TIP3    H247177   3.507   5.010   1.120 -0.9133 -0.2185 -1.0548
 8588TIP3   OH247178   2.376   6.553  16.370 -0.0414  0.1369 -0.0945
 8588TIP3    H147179   2.460   6.510  16.388  0.5630  0.8781 -1.0491
 8588TIP3    H247180   2.321   6.483  16.333  0.8552  0.1025 -1.4234
 8589TIP3   OH247181   6.055   2.715  14.791  0.3633 -0.0080 -0.6092
 8589TIP3    H147182   6.048   2.809  14.807 -2.8505 -0.4574  1.3640
 8589TIP3    H247183   5.979   2.694  14.737 -1.1628 -1.9623  2.1115
 8590TIP3   OH247184   0.414   3.450  15.095  0.3496  0.1185 -0.2102
 8590TIP3    H147185   0.442   3.360  15.077 -0.1183  0.1830 -1.3460
 8590TIP3    H247186   0.412   3.492  15.009 -2.0561  0.4292 -0.0774
 8591TIP3   OH247187   2.331   3.167  15.919  0.2615  0.2307  0.1469
 8591TIP3    H147188   2.407   3.122  15.956  1.1938  1.1938 -0.5310
 8591TIP3    H247189   2.364   3.207  15.839 -1.2205 -0.1754 -0.7144
 8592TIP3   OH247190   1.235   1.608  14.472 -0.6078  0.1180 -0.6016
 8592TIP3    H147191   1.222   1.643  14.384  0.6932 -0.4922 -1.0607
 8592TIP3    H247192   1.308   1.546  14.463 -0.2171  0.3056  0.9600
 8593TIP3   OH247193   0.043   4.813  11.600 -0.1886  0.5541 -0.2345
 8593TIP3    H147194   0.008   4.893  11.561  2.2212  1.7585 -0.1715
 8593TIP3    H247195   0.091   4.771  11.529  0.4826  0.3937  0.3021
 8594TIP3   OH247196   5.451   0.387   4.936  0.4291  0.4022  0.4124
 8594TIP3    H147197   5.533   0.405   4.982  0.9198 -0.9920  0.1199
 8594TIP3    H247198   5.392   0.457   4.964  1.9878  1.9887 -0.1136
 8595TIP3   OH247199   1.723   1.295   5.665 -0.0364  0.1490  0.6352
 8595TIP3    H147200   1.797   1.326   5.612  1.3064 -3.4180  0.1412
 8595TIP3    H247201   1.750   1.208   5.694 -3.5872 -0.7878  1.5179
 8596TIP3   OH247202   5.750   1.404   4.639 -0.3302 -0.3567 -0.0317
 8596TIP3    H147203   5.702   1.401   4.557 -1.8681 -1.8017  0.8832
 8596TIP3    H247204   5.753   1.498   4.661  0.7261  0.1389 -2.0271
 8597TIP3   OH247205   1.152   6.291   2.585  0.1892 -0.0422 -0.3816
 8597TIP3    H147206   1.105   6.374   2.599  2.0524  0.9867  0.0334
 8597TIP3    H247207   1.240   6.318   2.560  1.1304 -1.9146  0.7598
 8598TIP3   OH247208   6.215   1.280   1.237  0.2547 -0.1996 -0.4001
 8598TIP3    H147209   6.243   1.266   1.147 -0.1713  0.2041 -0.5961
 8598TIP3    H247210   6.127   1.316   1.230  0.0284 -0.6187  0.1887
 8599TIP3   OH247211   5.639   1.958   4.311 -0.4592 -0.5719 -0.1987
 8599TIP3    H147212   5.571   1.905   4.354 -1.5453  1.0882  0.2099
 8599TIP3    H247213   5.623   1.947   4.218 -0.8759 -0.7198 -0.1104
 8600TIP3   OH247214   3.551   2.545   3.908  0.3904  0.0136 -0.4423
 8600TIP3    H147215   3.470   2.516   3.866 -0.2096 -0.4869  0.9990
 8600TIP3    H247216   3.546   2.640   3.908 -0.4301 -0.0300  0.0828
 8601TIP3   OH247217   4.179   0.203  14.883  0.2644 -0.1696  0.3021
 8601TIP3    H147218   4.249   0.137  14.883 -0.8405 -1.3808  1.1394
 8601TIP3    H247219   4.204   0.264  14.953 -0.3357 -1.5360  1.7524
 8602TIP3   OH247220   3.644   1.479   1.514 -0.4986 -0.7066 -0.3739
 8602TIP3    H147221   3.605   1.439   1.592  0.5500  1.2785  1.2755
 8602TIP3    H247222   3.730   1.510   1.543 -0.7625  1.6349 -1.8025
 8603TIP3   OH247223   2.283   2.096  11.257 -0.4916 -0.2591  0.2858
 8603TIP3    H147224   2.263   2.085  11.350 -1.1209  1.4168  0.3731
 8603TIP3    H247225   2.343   2.171  11.254 -0.1851 -0.5241 -0.6441
 8604TIP3   OH247226   2.158   4.056  15.370 -0.2839  0.0561 -0.7036
 8604TIP3    H147227   2.217   4.129  15.386 -0.5292 -0.1210  1.2841
 8604TIP3    H247228   2.070   4.095  15.373 -0.6017 -0.5391  2.9226
 8605TIP3   OH247229   6.260   0.350   4.447 -0.7338  0.2336 -0.1176
 8605TIP3    H147230   6.181   0.299   4.465  0.1248 -0.9258  0.5068
 8605TIP3    H247231   6.298   0.366   4.534 -0.3592  0.9097 -0.3997
 8606TIP3   OH247232   1.352   3.521  17.104 -0.2574 -0.0925  0.3014
 8606TIP3    H147233   1.360   3.536  17.198  1.1308 -1.8144  0.5197
 8606TIP3    H247234   1.316   3.602  17.069  1.2314  1.4010  2.0307
 8607TIP3   OH247235   5.181   2.406  10.991  0.0182 -0.0761  0.3837
 8607TIP3    H147236   5.258   2.460  11.009  0.0116  0.0562  0.0259
 8607TIP3    H247237   5.217   2.324  10.958 -0.0098  0.2327 -0.4269
 8608TIP3   OH247238   5.526   3.838  11.943 -0.4030  0.4744 -0.0503
 8608TIP3    H147239   5.522   3.792  11.859  0.6946 -1.1211  0.7246
 8608TIP3    H247240   5.617   3.869  11.949 -0.8938  2.0191 -0.1529
 8609TIP3   OH247241   0.629   0.798   5.322 -0.0477 -0.3785  0.1104
 8609TIP3    H147242   0.642   0.775   5.414 -1.6225  0.8286  0.6941
 8609TIP3    H247243   0.609   0.892   5.324  0.8114 -0.1272 -1.5700
 8610TIP3   OH247244   5.730   0.266  13.449  0.3361 -0.0866  0.2112
 8610TIP3    H147245   5.664   0.260  13.380  0.3704 -0.5266  0.2173
 8610TIP3    H247246   5.794   0.199  13.426  1.4480  1.1649 -0.5106
 8611TIP3   OH247247   2.285   1.119   5.456  0.2853  0.4282 -0.4604
 8611TIP3    H147248   2.240   1.159   5.530  1.6128  0.9633  0.0934
 8611TIP3    H247249   2.218   1.066   5.412 -0.9253  1.4208  0.1488
 8612TIP3   OH247250   1.962   3.746   0.232  0.2101 -0.2870 -0.3075
 8612TIP3    H147251   2.023   3.726   0.161  1.0453 -0.0405  0.3328
 8612TIP3    H247252   1.955   3.842   0.230 -0.5202 -0.3425 -0.6723
 8613TIP3   OH247253   0.839   6.164   4.798 -0.0989 -0.0485 -0.2705
 8613TIP3    H147254   0.908   6.139   4.859  0.3824  1.0142 -0.3729
 8613TIP3    H247255   0.778   6.089   4.800  2.5337 -2.5043 -2.5437
 8614TIP3   OH247256   2.663   3.795   3.119 -0.0779 -0.2272 -0.5072
 8614TIP3    H147257   2.702   3.840   3.045  1.4419  0.5078  0.6914
 8614TIP3    H247258   2.735   3.747   3.160 -0.5608  0.4444  1.2396
 8615TIP3   OH247259   0.723   1.062  10.666 -0.2870  0.1124  0.3118
 8615TIP3    H147260   0.700   1.115  10.742 -2.3474 -3.6242  2.5850
 8615TIP3    H247261   0.659   1.088  10.599 -0.4166  1.3179  0.8752
 8616TIP3   OH247262   3.743   4.982   1.332  0.0801 -0.0172  0.1456
 8616TIP3    H147263   3.735   4.981   1.237 -0.6043  0.9793  0.1815
 8616TIP3    H247264   3.784   5.066   1.352  0.1722 -0.1959  0.7399
 8617TIP3   OH247265   6.767   1.981   1.319 -0.1505  0.2041  0.2978
 8617TIP3    H147266   6.805   2.067   1.335 -0.3522  0.0888  1.4278
 8617TIP3    H247267   6.840   1.929   1.284  0.1244  0.6579  0.1882
 8618TIP3   OH247268   4.655   1.300   2.308 -0.7127  0.1628 -0.1596
 8618TIP3    H147269   4.635   1.313   2.215 -1.5538  0.5547  0.0606
 8618TIP3    H247270   4.627   1.382   2.349  0.9191  0.5504  0.2688
 8619TIP3   OH247271   4.252   0.144   1.619  0.4492  0.1874  0.1319
 8619TIP3    H147272   4.329   0.201   1.618 -0.9251  2.2222  1.3166
 8619TIP3    H247273   4.217   0.149   1.530  1.5100 -0.5533 -0.3461
 8620TIP3   OH247274   3.347   3.302  15.833 -0.1370  0.6049 -0.2969
 8620TIP3    H147275   3.347   3.388  15.875 -0.8154 -0.1689  1.3730
 8620TIP3    H247276   3.355   3.240  15.905  0.7654 -0.7457 -1.5033
 8621TIP3   OH247277   6.156   4.617  11.591  0.1163  0.0643 -0.1993
 8621TIP3    H147278   6.063   4.630  11.571 -0.0065 -0.0740  0.2705
 8621TIP3    H247279   6.162   4.525  11.617  0.5924 -0.2518 -1.3634
 8622TIP3   OH247280   4.083   4.189  13.833 -0.0312 -0.1508  0.0102
 8622TIP3    H147281   4.000   4.183  13.880  0.4423 -3.0863  0.6358
 8622TIP3    H247282   4.130   4.259  13.878 -2.4107  2.2476 -0.9392
 8623TIP3   OH247283   5.296   5.014   2.575  0.2199 -0.1045  0.7531
 8623TIP3    H147284   5.376   5.064   2.559  0.4709 -0.5379  0.6251
 8623TIP3    H247285   5.232   5.051   2.515  0.4203  0.0161  0.6118
 8624TIP3   OH247286   6.209   1.616  11.910  0.4068 -0.0089 -0.2647
 8624TIP3    H147287   6.266   1.688  11.881 -0.9147  0.7706 -1.0312
 8624TIP3    H247288   6.159   1.653  11.983  0.9021 -0.7030  0.4353
 8625TIP3   OH247289   4.126   1.983   1.407  0.4930 -0.9682 -0.3010
 8625TIP3    H147290   4.153   1.902   1.451  1.5121 -2.7372 -3.8488
 8625TIP3    H247291   4.208   2.026   1.385 -0.0445  1.1548  1.5140
 8626TIP3   OH247292   0.589   0.831  11.898  0.5267  0.3808  0.3305
 8626TIP3    H147293   0.563   0.911  11.853  2.5295  0.0276 -1.6206
 8626TIP3    H247294   0.510   0.802  11.944 -0.7762  2.3920 -0.5258
 8627TIP3   OH247295   5.755   6.595   4.260 -0.4291 -0.2814 -0.4162
 8627TIP3    H147296   5.800   6.661   4.207  1.1350 -0.6529  0.3879
 8627TIP3    H247297   5.672   6.582   4.215 -0.2726  1.3432 -1.2755
 8628TIP3   OH247298   5.817   6.705   5.408  0.0829 -0.1191 -0.2452
 8628TIP3    H147299   5.866   6.758   5.345 -0.8897  0.8777 -0.2034
 8628TIP3    H247300   5.743   6.670   5.357 -0.0329 -0.3155  0.0530
 8629TIP3   OH247301   3.939   2.961   2.022  0.5912 -0.5311  0.1809
 8629TIP3    H147302   3.901   2.889   2.072  2.1326 -2.4064 -1.1811
 8629TIP3    H247303   4.009   2.995   2.077 -0.0260 -0.1838  0.7588
 8630TIP3   OH247304   3.958   5.108  11.406 -0.2990  0.0959  0.6334
 8630TIP3    H147305   3.975   5.194  11.444 -0.0248  0.7100 -0.8296
 8630TIP3    H247306   4.010   5.047  11.459  2.1299  1.2429 -0.3141
 8631TIP3   OH247307   5.151   6.251  11.672 -0.0333 -0.2330  0.1762
 8631TIP3    H147308   5.198   6.323  11.630 -0.9083 -0.6229 -1.5794
 8631TIP3    H247309   5.105   6.208  11.600 -1.4982 -1.0544  1.5492
 8632TIP3   OH247310   4.912   0.983   4.630 -0.1687  0.4342  0.0129
 8632TIP3    H147311   4.896   0.972   4.537  0.6939 -1.9005  0.0944
 8632TIP3    H247312   4.825   1.000   4.668 -0.8236 -0.6966 -0.9488
 8633TIP3   OH247313   3.183   5.308  11.265 -0.6356 -0.1788  0.0859
 8633TIP3    H147314   3.160   5.217  11.246  0.2991 -0.4417  0.1727
 8633TIP3    H247315   3.267   5.321  11.220 -1.3096  0.9843 -0.8904
 8634TIP3   OH247316   2.587   1.916  10.722  0.2776 -0.0038 -0.3633
 8634TIP3    H147317   2.652   1.859  10.765 -0.0781 -0.1977 -0.0741
 8634TIP3    H247318   2.603   1.904  10.629 -0.6373 -1.5877 -0.3450
 8635TIP3   OH247319   2.532   0.014   4.232  0.1582  0.3405  0.7668
 8635TIP3    H147320   2.488   0.099   4.242 -0.9961 -0.3527  1.8252
 8635TIP3    H247321   2.514  -0.011   4.141  0.0350  0.9820  0.6103
 8636TIP3   OH247322   5.050   4.051  15.046 -0.5001 -0.3420 -0.3624
 8636TIP3    H147323   5.044   4.022  14.954 -2.3743 -0.9172 -0.0996
 8636TIP3    H247324   5.109   3.987  15.087  0.1604 -0.2229 -1.1020
 8637TIP3   OH247325   6.029   3.269   4.801  0.4455 -0.4920  0.0308
 8637TIP3    H147326   6.034   3.352   4.849  1.2741 -0.2504 -0.4488
 8637TIP3    H247327   6.037   3.201   4.868 -0.2761 -0.1920  0.4310
 8638TIP3   OH247328   2.843   0.881   0.852  0.2265  0.1042 -0.0564
 8638TIP3    H147329   2.926   0.917   0.884 -0.0580 -0.1409  1.0255
 8638TIP3    H247330   2.776   0.938   0.889 -0.1446 -0.5600  0.3318
 8639TIP3   OH247331   4.002   3.506  13.722 -0.8005 -0.0938  0.3612
 8639TIP3    H147332   4.056   3.451  13.780  1.6547  1.3744 -0.3955
 8639TIP3    H247333   4.020   3.595  13.751 -3.6392  0.4670  0.6663
 8640TIP3   OH247334   0.202   6.699   2.482  0.2084 -0.5931 -0.1496
 8640TIP3    H147335   0.154   6.694   2.565  2.2646 -2.9667  1.0549
 8640TIP3    H247336   0.261   6.773   2.493 -0.7901  0.2563 -0.3024
 8641TIP3   OH247337   0.978   0.540   3.547 -0.0155 -0.1339  0.3272
 8641TIP3    H147338   0.895   0.588   3.558  0.2834  0.4171  0.2211
 8641TIP3    H247339   0.960   0.479   3.475 -0.0311  0.6883 -0.3917
 8642TIP3   OH247340   4.069   3.656  15.690  0.2081 -0.1364 -0.3822
 8642TIP3    H147341   4.041   3.639  15.780 -1.3221  0.7286 -0.6737
 8642TIP3    H247342   3.990   3.683  15.645  1.1150  0.2164 -1.8113
 8643TIP3   OH247343   2.652   1.034   2.546 -0.0480 -0.3973 -0.2545
 8643TIP3    H147344   2.621   1.070   2.463  1.2528  0.2960 -0.4604
 8643TIP3    H247345   2.574   0.994   2.585 -1.0411  0.6769 -1.0571
 8644TIP3   OH247346   3.392   0.645   2.329 -0.6956 -0.1141 -0.2416
 8644TIP3    H147347   3.461   0.609   2.273 -0.4806 -2.3203  1.2980
 8644TIP3    H247348   3.315   0.591   2.311 -0.9075 -0.1920  0.8028
 8645TIP3   OH247349   0.476   6.294   5.258 -0.0613 -0.0609 -0.0765
 8645TIP3    H147350   0.536   6.265   5.189  0.0095  3.2488 -1.6152
 8645TIP3    H247351   0.393   6.252   5.236  0.1958  0.1841 -1.7085
 8646TIP3   OH247352   3.060   2.853  14.963  0.1849 -0.2632 -0.4776
 8646TIP3    H147353   3.139   2.907  14.965 -0.0624  0.0876  0.0855
 8646TIP3    H247354   3.017   2.874  14.880  0.0193  0.5132 -0.1999
 8647TIP3   OH247355   2.510   0.594  17.188 -0.1263 -0.1767  0.4287
 8647TIP3    H147356   2.503   0.661  17.256 -0.7334  0.5843 -0.3823
 8647TIP3    H247357   2.452   0.623  17.119 -1.1115 -1.9999  0.4375
 8648TIP3   OH247358   0.377   0.975  15.340  0.2138  0.0890 -0.0330
 8648TIP3    H147359   0.437   1.027  15.286  0.0164 -1.5485 -1.9706
 8648TIP3    H247360   0.297   1.027  15.344  0.9131  1.1653  0.4624
 8649TIP3   OH247361   3.694   5.450  13.501  0.4335  0.6526 -0.2747
 8649TIP3    H147362   3.606   5.487  13.510  0.1281  1.0904 -3.6453
 8649TIP3    H247363   3.679   5.356  13.492  0.4339  0.6119  0.1126
 8650TIP3   OH247364   6.728   5.891  16.814 -0.6341 -0.3605 -0.0639
 8650TIP3    H147365   6.697   5.815  16.864 -1.0756  0.0517  0.2969
 8650TIP3    H247366   6.649   5.937  16.788 -0.3830 -0.3153 -0.7517
 8651TIP3   OH247367   3.156   2.180   4.539  0.4260 -0.3668 -0.1619
 8651TIP3    H147368   3.213   2.104   4.552  0.0551 -0.7870 -0.9697
 8651TIP3    H247369   3.121   2.197   4.627  0.0496 -1.5029 -0.0700
 8652TIP3   OH247370   6.503   1.701   4.136 -0.1185  0.5200 -0.2404
 8652TIP3    H147371   6.422   1.700   4.187 -0.5921  2.3255 -0.8692
 8652TIP3    H247372   6.474   1.685   4.046  0.6244 -1.9479 -0.0996
 8653TIP3   OH247373   4.804   3.194  13.643  0.0386 -0.3738  0.0533
 8653TIP3    H147374   4.728   3.246  13.668  0.5961  0.3345  0.3196
 8653TIP3    H247375   4.878   3.238  13.686  0.3941 -2.0588  1.2389
 8654TIP3   OH247376   3.828   0.934  12.041  0.8129  0.2541 -0.0914
 8654TIP3    H147377   3.783   0.950  11.958 -1.5150 -0.9461  0.8693
 8654TIP3    H247378   3.781   0.987  12.105  1.1281 -0.5782  0.8607
 8655TIP3   OH247379   6.744   4.786  14.011  0.1348  0.3245  0.4130
 8655TIP3    H147380   6.736   4.881  14.000 -0.5117  0.2554  0.2917
 8655TIP3    H247381   6.655   4.752  14.001  0.3101 -0.2659  0.7627
 8656TIP3   OH247382   0.500   5.588  17.239 -0.1457 -0.0260 -0.1765
 8656TIP3    H147383   0.410   5.605  17.265 -0.1795  0.5035 -0.6159
 8656TIP3    H247384   0.543   5.674  17.243  0.4322 -0.3310  0.3877
 8657TIP3   OH247385   1.029   5.138   1.856  0.8099  0.3136  0.1762
 8657TIP3    H147386   1.101   5.194   1.887 -1.3657  2.0511  2.6461
 8657TIP3    H247387   0.958   5.199   1.836 -1.6671 -1.3882  2.8638
 8658TIP3   OH247388   5.064   0.025   5.081 -0.2342 -0.0201 -0.3769
 8658TIP3    H147389   5.155   0.055   5.087  0.2886 -1.1235 -2.0978
 8658TIP3    H247390   5.038   0.045   4.991 -2.6648  2.7449  0.7656
 8659TIP3   OH247391   1.053   2.389   1.891 -0.4024  0.5292  0.0453
 8659TIP3    H147392   1.076   2.479   1.866  1.1613 -0.0374 -0.6613
 8659TIP3    H247393   1.069   2.337   1.812 -1.4686 -0.3729  0.3906
 8660TIP3   OH247394   3.161   3.057   3.822  0.2987  0.3104 -0.4960
 8660TIP3    H147395   3.120   3.137   3.789 -0.6638 -0.6470 -1.7341
 8660TIP3    H247396   3.225   3.034   3.755 -0.9193 -1.0667 -1.2592
 8661TIP3   OH247397   0.840   4.897  14.479  0.5694 -0.0686 -0.0830
 8661TIP3    H147398   0.906   4.964  14.494  0.2583  0.0596  0.7476
 8661TIP3    H247399   0.857   4.830  14.545 -0.4507  0.2176  0.5009
 8662TIP3   OH247400   6.584   4.336  15.600 -0.1157  0.4591 -0.8806
 8662TIP3    H147401   6.547   4.403  15.542 -0.1472  1.1639 -0.0593
 8662TIP3    H247402   6.559   4.253  15.559 -2.5895  0.9038 -0.3727
 8663TIP3   OH247403   3.534   1.186   5.296 -0.1423  0.5902 -0.1135
 8663TIP3    H147404   3.585   1.211   5.373  0.8478  1.2432 -0.9595
 8663TIP3    H247405   3.443   1.204   5.321  0.1137  0.2598  1.0952
 8664TIP3   OH247406   3.845   5.284   5.890 -0.0255 -0.4860 -0.2827
 8664TIP3    H147407   3.752   5.266   5.876 -0.5761  2.2314 -0.6949
 8664TIP3    H247408   3.852   5.305   5.983  0.9889 -4.3559  0.7010
 8665TIP3   OH247409   5.517   1.076  12.170  0.2652  0.4195  0.3559
 8665TIP3    H147410   5.561   1.010  12.223  2.3246 -0.0509 -1.7760
 8665TIP3    H247411   5.585   1.140  12.149 -0.9980  1.7135  0.0404
 8666TIP3   OH247412   4.649   0.969   4.725  0.8531 -0.1194  0.0848
 8666TIP3    H147413   4.578   1.028   4.699  1.3334  0.4928  0.1512
 8666TIP3    H247414   4.641   0.962   4.820  0.9332  0.0155  0.1015
 8667TIP3   OH247415   4.994   0.540  12.702 -0.3206  0.0438  0.2772
 8667TIP3    H147416   4.925   0.539  12.768 -3.0912  1.8765 -2.3424
 8667TIP3    H247417   5.068   0.584  12.745 -0.8200 -1.6440  3.0617
 8668TIP3   OH247418   0.632   0.383   6.098 -0.0242 -0.0737  0.2590
 8668TIP3    H147419   0.571   0.321   6.059 -2.0246  2.9276 -1.7015
 8668TIP3    H247420   0.579   0.436   6.157  0.5866  2.5902 -1.4477
 8669TIP3   OH247421   6.564   2.090  13.982  0.4839 -0.0928  0.4066
 8669TIP3    H147422   6.475   2.101  14.016  0.4847  0.8515  0.1317
 8669TIP3    H247423   6.591   2.178  13.956  1.1855 -0.5004 -0.2976
 8670TIP3   OH247424   4.982   5.218   4.362  0.3217  0.1033 -0.5857
 8670TIP3    H147425   4.951   5.131   4.337  2.5416 -0.5173 -1.3829
 8670TIP3    H247426   4.902   5.267   4.383 -1.0585 -1.7526 -1.2820
 8671TIP3   OH247427   5.570   5.136   1.760  0.2470 -0.0065  0.7781
 8671TIP3    H147428   5.527   5.200   1.704 -0.1179 -0.1294  0.9125
 8671TIP3    H247429   5.559   5.053   1.715  2.1044  0.2164 -0.1979
 8672TIP3   OH247430   5.985   4.597  15.057  0.2489 -0.4019 -0.1687
 8672TIP3    H147431   5.907   4.649  15.039  0.6265 -0.1478 -1.1452
 8672TIP3    H247432   5.954   4.507  15.061 -0.2971 -0.1762  0.8094
 8673TIP3   OH247433   6.552   5.315  13.131 -0.1661 -0.2840  0.1730
 8673TIP3    H147434   6.541   5.294  13.224  1.8685  0.6473  0.6719
 8673TIP3    H247435   6.582   5.233  13.092 -1.1823 -0.7218  0.3004
 8674TIP3   OH247436   0.670   3.094   1.696  0.3750  0.2349  0.1262
 8674TIP3    H147437   0.591   3.146   1.686 -0.8697 -1.3236  1.2319
 8674TIP3    H247438   0.649   3.010   1.654  1.5574 -0.1038  0.1636
 8675TIP3   OH247439   3.750   3.716  13.422 -0.3347 -0.1980  0.4661
 8675TIP3    H147440   3.749   3.736  13.515 -1.2417 -2.0540  0.9168
 8675TIP3    H247441   3.807   3.639  13.415 -1.8990 -1.3473 -0.1680
 8676TIP3   OH247442   4.044   1.529   5.958 -0.0642  0.1449  0.6633
 8676TIP3    H147443   4.046   1.624   5.950  0.5721  0.1444  0.7871
 8676TIP3    H247444   3.999   1.513   6.041  0.9224  0.3726  1.2482
 8677TIP3   OH247445   4.339   2.281  11.218 -0.1655  0.4407 -0.3809
 8677TIP3    H147446   4.401   2.354  11.226  1.6762 -1.1574  0.9660
 8677TIP3    H247447   4.395   2.203  11.214 -2.0822 -1.0899  0.8444
 8678TIP3   OH247448   2.600   0.671   3.701 -0.0591  0.2075 -0.0349
 8678TIP3    H147449   2.607   0.580   3.729 -0.5658 -0.5715 -2.2278
 8678TIP3    H247450   2.506   0.685   3.688  0.1271  0.4974 -1.2450
 8679TIP3   OH247451   1.986   0.212   5.087  0.3628  0.0893  0.0146
 8679TIP3    H147452   1.938   0.293   5.074 -0.5081 -0.6658 -1.6725
 8679TIP3    H247453   2.066   0.222   5.036  0.4918  0.0707  0.2085
 8680TIP3   OH247454   5.366   0.212  17.207 -0.3213 -0.2504 -0.1102
 8680TIP3    H147455   5.384   0.122  17.234  0.8150 -0.8407 -2.5154
 8680TIP3    H247456   5.441   0.262  17.240 -1.2732  0.0019  1.7979
 8681TIP3   OH247457   4.770   6.092   2.387  0.1580 -0.1420  0.4116
 8681TIP3    H147458   4.795   6.008   2.425 -0.2971 -0.2492  0.4806
 8681TIP3    H247459   4.830   6.105   2.314  0.3304 -0.4528  0.4994
 8682TIP3   OH247460   2.551   0.029  12.210  0.2030  0.2707  0.2375
 8682TIP3    H147461   2.616   0.094  12.184  0.0507  0.6947  0.8893
 8682TIP3    H247462   2.596  -0.055  12.201  1.4586  0.6439  2.2912
 8683TIP3   OH247463   2.745   5.835  15.744 -0.2554  0.1837 -0.3387
 8683TIP3    H147464   2.741   5.841  15.839  0.2521 -0.7074 -0.2516
 8683TIP3    H247465   2.723   5.923  15.714  1.2238  0.9338  0.6443
 8684TIP3   OH247466   4.149   2.106   0.920  0.0472  0.1467 -0.0822
 8684TIP3    H147467   4.139   2.094   1.014  0.0830  0.2300 -0.0672
 8684TIP3    H247468   4.243   2.111   0.906  0.0269  0.7900 -0.0359
 8685TIP3   OH247469   4.353   3.745  15.980 -0.3336 -0.6698  0.3436
 8685TIP3    H147470   4.279   3.709  16.028 -0.6819 -0.4845 -0.0458
 8685TIP3    H247471   4.394   3.806  16.042  0.3029 -1.7549  1.0294
 8686TIP3   OH247472   3.910   5.805  12.216 -0.0577  0.2001 -0.2718
 8686TIP3    H147473   3.843   5.872  12.208 -0.3004  0.4545  2.7781
 8686TIP3    H247474   3.864   5.722  12.200 -0.2443  0.5518 -1.7497
 8687TIP3   OH247475   3.308   0.623  12.009  0.1442 -0.0367  0.1664
 8687TIP3    H147476   3.223   0.659  12.036 -0.4788 -2.3825  1.5990
 8687TIP3    H247477   3.369   0.653  12.077 -0.0099 -0.1915  0.3756
 8688TIP3   OH247478   1.100   2.733   1.787 -0.3095 -0.0222  0.3500
 8688TIP3    H147479   1.168   2.780   1.836 -0.3108  0.1095  0.2252
 8688TIP3    H247480   1.022   2.741   1.842 -0.7650  1.6365 -0.4875
 8689TIP3   OH247481   6.442   1.644  14.526 -0.3215  0.0034  0.4855
 8689TIP3    H147482   6.397   1.560  14.531  1.4213 -0.9330  2.5563
 8689TIP3    H247483   6.502   1.643  14.601  1.9050  1.8361 -1.1157
 8690TIP3   OH247484   5.110   4.342  13.823 -0.0792  0.9909 -0.3906
 8690TIP3    H147485   5.122   4.319  13.915  0.9220 -0.0183 -0.7531
 8690TIP3    H247486   5.022   4.310  13.802  0.4038 -0.5109 -0.2609
 8691TIP3   OH247487   5.017   3.724   4.345  0.4339 -0.2911  0.2833
 8691TIP3    H147488   5.099   3.694   4.306  0.1350 -1.7979  0.7402
 8691TIP3    H247489   4.959   3.739   4.270  1.1072  0.7708 -0.0393
 8692TIP3   OH247490   3.825   1.573   3.021 -0.3569  0.4980  0.0564
 8692TIP3    H147491   3.864   1.636   3.082  1.4749  1.0306 -1.5767
 8692TIP3    H247492   3.753   1.534   3.071  2.3475 -0.7762  3.4324
 8693TIP3   OH247493   5.922   3.203  15.147  0.0160  0.6079  0.2251
 8693TIP3    H147494   5.911   3.297  15.129  0.8074  0.8357  0.8847
 8693TIP3    H247495   6.014   3.194  15.171  0.2859 -0.5709 -1.1385
 8694TIP3   OH247496   5.810   1.319   3.451 -0.0485 -0.2023  1.1005
 8694TIP3    H147497   5.757   1.333   3.530  2.0709  1.6877  2.2852
 8694TIP3    H247498   5.900   1.334   3.479  1.1359 -2.6993 -0.9857
 8695TIP3   OH247499   0.576   2.961  11.915  0.3741 -0.9578  0.2054
 8695TIP3    H147500   0.671   2.954  11.899  0.5349 -0.5495  0.9369
 8695TIP3    H247501   0.553   3.047  11.880  0.6908 -0.1432  1.9195
 8696TIP3   OH247502   1.495   6.158  15.973 -0.0208 -0.2117  0.1769
 8696TIP3    H147503   1.421   6.159  16.034 -0.3289  1.8262 -0.1691
 8696TIP3    H247504   1.544   6.237  15.994  1.2035 -0.7223 -0.6563
 8697TIP3   OH247505   3.431   2.668  12.728  0.2027  0.2142 -0.2966
 8697TIP3    H147506   3.515   2.668  12.773 -0.0286  0.7420  0.1370
 8697TIP3    H247507   3.429   2.584  12.681  1.3767  0.5919 -1.0764
 8698TIP3   OH247508   3.500   6.290   1.396  0.4405  0.1853 -0.2493
 8698TIP3    H147509   3.430   6.251   1.447 -1.4089  3.0226 -0.3882
 8698TIP3    H247510   3.458   6.320   1.315  2.6264 -1.3000 -2.0633
 8699TIP3   OH247511   5.652   6.433  17.074  0.3105 -0.1392  0.4692
 8699TIP3    H147512   5.581   6.383  17.033 -0.4079  1.6266 -0.5312
 8699TIP3    H247513   5.726   6.372  17.076 -0.4740 -1.1943 -0.8517
 8700TIP3   OH247514   6.037   4.496   5.732  0.3585 -0.4373 -0.1426
 8700TIP3    H147515   6.131   4.492   5.713  0.1213 -3.3181 -1.1134
 8700TIP3    H247516   6.032   4.486   5.827  1.0530  1.8580  0.2017
 8701TIP3   OH247517   4.501   4.695  11.980 -0.4203 -0.5508 -0.4138
 8701TIP3    H147518   4.425   4.652  12.021  0.2453 -1.1608  0.2086
 8701TIP3    H247519   4.573   4.634  11.994  0.5103  0.6743  0.3156
 8702TIP3   OH247520   0.245   0.311   3.620 -0.0343 -0.8225  0.3493
 8702TIP3    H147521   0.280   0.299   3.708 -0.2792 -0.8863  0.4402
 8702TIP3    H247522   0.222   0.223   3.591  1.5377 -1.0102 -0.4195
 8703TIP3   OH247523   2.776   2.001  16.641  0.0485  0.3599  0.2547
 8703TIP3    H147524   2.802   2.045  16.722 -0.7452 -1.2374  1.4506
 8703TIP3    H247525   2.772   1.908  16.665 -1.0903 -0.0631 -1.3897
 8704TIP3   OH247526   6.487   1.271  16.625 -0.8156 -0.0320 -0.2840
 8704TIP3    H147527   6.465   1.178  16.616 -0.4360  0.0386 -2.3679
 8704TIP3    H247528   6.407   1.317  16.601 -0.8151  0.1921  0.1343
 8705TIP3   OH247529   5.411   6.116  15.392  0.6764 -0.0040 -0.8297
 8705TIP3    H147530   5.500   6.134  15.362  0.5945  1.0099 -0.5090
 8705TIP3    H247531   5.371   6.203  15.402  0.1724 -0.3661  0.5914
 8706TIP3   OH247532   4.860   1.123  13.357 -0.0071  0.5276 -0.2887
 8706TIP3    H147533   4.808   1.042  13.356 -0.6801  0.9546 -1.3363
 8706TIP3    H247534   4.921   1.111  13.430  0.6252 -1.3745 -1.0532
 8707TIP3   OH247535   0.771   4.287   2.032  0.0297  0.3559  0.4805
 8707TIP3    H147536   0.702   4.232   2.071  1.0258 -0.4533  1.1434
 8707TIP3    H247537   0.803   4.340   2.105  0.5490  0.2724  0.3131
 8708TIP3   OH247538   2.780   4.025   1.434  0.2396 -0.0690 -0.0509
 8708TIP3    H147539   2.826   3.978   1.364  0.5578  2.7462 -1.8894
 8708TIP3    H247540   2.687   4.010   1.415  0.3319 -0.3410 -0.3091
 8709TIP3   OH247541   0.831   3.522   5.584  0.0887 -0.8477 -0.7390
 8709TIP3    H147542   0.794   3.580   5.517  0.1473  0.1354  0.0417
 8709TIP3    H247543   0.844   3.580   5.660  2.4826 -1.3136 -0.7270
 8710TIP3   OH247544   3.036   6.568  11.234  0.7913  0.2707  0.5011
 8710TIP3    H147545   3.044   6.538  11.144 -0.1700 -0.7037  0.7267
 8710TIP3    H247546   3.082   6.652  11.235 -1.6546  1.8150 -1.6324
 8711TIP3   OH247547   2.844   0.815   5.847 -0.4309 -0.1422  0.8835
 8711TIP3    H147548   2.891   0.897   5.837  0.2283 -0.8194 -3.0496
 8711TIP3    H247549   2.910   0.752   5.875  0.7177 -0.5854 -2.3965
 8712TIP3   OH247550   5.591   1.907  17.158  0.6456  0.0478  0.1141
 8712TIP3    H147551   5.561   1.867  17.240 -1.7566  1.0423 -0.1919
 8712TIP3    H247552   5.556   1.996  17.160  0.3248  0.0331 -2.0743
 8713TIP3   OH247553   6.589   1.480  11.864  0.2720  0.2616  0.3132
 8713TIP3    H147554   6.536   1.422  11.809 -0.1869  0.8002  0.1781
 8713TIP3    H247555   6.673   1.484  11.819  0.7919 -1.4209  1.0701
 8714TIP3   OH247556   2.262   4.545   1.895  0.1570  0.0344  0.9717
 8714TIP3    H147557   2.208   4.602   1.840 -1.3773 -1.8440  0.4398
 8714TIP3    H247558   2.329   4.511   1.836  0.7309  0.8176  1.1579
 8715TIP3   OH247559   4.462   1.421  17.243  0.5246 -0.2798  0.6872
 8715TIP3    H147560   4.416   1.351  17.291  1.4120 -0.7857  0.8345
 8715TIP3    H247561   4.500   1.475  17.312  1.2468 -0.6263  0.5695
 8716TIP3   OH247562   5.543   3.162   0.612 -0.1311 -0.0447  0.1062
 8716TIP3    H147563   5.554   3.124   0.525 -1.2107 -0.9473  0.3377
 8716TIP3    H247564   5.565   3.254   0.601 -2.0388  0.2779 -1.5737
 8717TIP3   OH247565   4.814   2.360   0.635  0.1207  0.6910  0.1004
 8717TIP3    H147566   4.855   2.341   0.720  0.0999  1.8465  0.3871
 8717TIP3    H247567   4.737   2.303   0.632  0.9284 -0.4532  0.1908
 8718TIP3   OH247568   3.225   4.960  13.687  0.5067 -0.0878 -0.5585
 8718TIP3    H147569   3.295   4.959  13.753  1.5737 -1.8208 -1.6447
 8718TIP3    H247570   3.271   4.968  13.604 -0.6460 -0.6229 -1.2662
 8719TIP3   OH247571   4.035   3.992  13.637 -0.4525 -0.5159 -0.2946
 8719TIP3    H147572   4.121   3.981  13.597  0.1548  0.5411  0.6741
 8719TIP3    H247573   4.050   3.982  13.731 -1.0058  1.5139  0.0646
 8720TIP3   OH247574   2.871   3.254  14.460  0.7045 -0.1538 -0.1853
 8720TIP3    H147575   2.854   3.160  14.456  0.4666 -0.1955  1.3575
 8720TIP3    H247576   2.959   3.261  14.497  0.3679  0.2298  0.5744
 8721TIP3   OH247577   2.943   0.973  16.936 -0.6589  0.0430 -0.2736
 8721TIP3    H147578   2.944   1.041  16.869  1.4335 -0.1149 -0.4705
 8721TIP3    H247579   3.035   0.963  16.962 -1.0999 -1.6434  0.8340
 8722TIP3   OH247580   2.817   3.256   3.414  0.3231  0.2654  0.6187
 8722TIP3    H147581   2.788   3.331   3.361 -1.7208 -1.7781 -1.3817
 8722TIP3    H247582   2.756   3.255   3.488  0.0318  0.3008  0.3832
 8723TIP3   OH247583   0.062   4.056  15.370 -0.7924  0.0007 -0.3056
 8723TIP3    H147584   0.024   4.023  15.289 -0.1193  0.6657 -0.9122
 8723TIP3    H247585   0.118   3.985  15.401 -0.9128 -0.1899 -0.5242
 8724TIP3   OH247586   2.402   2.458   5.561  0.1801 -0.2697  0.2250
 8724TIP3    H147587   2.481   2.489   5.606 -0.2128  0.3476  0.4985
 8724TIP3    H247588   2.332   2.467   5.626 -0.3290  0.2896 -0.3811
 8725TIP3   OH247589   4.630   1.290   3.282 -0.3428 -0.1286  0.1170
 8725TIP3    H147590   4.569   1.272   3.354  0.6108 -1.0675  0.7175
 8725TIP3    H247591   4.704   1.334   3.323  0.5662 -1.3746 -0.1070
 8726TIP3   OH247592   1.461   0.154  16.361  0.1236  0.0626  0.0463
 8726TIP3    H147593   1.485   0.078  16.308  2.0452  0.5387  0.1650
 8726TIP3    H247594   1.544   0.200  16.377 -0.6498  0.9248  1.9269
 8727TIP3   OH247595   1.974   1.415  14.427  0.4075 -0.1117  0.7816
 8727TIP3    H147596   1.997   1.390  14.516 -0.2093 -0.5280  0.8325
 8727TIP3    H247597   1.998   1.508  14.421  1.0443 -0.2424  1.1684
 8728TIP3   OH247598   0.090   6.470   5.624  0.2601  0.9049  0.1169
 8728TIP3    H147599   0.170   6.482   5.676 -0.3388  1.0672  1.0126
 8728TIP3    H247600   0.121   6.471   5.533  1.0043  3.4125  0.3145
 8729TIP3   OH247601   0.926   0.408   3.314 -0.0637  0.8589  0.0786
 8729TIP3    H147602   0.987   0.356   3.262 -0.2358  0.8207 -0.0865
 8729TIP3    H247603   0.866   0.446   3.250 -0.1657  0.9599  0.2324
 8730TIP3   OH247604   6.369   3.000   4.136  0.1101 -0.3082 -0.3280
 8730TIP3    H147605   6.445   2.942   4.135  0.2040 -0.2081  0.4130
 8730TIP3    H247606   6.391   3.069   4.074  2.5887  2.1517  2.9444
 8731TIP3   OH247607   0.220   5.174   4.541  0.7058  0.2035  0.1006
 8731TIP3    H147608   0.144   5.227   4.517 -1.2520 -1.9839  1.1034
 8731TIP3    H247609   0.237   5.119   4.465  1.5007  0.8371 -0.2061
 8732TIP3   OH247610   4.703   3.579   4.838  0.0052 -0.0847 -0.1007
 8732TIP3    H147611   4.712   3.544   4.749  0.0006 -1.3500  0.3865
 8732TIP3    H247612   4.765   3.652   4.841  0.9912 -0.8781 -0.7173
 8733TIP3   OH247613   1.833   2.869  14.638  0.0762  0.1992  0.1478
 8733TIP3    H147614   1.909   2.904  14.591  0.5320 -0.4988  0.3612
 8733TIP3    H247615   1.836   2.912  14.724 -0.1770  0.6988 -0.0843
 8734TIP3   OH247616   2.693   1.763  14.568  0.1251 -0.0777  0.0647
 8734TIP3    H147617   2.599   1.779  14.554  0.1780  1.1962  1.0511
 8734TIP3    H247618   2.697   1.669  14.590 -0.5957 -0.7706 -2.4013
 8735TIP3   OH247619   5.974   6.523  10.773 -0.0313  0.5951 -0.1428
 8735TIP3    H147620   5.969   6.431  10.800 -0.1848  0.3185 -1.0922
 8735TIP3    H247621   5.940   6.572  10.849 -0.8721 -0.1938  0.0108
 8736TIP3   OH247622   1.753   1.944  12.253  1.0777 -0.2198 -0.0838
 8736TIP3    H147623   1.711   1.943  12.167  1.9593  1.9606 -0.5977
 8736TIP3    H247624   1.684   1.967  12.314  0.0146 -3.5106  0.1612
 8737TIP3   OH247625   6.771   5.128  12.362 -0.8898 -0.5340 -0.2825
 8737TIP3    H147626   6.833   5.100  12.429  1.2287  2.3491 -0.8178
 8737TIP3    H247627   6.697   5.165  12.410  1.2874  2.9845  0.7736
 8738TIP3   OH247628   6.201   3.517   4.117  0.6090 -0.6257  0.1120
 8738TIP3    H147629   6.245   3.545   4.037 -1.3576  1.0752 -0.4477
 8738TIP3    H247630   6.154   3.594   4.148 -0.4114 -1.8177  1.7454
 8739TIP3   OH247631   2.053   5.921   4.197  0.2957 -0.2137 -0.0666
 8739TIP3    H147632   2.126   5.934   4.258 -0.8428  0.5572  1.1932
 8739TIP3    H247633   1.987   5.875   4.249  0.0924 -1.4733 -1.3638
 8740TIP3   OH247634   6.366   4.740   0.337 -0.0910  0.6039  0.0196
 8740TIP3    H147635   6.460   4.730   0.350  0.1293  1.5149 -0.8406
 8740TIP3    H247636   6.336   4.785   0.416 -0.0173 -0.7559  0.8499
 8741TIP3   OH247637   0.103   2.926   2.758 -0.3203  0.5215 -0.8733
 8741TIP3    H147638   0.051   2.846   2.769  1.6873 -0.6043  1.3130
 8741TIP3    H247639   0.074   2.962   2.675 -2.2517 -1.7633 -1.2957
 8742TIP3   OH247640   6.506   5.141   3.472  1.0136 -0.5965 -0.0040
 8742TIP3    H147641   6.561   5.076   3.428  0.9227 -1.4505  1.0866
 8742TIP3    H247642   6.418   5.103   3.472  0.7723 -0.0452 -0.1793
 8743TIP3   OH247643   0.573   5.801   1.039 -0.0345 -0.1447 -0.0932
 8743TIP3    H147644   0.620   5.726   1.076 -0.7746 -1.0777 -0.9763
 8743TIP3    H247645   0.638   5.846   0.986  0.6620  0.3973  1.1800
 8744TIP3   OH247646   0.703   1.214   4.795  0.8245  0.0808  1.2820
 8744TIP3    H147647   0.628   1.267   4.822  0.0448 -0.7579  0.8097
 8744TIP3    H247648   0.754   1.203   4.875 -0.3246 -0.5484  1.9629
 8745TIP3   OH247649   4.636   4.898  12.161  0.3366 -0.2576  0.4104
 8745TIP3    H147650   4.717   4.909  12.111  0.3252  1.8219  0.7935
 8745TIP3    H247651   4.642   4.961  12.232 -2.3282  1.1314 -0.4729
 8746TIP3   OH247652   6.103   5.055  12.842  0.5222  0.3424  0.1604
 8746TIP3    H147653   6.118   5.005  12.923  2.3354  0.5913  0.0251
 8746TIP3    H247654   6.070   4.990  12.780 -1.6306  0.2874  1.2502
 8747TIP3   OH247655   3.117   1.173   1.796  0.3830  0.5299  0.0084
 8747TIP3    H147656   3.056   1.160   1.723  0.1840 -0.8906  0.3961
 8747TIP3    H247657   3.203   1.176   1.755  0.2233  0.3979 -0.3450
 8748TIP3   OH247658   2.644   3.290   4.817 -0.3384 -0.2385 -0.1843
 8748TIP3    H147659   2.575   3.323   4.874 -0.1009  0.8079 -0.4947
 8748TIP3    H247660   2.610   3.302   4.728  0.3669  0.5903 -0.3508
 8749TIP3   OH247661   2.733   1.758  15.115  0.1824  0.1571  0.6904
 8749TIP3    H147662   2.692   1.838  15.082  1.0619  0.2714 -0.1844
 8749TIP3    H247663   2.689   1.687  15.069  0.9263  0.2792 -0.2481
 8750TIP3   OH247664   0.467   1.315  13.596  0.1715  0.2823  0.2668
 8750TIP3    H147665   0.548   1.285  13.636 -0.0708  1.1343  1.4400
 8750TIP3    H247666   0.403   1.314  13.667 -0.1049  2.5227  0.1007
 8751TIP3   OH247667   2.608   0.259   0.194 -0.1468  0.0082 -0.9134
 8751TIP3    H147668   2.533   0.296   0.148 -1.7407 -1.6275  0.2357
 8751TIP3    H247669   2.587   0.270   0.287  1.8440  1.0100 -0.5289
 8752TIP3   OH247670   3.775   6.657  13.984 -0.1197  0.3945  0.4131
 8752TIP3    H147671   3.696   6.709  14.001 -0.2338  0.5573 -0.5363
 8752TIP3    H247672   3.766   6.580  14.040  0.4743  1.7659  2.5372
 8753TIP3   OH247673   6.316   6.430  12.078  0.3215 -0.5362  0.4069
 8753TIP3    H147674   6.393   6.446  12.133 -0.1558  2.5686  0.3363
 8753TIP3    H247675   6.339   6.468  11.993 -0.0930 -2.5638 -0.6611
 8754TIP3   OH247676   3.499   0.444   5.499  0.2422  0.0254  0.2052
 8754TIP3    H147677   3.563   0.379   5.530 -1.3795 -1.2739  0.9945
 8754TIP3    H247678   3.447   0.465   5.577 -0.8267  0.4249 -0.5964
 8755TIP3   OH247679   3.232   3.918   4.475  0.4474 -0.3993  0.0588
 8755TIP3    H147680   3.211   3.827   4.493  0.1022 -0.7361 -1.8211
 8755TIP3    H247681   3.252   3.920   4.382  0.8719  1.3760  0.1477
 8756TIP3   OH247682   6.466   3.954   2.414 -0.2781  0.5198 -0.0412
 8756TIP3    H147683   6.421   3.874   2.439 -0.3485  0.5379 -0.1091
 8756TIP3    H247684   6.415   4.025   2.452 -0.1404  0.5262  0.1312
 8757TIP3   OH247685   0.706   1.746  12.908  0.6336  0.0063  0.0792
 8757TIP3    H147686   0.793   1.712  12.930  0.5234 -0.8317 -0.7209
 8757TIP3    H247687   0.723   1.829  12.863  1.0577 -0.4280 -0.5745
 8758TIP3   OH247688   1.857   4.080   1.910 -0.4046  0.0277  0.0992
 8758TIP3    H147689   1.770   4.119   1.921  0.1559  1.3031  0.1635
 8758TIP3    H247690   1.910   4.150   1.874  1.4769  0.3992  3.2437
 8759TIP3   OH247691   6.738   3.763   1.699 -0.3219  0.0387  0.1281
 8759TIP3    H147692   6.643   3.750   1.702 -0.4804  0.9830 -0.3187
 8759TIP3    H247693   6.763   3.776   1.791 -0.7471  0.5003  0.1879
 8760TIP3   OH247694   3.036   6.281   3.238 -0.0644  0.9426  0.6947
 8760TIP3    H147695   3.092   6.323   3.303  1.6582  0.3954 -0.3755
 8760TIP3    H247696   2.973   6.230   3.290  1.7340 -0.0950  1.9448
 8761TIP3   OH247697   6.256   3.143   3.647  0.0570  0.0948 -0.0157
 8761TIP3    H147698   6.254   3.163   3.553  0.8437 -1.1231 -0.3155
 8761TIP3    H247699   6.170   3.104   3.665 -0.0353  0.1872 -0.2524
 8762TIP3   OH247700   0.970   3.848  16.054  0.1608 -0.1832 -0.8031
 8762TIP3    H147701   0.998   3.938  16.040 -0.5929 -0.0247 -1.3321
 8762TIP3    H247702   1.042   3.795  16.020  0.5652  0.2162 -0.5717
 8763TIP3   OH247703   5.409   5.376   1.053 -0.1574 -0.0472  0.1293
 8763TIP3    H147704   5.346   5.318   1.096 -2.4354  0.5254 -2.1617
 8763TIP3    H247705   5.440   5.433   1.123 -1.6939 -0.7988  1.5089
 8764TIP3   OH247706   4.332   2.069   3.965  0.1176 -0.3775 -0.2173
 8764TIP3    H147707   4.351   2.142   3.905  0.5810  0.0952  0.4905
 8764TIP3    H247708   4.406   2.010   3.954 -0.3741 -0.8748 -0.9677
 8765TIP3   OH247709   0.737   5.853   1.814 -0.3437  0.4869  0.7062
 8765TIP3    H147710   0.685   5.933   1.808 -1.3372 -0.0370  1.8133
 8765TIP3    H247711   0.801   5.860   1.743 -1.6063  1.4026 -0.3993
 8766TIP3   OH247712   2.426   4.731  15.873  0.5760 -0.1222  0.3904
 8766TIP3    H147713   2.495   4.789  15.905  0.5529 -0.5422  1.2486
 8766TIP3    H247714   2.344   4.775  15.896  0.5274 -1.0737  2.3187
 8767TIP3   OH247715   0.742   0.189  15.001  0.1813 -0.2468  0.3428
 8767TIP3    H147716   0.661   0.209  15.046  1.3208  2.3515  1.4450
 8767TIP3    H247717   0.771   0.272  14.964  3.0915 -0.6954  1.3255
 8768TIP3   OH247718   2.023   1.448   4.087  0.1867 -0.1953 -0.1578
 8768TIP3    H147719   1.960   1.517   4.107  0.1999 -0.8355  2.4747
 8768TIP3    H247720   1.972   1.367   4.087  0.7956 -0.6024  0.9355
 8769TIP3   OH247721   0.806   6.153  14.116 -0.2791 -0.3474  0.0381
 8769TIP3    H147722   0.806   6.066  14.076 -2.5026  0.0206 -0.8927
 8769TIP3    H247723   0.782   6.212  14.045 -1.1962  0.7132  1.1891
 8770TIP3   OH247724   5.889   2.485  12.256 -0.2618  0.7520 -0.0295
 8770TIP3    H147725   5.838   2.537  12.194  0.0285 -0.3660 -1.2361
 8770TIP3    H247726   5.978   2.484  12.219  0.0457  0.5216  0.6904
 8771TIP3   OH247727   2.095   0.382  12.642  0.0635 -0.4571  0.1249
 8771TIP3    H147728   2.136   0.310  12.690 -0.7640 -1.4426 -0.6127
 8771TIP3    H247729   2.107   0.360  12.550 -1.0158 -0.1459 -0.1095
 8772TIP3   OH247730   0.587   2.050   3.588  0.2338 -0.5904 -1.0194
 8772TIP3    H147731   0.516   2.021   3.531 -0.2848  0.3018 -0.8455
 8772TIP3    H247732   0.666   2.041   3.534 -0.2969  0.6125 -2.0510
 8773TIP3   OH247733   1.752   5.926   2.657 -0.0866 -0.1486  0.3469
 8773TIP3    H147734   1.825   5.968   2.609 -0.1072 -0.3283  0.1567
 8773TIP3    H247735   1.790   5.901   2.741  0.5269 -1.7033 -0.3567
 8774TIP3   OH247736   0.390   4.178   1.866  0.5887  0.0705  0.6147
 8774TIP3    H147737   0.331   4.109   1.836  1.0378 -0.0589  0.0157
 8774TIP3    H247738   0.428   4.214   1.786  0.5429  0.8515  0.9351
 8775TIP3   OH247739   1.039   0.300   2.296  0.0193  0.1380  0.1034
 8775TIP3    H147740   0.992   0.280   2.215  0.7377 -0.5110 -0.1732
 8775TIP3    H247741   0.981   0.269   2.365 -0.0238 -0.5519 -0.2272
 8776TIP3   OH247742   6.221   2.773   3.782  0.2096 -0.0412 -0.4936
 8776TIP3    H147743   6.161   2.827   3.731  1.3035  1.0543 -0.6811
 8776TIP3    H247744   6.296   2.831   3.800 -0.0290 -0.4187  2.1832
 8777TIP3   OH247745   6.313   3.236   3.972 -0.3077  0.0020  0.3894
 8777TIP3    H147746   6.233   3.195   3.940 -0.2510 -2.7138  3.2297
 8777TIP3    H247747   6.284   3.298   4.038 -0.1501 -0.2538  0.7055
 8778TIP3   OH247748   5.046   4.534   3.150 -0.8440 -0.2152 -0.5377
 8778TIP3    H147749   5.111   4.500   3.088  3.2341  2.6615  1.6829
 8778TIP3    H247750   5.004   4.606   3.103  0.7399  0.6529 -0.6633
 8779TIP3   OH247751   4.313   6.749   5.659  0.2161 -0.0014  0.1547
 8779TIP3    H147752   4.382   6.801   5.698  0.5204  1.0472 -1.6553
 8779TIP3    H247753   4.255   6.726   5.732  2.3231 -0.7669  1.6882
 8780TIP3   OH247754   4.071   4.475  11.911  1.0623 -0.1600  0.1114
 8780TIP3    H147755   4.141   4.445  11.854  0.9926  0.9891 -0.5985
 8780TIP3    H247756   3.990   4.456  11.863  0.8341 -1.6015  0.9793
 8781TIP3   OH247757   2.343   2.964   4.347 -0.1596  0.1470 -0.2273
 8781TIP3    H147758   2.390   2.882   4.362  1.7114  1.2474  0.1758
 8781TIP3    H247759   2.353   2.980   4.253  1.7583  1.1855  0.1045
 8782TIP3   OH247760   2.532   6.394  14.429  0.0885  0.0869  0.7988
 8782TIP3    H147761   2.597   6.394  14.359  0.1758  1.2850  0.8493
 8782TIP3    H247762   2.573   6.345  14.500  0.0327 -1.0654  0.0563
 8783TIP3   OH247763   5.724   6.277   1.410  0.6215  0.3069 -0.0666
 8783TIP3    H147764   5.705   6.185   1.432 -0.5060  0.2188 -1.3592
 8783TIP3    H247765   5.779   6.272   1.332  1.0886  0.7270  0.2296
 8784TIP3   OH247766   2.067   0.045   5.719 -0.0402 -0.4893  0.1251
 8784TIP3    H147767   2.056  -0.020   5.650  0.4547 -0.9736  0.4949
 8784TIP3    H247768   2.157   0.077   5.708  0.2245 -0.9496  0.8654
 8785TIP3   OH247769   3.257   2.470   2.809 -0.3467  0.0369  0.3252
 8785TIP3    H147770   3.239   2.525   2.886  2.5474  1.8356 -0.1574
 8785TIP3    H247771   3.258   2.381   2.844 -0.0022  0.7272  2.2180
 8786TIP3   OH247772   2.139   5.563  15.257 -0.6821  0.0260  0.0440
 8786TIP3    H147773   2.114   5.531  15.344 -0.4155  0.1653  0.1724
 8786TIP3    H247774   2.095   5.503  15.196 -1.5960  0.4555  0.2601
 8787TIP3   OH247775   6.263   2.857  17.197  0.0081  0.4523 -0.0674
 8787TIP3    H147776   6.275   2.932  17.255 -1.1085  0.2385  0.4602
 8787TIP3    H247777   6.326   2.792  17.229 -0.7588  0.2500  1.0666
 8788TIP3   OH247778   0.271   5.742   2.132  0.2515 -0.3464  0.3705
 8788TIP3    H147779   0.317   5.685   2.070 -1.8077 -1.0436 -0.6258
 8788TIP3    H247780   0.284   5.830   2.098  0.3713 -0.5854 -0.2197
 8789TIP3   OH247781   0.854   1.039  11.923 -0.7379 -0.4782 -0.3368
 8789TIP3    H147782   0.873   1.035  11.829  0.4784  0.0510 -0.1346
 8789TIP3    H247783   0.801   1.117  11.934 -0.3220 -0.1660 -0.5097
 8790TIP3   OH247784   5.889   3.055  12.221  0.7998  0.2074  0.0851
 8790TIP3    H147785   5.838   2.976  12.238  0.3594  0.2400 -1.0025
 8790TIP3    H247786   5.825   3.126  12.221  0.8815  0.3021 -0.8645
 8791TIP3   OH247787   2.144   4.559   1.588 -0.6557  0.0257  0.5058
 8791TIP3    H147788   2.102   4.476   1.567  1.2456 -1.3476  1.8145
 8791TIP3    H247789   2.158   4.602   1.504 -2.8135 -0.3402 -0.0971
 8792TIP3   OH247790   6.473   5.338  16.311 -0.1648  0.3359  0.4853
 8792TIP3    H147791   6.517   5.333  16.396 -0.2040 -1.1774  0.4324
 8792TIP3    H247792   6.542   5.324  16.247 -0.4669 -0.5565  0.3493
 8793TIP3   OH247793   6.086   4.941  12.136 -0.1159 -0.2500  0.0515
 8793TIP3    H147794   6.098   4.870  12.073 -0.1486 -2.0169  1.9239
 8793TIP3    H247795   6.098   5.021  12.085  2.7096 -1.6017 -1.6421
 8794TIP3   OH247796   0.570   5.564   4.157 -0.2048 -0.7833  0.3537
 8794TIP3    H147797   0.488   5.517   4.138  0.4680 -1.4320 -1.1349
 8794TIP3    H247798   0.563   5.645   4.106  0.1974 -0.9835 -0.0285
 8795TIP3   OH247799   4.717   6.142  12.232  0.0705  0.2246  0.5343
 8795TIP3    H147800   4.653   6.088  12.279 -0.1661 -0.1779 -0.2360
 8795TIP3    H247801   4.680   6.230  12.235 -1.6894 -0.3473 -1.8009
 8796TIP3   OH247802   6.293   1.926  12.127 -0.1714 -0.1151  0.1282
 8796TIP3    H147803   6.324   1.858  12.188 -1.7507 -1.5509 -0.5899
 8796TIP3    H247804   6.234   1.980  12.179  0.5179  0.2921  0.5121
 8797TIP3   OH247805   0.564   5.556   0.273  0.3538  0.3682 -0.0752
 8797TIP3    H147806   0.577   5.512   0.188 -0.8755 -0.7366  0.2673
 8797TIP3    H247807   0.517   5.636   0.252 -0.7529 -0.3420 -0.3796
 8798TIP3   OH247808   0.179   6.718  11.076 -0.1482  0.3254 -0.8707
 8798TIP3    H147809   0.152   6.634  11.111 -0.4189  1.0841  0.8562
 8798TIP3    H247810   0.160   6.713  10.983  0.1699 -1.6350 -0.8705
 8799TIP3   OH247811   5.698   3.449   6.014  0.1972  0.4701  0.4677
 8799TIP3    H147812   5.647   3.515   6.062 -1.2091 -0.1140 -0.1649
 8799TIP3    H247813   5.657   3.365   6.038 -0.5479  0.1580 -1.7093
 8800TIP3   OH247814   4.135   2.615   0.756 -0.1980 -0.2462 -0.0476
 8800TIP3    H147815   4.182   2.533   0.773  0.1112  0.1984  1.4037
 8800TIP3    H247816   4.194   2.683   0.787 -0.5271  0.5312 -1.0816
 8801TIP3   OH247817   2.184   0.610  15.869  0.1005 -0.6562 -0.2113
 8801TIP3    H147818   2.158   0.522  15.895  2.0724 -0.4995  2.8157
 8801TIP3    H247819   2.148   0.667  15.938  1.2647  0.5162 -0.5225
 8802TIP3   OH247820   3.881   2.197   3.850 -0.4655 -0.1005 -0.0206
 8802TIP3    H147821   3.907   2.236   3.766 -0.3039  0.1009  0.1233
 8802TIP3    H247822   3.785   2.196   3.847 -0.4558 -0.2900 -0.2969
 8803TIP3   OH247823   2.453   2.562   6.276 -0.3697  0.0836 -0.1743
 8803TIP3    H147824   2.390   2.493   6.258 -0.1077 -0.4922  1.0300
 8803TIP3    H247825   2.401   2.633   6.315 -0.2608 -0.5105  1.1038
 8804TIP3   OH247826   6.635   4.943  14.904  0.8670 -0.1006 -0.1486
 8804TIP3    H147827   6.702   4.949  14.837 -0.3798  0.4658 -1.3899
 8804TIP3    H247828   6.679   4.902  14.979  1.4540 -4.1891 -2.4339
 8805TIP3   OH247829   2.928   3.557   4.487  0.2632  0.7186  0.2911
 8805TIP3    H147830   2.887   3.584   4.405 -1.0080 -0.2829  0.5644
 8805TIP3    H247831   2.878   3.602   4.555  0.0876  0.0883  0.5935
 8806TIP3   OH247832   0.218   3.396   2.689 -0.5581 -0.1287  0.3911
 8806TIP3    H147833   0.150   3.463   2.684  0.1170  0.4882 -0.7916
 8806TIP3    H247834   0.298   3.443   2.712 -0.5371 -0.8817  2.0265
 8807TIP3   OH247835   3.011   5.861  16.207 -0.1791  0.1413  0.4055
 8807TIP3    H147836   2.928   5.867  16.254 -1.0298  0.5088 -1.0695
 8807TIP3    H247837   3.077   5.895  16.268 -0.9019 -1.2248  2.0306
 8808TIP3   OH247838   1.817   6.554   1.605 -0.3638  0.0675  0.2611
 8808TIP3    H147839   1.861   6.603   1.675  0.6266 -1.1573  0.5436
 8808TIP3    H247840   1.846   6.464   1.618 -0.1530 -0.1856 -1.7545
 8809TIP3   OH247841   2.350   6.707   1.171 -0.0340 -0.2867  0.1723
 8809TIP3    H147842   2.423   6.765   1.153  0.6250 -1.3677 -0.7877
 8809TIP3    H247843   2.293   6.716   1.095  0.1154 -0.9496 -0.0224
 8810TIP3   OH247844   1.949   2.942  15.393  0.1674  0.2006 -0.6680
 8810TIP3    H147845   1.861   2.932  15.427  0.3187 -0.1993 -0.3822
 8810TIP3    H247846   2.004   2.956  15.470  0.3908  0.1592 -0.8179
 8811TIP3   OH247847   5.444   1.905  15.093 -0.1944 -0.4282  0.1002
 8811TIP3    H147848   5.390   1.826  15.095  0.3055 -0.9137 -2.4744
 8811TIP3    H247849   5.382   1.976  15.114 -1.7060 -1.0649 -1.8578
 8812TIP3   OH247850   6.524   2.889  16.973 -1.2223  0.0566  0.6493
 8812TIP3    H147851   6.463   2.959  16.999  0.1895  2.1215 -1.3074
 8812TIP3    H247852   6.599   2.935  16.937 -0.3987 -2.5118 -1.1399
 8813TIP3   OH247853   2.782   6.637   5.332  0.1479 -0.0939  0.6048
 8813TIP3    H147854   2.798   6.660   5.424  0.6703  1.3729  0.1730
 8813TIP3    H247855   2.699   6.590   5.333  1.2453 -2.2040  2.1097
 8814TIP3   OH247856   2.701   2.538   1.224 -0.3621  0.1615 -0.2286
 8814TIP3    H147857   2.679   2.483   1.299  0.4255 -0.6385 -0.5650
 8814TIP3    H247858   2.680   2.627   1.252 -0.0256 -0.1245  0.9640
 8815TIP3   OH247859   4.350   6.268   2.076  0.1064 -0.2936 -0.5816
 8815TIP3    H147860   4.443   6.271   2.098  0.1318  0.4858 -0.7630
 8815TIP3    H247861   4.306   6.255   2.161  0.3523 -0.0450 -0.4129
 8816TIP3   OH247862   6.343   0.473   1.081  0.2768  0.3188 -0.2409
 8816TIP3    H147863   6.338   0.569   1.077  0.5554  0.3084 -0.9729
 8816TIP3    H247864   6.436   0.453   1.073  0.1747 -0.0341 -0.5674
 8817TIP3   OH247865   6.244   5.679  15.385 -0.0009 -0.0610 -0.0695
 8817TIP3    H147866   6.261   5.594  15.343  1.1335 -0.1358  0.5141
 8817TIP3    H247867   6.182   5.658  15.455 -1.9364  0.0691 -1.6400
 8818TIP3   OH247868   4.977   0.432  14.900 -0.3053  0.6527  0.4202
 8818TIP3    H147869   5.051   0.449  14.957 -0.4421 -0.6290  0.9948
 8818TIP3    H247870   5.016   0.419  14.813 -0.0235  1.6431  0.3813
 8819TIP3   OH247871   2.458   1.854   4.616 -0.1110  0.2161  0.6595
 8819TIP3    H147872   2.463   1.762   4.590  0.9947  1.2058 -3.5580
 8819TIP3    H247873   2.365   1.872   4.625 -0.3906 -1.0910  0.5414
 8820TIP3   OH247874   5.433   5.714   0.663 -0.3946 -0.3115 -0.1100
 8820TIP3    H147875   5.389   5.669   0.592 -1.0386  1.8197 -1.1437
 8820TIP3    H247876   5.401   5.672   0.743 -0.0640 -2.3818 -1.0104
 8821TIP3   OH247877   6.076   4.135  12.109 -0.4937 -0.5095 -0.7133
 8821TIP3    H147878   6.068   4.047  12.147  0.2937 -0.6453 -0.8397
 8821TIP3    H247879   6.168   4.141  12.083 -0.5646  0.3241 -0.7858
 8822TIP3   OH247880   0.584   4.374  15.826 -0.8904  0.0771  0.0478
 8822TIP3    H147881   0.602   4.468  15.828 -0.2749 -0.0467  0.7449
 8822TIP3    H247882   0.628   4.343  15.748 -2.4517  0.6147 -1.1029
 8823TIP3   OH247883   2.527   4.062   6.352  0.1227 -0.4711 -0.3191
 8823TIP3    H147884   2.609   4.013   6.351  1.0101  0.8544 -3.1281
 8823TIP3    H247885   2.554   4.153   6.366 -0.7735  0.0291 -1.6505
 8824TIP3   OH247886   0.925   3.793   3.727 -0.3503 -0.2669  0.3134
 8824TIP3    H147887   0.954   3.807   3.817  1.4266 -1.2434 -0.0709
 8824TIP3    H247888   0.967   3.862   3.677  0.1848 -0.8254 -0.0264
 8825TIP3   OH247889   2.398   3.174  14.409  0.6448 -0.2769 -0.0599
 8825TIP3    H147890   2.444   3.097  14.442  0.8630 -0.5732 -1.0070
 8825TIP3    H247891   2.307   3.162  14.435  0.8152 -0.4876  0.4377
 8826TIP3   OH247892   2.048   2.320  15.913  0.4923 -0.1380 -0.0193
 8826TIP3    H147893   2.055   2.411  15.943  1.4776  0.1572 -1.0587
 8826TIP3    H247894   2.091   2.269  15.982  0.9759  0.3156  0.0290
 8827TIP3   OH247895   2.085   6.343   1.368  0.0837  0.1022 -0.5368
 8827TIP3    H147896   2.137   6.312   1.295  0.4353  0.2908 -0.3674
 8827TIP3    H247897   2.001   6.369   1.329  0.0126 -0.4591 -0.7678
 8828TIP3   OH247898   0.149   6.777  13.248  0.1720  0.2184  0.2428
 8828TIP3    H147899   0.191   6.833  13.182 -1.5487  0.2065 -0.9248
 8828TIP3    H247900   0.152   6.689  13.210  0.9420 -0.1435  1.1090
 8829TIP3   OH247901   1.120   1.150   5.151 -0.0331 -0.4308  0.1932
 8829TIP3    H147902   1.107   1.064   5.110  3.2034 -0.8583 -0.2685
 8829TIP3    H247903   1.202   1.182   5.112  0.0440  1.8638  2.0293
 8830TIP3   OH247904   4.855   1.282  14.386  0.0517  0.4360  0.1965
 8830TIP3    H147905   4.870   1.374  14.365 -0.0927  0.1934 -1.0094
 8830TIP3    H247906   4.851   1.280  14.482 -0.7587  1.8035  0.2129
 8831TIP3   OH247907   2.072   0.846   1.522  0.3636  0.2400  0.0713
 8831TIP3    H147908   1.992   0.878   1.481  0.8333 -0.2801 -1.2910
 8831TIP3    H247909   2.102   0.919   1.577 -0.5210  0.7841 -0.1559
 8832TIP3   OH247910   5.833   0.429   4.724  0.6322  0.5511 -0.1716
 8832TIP3    H147911   5.767   0.372   4.764  0.4164  0.8740 -0.0567
 8832TIP3    H247912   5.904   0.434   4.788  0.3206  1.0076  0.1512
 8833TIP3   OH247913   5.334   4.050  16.708 -0.4628 -0.4078  0.0552
 8833TIP3    H147914   5.286   4.105  16.769  1.3449  1.9460 -0.5209
 8833TIP3    H247915   5.364   3.975  16.761 -1.0502  0.3081  1.4236
 8834TIP3   OH247916   4.576   6.183  13.538 -0.0106 -0.2159  0.0340
 8834TIP3    H147917   4.550   6.263  13.583  1.7300 -0.4689  1.6018
 8834TIP3    H247918   4.495   6.133  13.529 -1.5339  2.3878 -2.6398
 8835TIP3   OH247919   0.432   1.755  14.891  0.0191 -0.3546  0.9018
 8835TIP3    H147920   0.383   1.828  14.853  0.6028 -1.4827 -2.3268
 8835TIP3    H247921   0.515   1.794  14.920 -0.3059  0.5064  0.7152
 8836TIP3   OH247922   0.872   4.114   5.527  0.4035 -0.1467 -0.3751
 8836TIP3    H147923   0.776   4.114   5.532  0.3172  0.6590 -1.6087
 8836TIP3    H247924   0.898   4.035   5.574 -1.0423 -2.2979 -2.9046
 8837TIP3   OH247925   0.925   1.434  11.605 -0.5368  0.4079  0.0504
 8837TIP3    H147926   0.937   1.470  11.693  1.1954  0.5474 -0.1950
 8837TIP3    H247927   0.881   1.504  11.557 -0.2866  0.8703  0.4770
 8838TIP3   OH247928   5.516   3.483  11.978 -0.2547  0.5821 -0.1829
 8838TIP3    H147929   5.555   3.409  11.932 -0.6380 -0.7197  1.4625
 8838TIP3    H247930   5.589   3.542  11.995  0.5286 -0.5377  0.4886
 8839TIP3   OH247931   2.691   2.004   3.199  0.4955 -0.8049  0.0595
 8839TIP3    H147932   2.707   1.949   3.122 -1.7917  1.2973 -2.0949
 8839TIP3    H247933   2.603   1.981   3.228  0.2307  0.3774  0.2599
 8840TIP3   OH247934   5.476   4.263   1.210 -0.7944 -0.3142 -0.5052
 8840TIP3    H147935   5.560   4.309   1.217  0.2608 -2.3579  1.4098
 8840TIP3    H247936   5.452   4.272   1.117  1.4270  0.4753 -1.0721
 8841TIP3   OH247937   3.315   0.838   0.999  0.5943 -0.0562 -0.0866
 8841TIP3    H147938   3.222   0.856   1.013  0.4436 -1.0817  0.2980
 8841TIP3    H247939   3.343   0.790   1.076  1.6326  0.8373  0.1213
 8842TIP3   OH247940   3.533   1.105  12.215 -0.2158 -0.2476 -0.0205
 8842TIP3    H147941   3.500   1.164  12.283 -0.1053 -0.4508  0.2104
 8842TIP3    H247942   3.625   1.128  12.206 -0.1544 -0.4335  0.1227
 8843TIP3   OH247943   3.318   2.846   0.075  0.1737 -0.5504 -0.3771
 8843TIP3    H147944   3.307   2.941   0.066  1.5578 -0.3835 -0.5388
 8843TIP3    H247945   3.230   2.814   0.097 -0.1978  0.8449  0.3387
 8844TIP3   OH247946   5.633   5.747  15.472  0.2173 -0.2811  0.0087
 8844TIP3    H147947   5.675   5.661  15.471 -0.1760 -0.5233  1.8957
 8844TIP3    H247948   5.539   5.727  15.479  0.2538  0.2482  3.2372
 8845TIP3   OH247949   3.208   5.836   4.890 -0.3673  0.4121 -0.2449
 8845TIP3    H147950   3.230   5.928   4.900  0.2809  0.4546 -1.7648
 8845TIP3    H247951   3.113   5.835   4.872 -0.6634  0.6392  1.1975
 8846TIP3   OH247952   4.461   2.211  12.974 -0.2681  0.6584 -0.0315
 8846TIP3    H147953   4.377   2.251  12.997 -1.5649 -0.8618 -1.7719
 8846TIP3    H247954   4.482   2.249  12.888  0.2949  0.2475 -0.0766
 8847TIP3   OH247955   4.019   6.711   2.749  0.4352 -0.5021  0.3524
 8847TIP3    H147956   4.055   6.799   2.759 -0.5886 -0.1791  1.3431
 8847TIP3    H247957   4.070   6.673   2.677 -0.8110  1.8181 -1.9144
 8848TIP3   OH247958   6.213   4.062   3.793 -0.0635  0.3063 -0.6399
 8848TIP3    H147959   6.243   4.153   3.801  0.7057 -0.0089  0.2814
 8848TIP3    H247960   6.119   4.069   3.777  0.0022  1.2703 -0.6706
 8849TIP3   OH247961   4.454   5.076  13.820 -0.0653 -0.0869  0.3333
 8849TIP3    H147962   4.492   5.164  13.828  1.4937 -0.8784  2.6404
 8849TIP3    H247963   4.476   5.048  13.732  1.2081  1.0759  0.2468
 8850TIP3   OH247964   0.480   1.560  16.375 -0.6494 -0.1838  0.1311
 8850TIP3    H147965   0.404   1.581  16.320  0.2046  1.4781 -0.4864
 8850TIP3    H247966   0.555   1.570  16.316  0.1866  0.2304  1.2341
 8851TIP3   OH247967   5.278   1.860  14.754 -0.2824  0.2139 -0.0647
 8851TIP3    H147968   5.238   1.774  14.766  0.0295  0.3579  2.4202
 8851TIP3    H247969   5.367   1.850  14.788  0.2930  1.1381 -1.2190
 8852TIP3   OH247970   1.396   0.932   2.139 -0.3553 -0.0889  0.1840
 8852TIP3    H147971   1.437   0.898   2.060 -0.6164  1.6497 -0.7637
 8852TIP3    H247972   1.378   1.024   2.119 -2.1223 -0.0666  1.5876
 8853TIP3   OH247973   0.493   5.556  16.699  0.1167 -0.4788  0.0137
 8853TIP3    H147974   0.470   5.609  16.622  1.0394 -1.1668 -0.7605
 8853TIP3    H247975   0.506   5.620  16.768  1.8684  0.4251 -1.0683
 8854TIP3   OH247976   0.636   0.638   5.554  0.6999 -0.0533  0.4239
 8854TIP3    H147977   0.663   0.607   5.640  0.7315 -1.5236 -0.0930
 8854TIP3    H247978   0.606   0.560   5.508  1.9074  0.4519 -1.3471
 8855TIP3   OH247979   6.493   5.250   4.794  0.2362  0.1578  0.0442
 8855TIP3    H147980   6.506   5.343   4.814 -0.1970  0.0048  1.1115
 8855TIP3    H247981   6.481   5.248   4.699  3.2414  0.8217 -0.4674
 8856TIP3   OH247982   6.026   4.590  13.700 -0.1545 -0.6368  0.2487
 8856TIP3    H147983   6.095   4.538  13.742  0.7614  0.7608  0.5496
 8856TIP3    H247984   6.065   4.622  13.619 -0.9404 -0.9538 -0.2725
 8857TIP3   OH247985   4.756   1.050  15.213  0.0353  0.7355  0.0564
 8857TIP3    H147986   4.672   1.042  15.168  0.2239  0.1015 -0.2039
 8857TIP3    H247987   4.820   1.021  15.149  0.4579  1.2495  0.2431
 8858TIP3   OH247988   1.389   4.398   3.359 -0.5330 -0.1299 -0.2066
 8858TIP3    H147989   1.351   4.359   3.438  0.1993 -2.8631 -1.1059
 8858TIP3    H247990   1.471   4.438   3.389 -0.5961 -0.5382  0.5268
 8859TIP3   OH247991   3.662   6.163  12.822  0.3377  0.0687  0.0326
 8859TIP3    H147992   3.656   6.174  12.727  1.2286  0.5784  0.0231
 8859TIP3    H247993   3.591   6.102  12.844  0.2535 -0.2179 -0.9843
 8860TIP3   OH247994   2.910   2.719   0.582  0.0647 -0.0337 -0.3597
 8860TIP3    H147995   2.821   2.750   0.596  0.4715  2.2930 -2.3144
 8860TIP3    H247996   2.956   2.738   0.664 -0.9818 -0.3340  0.3099
 8861TIP3   OH247997   4.038   6.683  11.621  0.5217  0.4700 -0.5625
 8861TIP3    H147998   4.082   6.699  11.705  0.0924  0.9910 -0.4303
 8861TIP3    H247999   4.040   6.768  11.577 -2.0799  1.0589  0.2734
 8862TIP3   OH248000   2.428   5.356  14.346 -0.3207  0.4128 -0.5317
 8862TIP3    H148001   2.340   5.318  14.342 -0.4088  0.6091 -0.4431
 8862TIP3    H248002   2.424   5.420  14.417 -0.2503  0.7910 -0.8615
 8863TIP3   OH248003   4.919   1.119   4.126  0.0624  0.0858  0.0674
 8863TIP3    H148004   5.010   1.089   4.131  1.1793  3.2355  0.2282
 8863TIP3    H248005   4.912   1.157   4.038  0.0820  3.0836  1.2559
 8864TIP3   OH248006   4.502   1.084  14.587  0.1778  0.2249 -0.0889
 8864TIP3    H148007   4.409   1.103  14.576  0.0987 -0.2800 -0.2752
 8864TIP3    H248008   4.544   1.133  14.516  0.1891  1.5193  0.7679
 8865TIP3   OH248009   0.299   3.833  15.661 -0.1515 -0.1127 -0.3980
 8865TIP3    H148010   0.294   3.906  15.724 -0.5848 -0.5806  0.1168
 8865TIP3    H248011   0.243   3.765  15.698 -1.4206  0.0532 -1.9138
 8866TIP3   OH248012   5.161   1.371  16.386  0.1650 -0.0576  0.2621
 8866TIP3    H148013   5.108   1.437  16.342  0.0786 -1.2821 -1.5939
 8866TIP3    H248014   5.100   1.325  16.444 -0.1478  0.3827  0.2885
 8867TIP3   OH248015   5.511   5.956   4.262  0.2133  0.5241 -0.0087
 8867TIP3    H148016   5.423   5.977   4.232 -1.0570 -0.8867  2.3774
 8867TIP3    H248017   5.534   6.027   4.322 -1.0022 -0.9661  2.3534
 8868TIP3   OH248018   4.167   0.447   4.843 -0.0096 -0.3530  0.3408
 8868TIP3    H148019   4.164   0.461   4.938  0.9651 -0.6065  0.4201
 8868TIP3    H248020   4.169   0.534   4.805 -0.6683 -0.2477  0.5382
 8869TIP3   OH248021   4.674   1.118   0.019  0.1556 -0.1018 -0.0606
 8869TIP3    H148022   4.699   1.037   0.064 -0.2974  0.0004  0.3897
 8869TIP3    H248023   4.680   1.186   0.086  0.1273  0.1685 -0.3282
 8870TIP3   OH248024   4.174   4.078   6.274  0.3227  0.2120 -0.3866
 8870TIP3    H148025   4.227   4.005   6.304 -1.3528 -1.3846 -1.1198
 8870TIP3    H248026   4.088   4.063   6.314 -0.6608  0.5371 -2.2779
 8871TIP3   OH248027   0.497   1.220   3.665  0.0908 -0.0839 -0.2421
 8871TIP3    H148028   0.562   1.179   3.723 -0.1995 -0.0169  0.1318
 8871TIP3    H248029   0.546   1.240   3.585  0.1193 -1.6674 -0.6500
 8872TIP3   OH248030   5.163   6.122   0.994 -0.1862  0.0837 -0.2568
 8872TIP3    H148031   5.194   6.183   1.062  0.0816  1.4055 -1.5084
 8872TIP3    H248032   5.097   6.068   1.038  0.1522  0.7419  1.1109
 8873TIP3   OH248033   2.288   3.343   0.281  0.1226  0.1398  0.4960
 8873TIP3    H148034   2.254   3.355   0.370  1.1891 -0.4341  1.0008
 8873TIP3    H248035   2.360   3.281   0.291 -1.5372 -2.2259 -1.1745
 8874TIP3   OH248036   4.395   2.213   5.905 -0.3510  0.0614 -0.3125
 8874TIP3    H148037   4.378   2.303   5.932 -0.0296  0.0291  0.0058
 8874TIP3    H248038   4.482   2.216   5.865 -0.7964  0.1008 -1.3344
 8875TIP3   OH248039   4.662   1.992  16.746  0.1700 -0.2995  0.5749
 8875TIP3    H148040   4.691   2.078  16.715  2.0975 -0.2892  2.1689
 8875TIP3    H248041   4.572   1.984  16.714 -0.1751  2.4259  0.5796
 8876TIP3   OH248042   1.846   0.090  15.979 -0.7156  0.2397 -0.5339
 8876TIP3    H148043   1.884   0.157  15.922  0.3485 -1.1022 -1.5021
 8876TIP3    H248044   1.797   0.138  16.045  1.8669  2.0831  0.1982
 8877TIP3   OH248045   3.527   1.488   3.820  0.3523  0.2058  0.3240
 8877TIP3    H148046   3.456   1.505   3.757 -0.5718  0.1530  1.3287
 8877TIP3    H248047   3.581   1.421   3.778  0.8425  1.5072 -1.2391
 8878TIP3   OH248048   1.721   0.373   2.256  0.8742  0.5183  0.0060
 8878TIP3    H148049   1.738   0.326   2.174  0.4567 -0.2831  0.3695
 8878TIP3    H248050   1.625   0.381   2.259  0.8682  0.2664  0.5680
 8879TIP3   OH248051   4.468   2.377  14.651 -0.5002  0.0647 -0.3118
 8879TIP3    H148052   4.412   2.365  14.728  0.2778  1.0033  0.4214
 8879TIP3    H248053   4.531   2.305  14.656  0.0210  0.5495  0.3765
 8880TIP3   OH248054   0.507   2.648   3.474 -0.3607 -0.2982 -0.4606
 8880TIP3    H148055   0.501   2.718   3.539  1.5958 -1.2226  0.8394
 8880TIP3    H248056   0.546   2.689   3.397 -1.8920  0.6199 -0.7793
 8881TIP3   OH248057   5.691   3.734  13.612  0.0890  0.2403  0.4149
 8881TIP3    H148058   5.632   3.666  13.580  1.1510 -0.4947 -0.0384
 8881TIP3    H248059   5.661   3.752  13.700 -0.3727 -0.6411  0.4519
 8882TIP3   OH248060   5.559   4.516   4.256 -0.2693  0.3624 -0.0238
 8882TIP3    H148061   5.589   4.493   4.168 -0.6687  1.3790 -0.4413
 8882TIP3    H248062   5.474   4.475   4.264  0.4046 -0.9906  0.4727
 8883TIP3   OH248063   1.323   3.888   1.576  0.1516 -0.0829  0.0245
 8883TIP3    H148064   1.269   3.902   1.653  0.0058 -1.0352  0.1052
 8883TIP3    H248065   1.262   3.858   1.508 -0.0806  2.6290 -1.1132
 8884TIP3   OH248066   4.024   3.392  15.583  0.1588  0.1844 -0.7676
 8884TIP3    H148067   4.023   3.481  15.618  1.8203 -0.0645  0.0277
 8884TIP3    H248068   4.000   3.402  15.491 -1.1970  1.2444 -0.3298
 8885TIP3   OH248069   5.054   2.119  15.446  0.5626  0.5800  0.1002
 8885TIP3    H148070   5.145   2.115  15.474  1.5697  3.3915 -2.2635
 8885TIP3    H248071   5.004   2.105  15.527  2.8997 -3.0643  1.1497
 8886TIP3   OH248072   0.944   1.052  16.856  0.3632  0.4584  0.6778
 8886TIP3    H148073   0.997   1.066  16.777  1.5879  1.3294  1.6188
 8886TIP3    H248074   0.935   1.139  16.894 -0.3684  0.0699  1.4147
 8887TIP3   OH248075   3.107   1.936   4.085 -0.8330 -0.2330 -0.2614
 8887TIP3    H148076   3.201   1.920   4.097 -0.8073  0.1250  0.0275
 8887TIP3    H248077   3.069   1.918   4.171 -0.8250  1.0987  0.0394
 8888TIP3   OH248078   3.055   5.765   1.896  0.0454 -0.0652 -0.3386
 8888TIP3    H148079   3.014   5.679   1.908  1.0123 -0.6304 -0.9599
 8888TIP3    H248080   3.114   5.774   1.971 -1.0492  0.6644  0.4545
 8889TIP3   OH248081   5.767   3.809  12.637  0.0440  0.2075  0.0551
 8889TIP3    H148082   5.701   3.742  12.658 -0.1003  0.7793  1.5227
 8889TIP3    H248083   5.765   3.869  12.711  1.6914  0.6697 -0.2361
 8890TIP3   OH248084   0.906   0.756  16.244 -0.2692 -0.1300 -0.1116
 8890TIP3    H148085   0.918   0.803  16.326  0.7274  1.2041 -0.9847
 8890TIP3    H248086   0.959   0.677  16.254  0.6016  0.4806  0.1859
 8891TIP3   OH248087   2.879   4.619  12.681 -0.1028 -0.4156 -0.0985
 8891TIP3    H148088   2.890   4.577  12.767  1.4245  1.1289  0.5104
 8891TIP3    H248089   2.946   4.577  12.626  1.2024  0.9033  0.4217
 8892TIP3   OH248090   2.228   1.830  12.161 -0.0929 -0.4656  0.4554
 8892TIP3    H148091   2.273   1.750  12.133  0.3470 -0.4145  0.9930
 8892TIP3    H248092   2.222   1.822  12.256 -0.2995  0.0114  0.4874
 8893TIP3   OH248093   1.594   4.955   5.520 -0.0716  0.2025 -0.0401
 8893TIP3    H148094   1.665   5.019   5.516 -1.0328  1.2970 -0.4247
 8893TIP3    H248095   1.610   4.897   5.445  0.5638  0.2782  0.0362
 8894TIP3   OH248096   2.000   0.037   2.619 -0.0032 -0.1088  0.2074
 8894TIP3    H148097   2.071  -0.001   2.566  0.7818  0.1782  1.0402
 8894TIP3    H248098   2.039   0.115   2.659 -0.7166 -0.0852  0.8682
 8895TIP3   OH248099   2.357   1.676   5.934 -0.1377 -0.0082 -0.0646
 8895TIP3    H148100   2.382   1.663   6.025 -2.0218  1.7071  0.7703
 8895TIP3    H248101   2.440   1.670   5.885  1.1754  0.8089  1.9455
 8896TIP3   OH248102   1.171   2.776   5.750 -0.3664  0.6736  0.4998
 8896TIP3    H148103   1.247   2.804   5.802 -0.0148  2.2499 -0.7894
 8896TIP3    H248104   1.197   2.792   5.659 -2.3160  1.4391  0.0463
 8897TIP3   OH248105   6.561   3.473   2.245 -0.3694 -0.4073  0.1036
 8897TIP3    H148106   6.602   3.554   2.275 -2.3016  0.1793  1.2768
 8897TIP3    H248107   6.577   3.410   2.316 -2.7058  0.2540  1.2992
 8898TIP3   OH248108   5.965   0.235  11.246 -0.7793 -0.1853 -0.2750
 8898TIP3    H148109   5.896   0.174  11.222  0.1898 -0.5760 -2.3009
 8898TIP3    H248110   6.029   0.229  11.174 -0.0963  2.3777  0.0085
 8899TIP3   OH248111   5.149   3.692   5.193  0.1180  0.1560 -0.2954
 8899TIP3    H148112   5.128   3.698   5.286  0.8181 -0.4620 -0.0885
 8899TIP3    H248113   5.217   3.625   5.188  0.9547  1.0349 -1.1108
 8900TIP3   OH248114   5.548   0.506   5.324 -0.3631 -0.1323 -0.1068
 8900TIP3    H148115   5.510   0.423   5.351  0.3879 -0.6178 -0.4812
 8900TIP3    H248116   5.622   0.481   5.268 -1.2540  0.8003 -1.7989
 8901TIP3   OH248117   2.993   6.628  16.835  0.1026 -0.1510  0.3434
 8901TIP3    H148118   2.952   6.556  16.787 -0.2513  1.1432 -1.3764
 8901TIP3    H248119   2.923   6.693  16.844  0.9373  0.7969  0.1247
 8902TIP3   OH248120   1.298   2.221  13.397 -0.1250 -0.3737  0.2018
 8902TIP3    H148121   1.298   2.125  13.393 -2.3350 -0.4180 -0.0956
 8902TIP3    H248122   1.313   2.249  13.307 -0.4741 -0.4797  0.1073
 8903TIP3   OH248123   4.667   0.887  12.538 -0.3557 -0.5702  0.3048
 8903TIP3    H148124   4.746   0.882  12.484 -0.1607  0.3162  0.4839
 8903TIP3    H248125   4.597   0.905  12.476  0.0381  1.6402  0.4136
 8904TIP3   OH248126   6.649   1.989  14.480 -0.0406 -1.0498 -0.5922
 8904TIP3    H148127   6.642   2.070  14.430  0.5369 -0.7120 -0.1484
 8904TIP3    H248128   6.565   1.980  14.523 -1.4826 -2.6138 -3.4464
 8905TIP3   OH248129   1.125   3.223  12.726  0.2913 -0.2310  0.5902
 8905TIP3    H148130   1.202   3.167  12.722  1.1111  0.9349 -2.8699
 8905TIP3    H248131   1.154   3.300  12.775  0.4828 -0.9192  1.5786
 8906TIP3   OH248132   2.071   0.478   5.401 -0.1749 -0.4166  0.5360
 8906TIP3    H148133   2.007   0.543   5.432 -0.1327 -0.5310  0.8709
 8906TIP3    H248134   2.156   0.514   5.427 -0.1988 -1.0263  1.5500
 8907TIP3   OH248135   3.006   3.924  16.291 -0.7855 -0.3973  0.5647
 8907TIP3    H148136   2.971   3.932  16.202  0.4623  0.0444  0.0864
 8907TIP3    H248137   2.942   3.968  16.346 -1.4447 -0.4341 -0.1542
 8908TIP3   OH248138   5.122   6.047  12.505  0.0833 -0.3666  0.1486
 8908TIP3    H148139   5.052   6.111  12.489  0.3809 -0.1606 -0.3406
 8908TIP3    H248140   5.123   6.036  12.600  0.7239  1.1522  0.3434
 8909TIP3   OH248141   1.694   5.037  13.550 -0.4449  0.0010  0.3821
 8909TIP3    H148142   1.713   5.103  13.483 -2.2554  1.4733  1.2190
 8909TIP3    H248143   1.742   4.960  13.521 -0.1030  0.9657 -1.9063
 8910TIP3   OH248144   4.566   1.414  14.467 -0.0688 -0.0297 -0.0608
 8910TIP3    H148145   4.543   1.324  14.442 -1.5402  0.4361 -0.4705
 8910TIP3    H248146   4.596   1.454  14.385 -0.0240  0.0370 -0.0116
 8911TIP3   OH248147   6.174   2.004  15.446  0.0430 -0.2696  0.0895
 8911TIP3    H148148   6.163   1.967  15.358  1.2646 -1.3742  0.3673
 8911TIP3    H248149   6.089   1.991  15.488  0.4829 -3.2129  0.2881
 8912TIP3   OH248150   5.386   1.628  17.205  0.0781  0.1133 -0.5936
 8912TIP3    H148151   5.360   1.698  17.264  1.7172  0.6803 -0.4950
 8912TIP3    H248152   5.406   1.554  17.262  2.0273  0.7750 -0.3401
 8913TIP3   OH248153   0.622   0.380  11.076  0.0722 -0.4334  0.0166
 8913TIP3    H148154   0.530   0.365  11.098 -0.1115  0.5564 -0.0358
 8913TIP3    H248155   0.621   0.419  10.989  0.3393  1.9049  0.9781
 8914TIP3   OH248156   2.366   3.166  16.721 -0.2385  0.1289 -0.1326
 8914TIP3    H148157   2.421   3.139  16.647  1.6607  1.0273  0.8883
 8914TIP3    H248158   2.425   3.214  16.778 -1.6394 -0.5995  2.0380
 8915TIP3   OH248159   6.053   3.982   3.008 -0.6216  0.2590 -0.1956
 8915TIP3    H148160   6.144   4.005   2.990 -0.5377  0.9291  0.9966
 8915TIP3    H248161   6.003   4.023   2.937 -0.0332  0.1235 -0.6990
 8916TIP3   OH248162   5.309   0.430   0.667  0.6261 -0.3257 -0.2189
 8916TIP3    H148163   5.351   0.391   0.744 -0.9945 -0.7923  0.4740
 8916TIP3    H248164   5.245   0.365   0.639 -0.8874  1.0503 -0.1290
 8917TIP3   OH248165   2.210   6.068   4.681 -0.0811 -0.0502 -0.1667
 8917TIP3    H148166   2.281   6.005   4.676  0.5709  0.7009 -5.1641
 8917TIP3    H248167   2.252   6.154   4.671 -1.4081  0.7226  0.4932
 8918TIP3   OH248168   4.144   6.316  11.531 -0.0030  0.1742 -0.7623
 8918TIP3    H148169   4.081   6.372  11.577 -0.1751 -1.1082  0.6536
 8918TIP3    H248170   4.226   6.330  11.580  0.5415  0.9217 -1.8495
 8919TIP3   OH248171   5.625   2.704  13.070  0.0949  0.1701 -0.3092
 8919TIP3    H148172   5.708   2.728  13.110 -0.6882  1.4354  0.6367
 8919TIP3    H248173   5.596   2.783  13.025 -1.7904  0.5977  1.5144
 8920TIP3   OH248174   1.881   0.243   2.846 -0.6209 -0.1225  0.2038
 8920TIP3    H148175   1.886   0.148   2.853  0.2216 -0.0152  1.2778
 8920TIP3    H248176   1.926   0.275   2.924 -0.2959  1.1627 -0.4912
 8921TIP3   OH248177   4.412   3.230  12.170 -1.0769  0.2909 -0.1487
 8921TIP3    H148178   4.411   3.261  12.260  0.4370 -3.1100  1.2034
 8921TIP3    H248179   4.499   3.191  12.159 -1.2274  0.5305 -3.1047
 8922TIP3   OH248180   5.324   1.597   4.114 -0.1504  0.1252  0.5992
 8922TIP3    H148181   5.306   1.523   4.057 -0.7306 -0.7199  1.8426
 8922TIP3    H248182   5.417   1.592   4.133 -0.2277 -0.4080  0.8382
 8923TIP3   OH248183   2.137   6.573  15.044  0.3781 -0.2560 -0.3738
 8923TIP3    H148184   2.162   6.641  15.107 -2.3496  0.1563  0.4416
 8923TIP3    H248185   2.209   6.568  14.982  1.0767  2.7641  0.0703
 8924TIP3   OH248186   5.871   4.259   5.588  0.1329  0.3489 -0.2595
 8924TIP3    H148187   5.827   4.314   5.652  1.0991 -0.1944  0.9180
 8924TIP3    H248188   5.916   4.320   5.530 -1.3631  0.8744 -0.9106
 8925TIP3   OH248189   1.530   6.551   3.819 -0.0998 -0.2532 -0.3424
 8925TIP3    H148190   1.596   6.618   3.839 -1.0040  0.5970 -0.0983
 8925TIP3    H248191   1.567   6.470   3.853  1.1618  0.0560 -0.9036
 8926TIP3   OH248192   2.977   5.594  11.508  0.2385  0.6061  0.6438
 8926TIP3    H148193   2.934   5.518  11.467  1.0390 -0.1081  1.0871
 8926TIP3    H248194   3.035   5.627  11.440  2.1596 -1.0633  1.3798
 8927TIP3   OH248195   3.561   1.011   5.964 -0.0846  0.9282  0.5688
 8927TIP3    H148196   3.539   1.007   6.057  0.1562  1.6270  0.6601
 8927TIP3    H248197   3.559   0.919   5.935  1.3602  0.5345  1.6200
 8928TIP3   OH248198   3.158   3.520  11.135  0.4807  0.2513 -0.2788
 8928TIP3    H148199   3.115   3.572  11.203 -1.4045 -1.5101 -0.0071
 8928TIP3    H248200   3.245   3.501  11.170  0.0721  0.6064  0.9985
 8929TIP3   OH248201   2.332   2.528   5.878 -0.0650  0.1021 -0.1671
 8929TIP3    H148202   2.343   2.516   5.972  0.3780 -0.1981 -0.2564
 8929TIP3    H248203   2.359   2.619   5.863  1.4950 -0.3546 -0.2476
 8930TIP3   OH248204   3.279   6.380  16.925 -0.3489 -0.1447 -0.4126
 8930TIP3    H148205   3.335   6.418  16.992 -1.1342  0.5879 -0.1585
 8930TIP3    H248206   3.276   6.287  16.946  0.4658 -0.1310 -0.2114
 8931TIP3   OH248207   3.096   4.972   1.049  0.3338 -0.2668  0.8108
 8931TIP3    H148208   3.044   4.943   0.975  2.4983  1.6399 -1.6502
 8931TIP3    H248209   3.118   4.892   1.096 -0.3687 -1.6573 -1.1103
 8932TIP3   OH248210   4.190   2.108   4.193 -0.8488  0.5625 -0.0006
 8932TIP3    H148211   4.234   2.062   4.264  0.1136  2.2628  0.5501
 8932TIP3    H248212   4.243   2.088   4.115 -2.9917 -2.9264 -0.7805
 8933TIP3   OH248213   1.084   2.053   5.685  0.4280  0.3328  0.4629
 8933TIP3    H148214   1.163   2.000   5.675  0.0520  0.0667 -1.4597
 8933TIP3    H248215   1.114   2.143   5.673  0.1540  0.0972 -2.8587
 8934TIP3   OH248216   0.349   1.764   2.440  0.8178 -0.4003 -0.2866
 8934TIP3    H148217   0.435   1.799   2.416  0.8763  0.7330  1.3805
 8934TIP3    H248218   0.345   1.776   2.535 -1.4940  0.3228 -0.4187
 8935TIP3   OH248219   5.427   0.699  15.344  0.3408 -0.0881  0.5133
 8935TIP3    H148220   5.416   0.762  15.415  2.8720  0.4822  0.4937
 8935TIP3    H248221   5.460   0.751  15.270  0.2207 -1.0759 -0.2585
 8936TIP3   OH248222   1.505   6.682  14.549  0.0648  0.2282 -0.2862
 8936TIP3    H148223   1.477   6.590  14.547  0.1358  0.1851  0.6401
 8936TIP3    H248224   1.498   6.710  14.458 -3.0768  0.2554 -0.1302
 8937TIP3   OH248225   6.274   0.048   2.286 -0.0592  0.4202 -0.2437
 8937TIP3    H148226   6.314   0.135   2.286  0.5770  0.1344 -0.7125
 8937TIP3    H248227   6.343  -0.010   2.319 -0.9464  0.2813  1.5077
 8938TIP3   OH248228   0.021   3.649  17.152  0.4374 -0.0618 -0.1512
 8938TIP3    H148229   0.110   3.621  17.174 -0.0409 -0.3337  1.5771
 8938TIP3    H248230   0.003   3.721  17.213 -1.4740 -1.7965  1.4885
 8939TIP3   OH248231   0.743   5.066   0.466 -0.0593  0.1712 -0.0460
 8939TIP3    H148232   0.703   5.146   0.433 -0.2712 -0.8616 -2.4889
 8939TIP3    H248233   0.740   5.005   0.392  1.8153 -1.4794  1.1311
 8940TIP3   OH248234   5.482   2.894   2.900 -0.2915  0.3842  0.2014
 8940TIP3    H148235   5.437   2.820   2.859  0.3222 -0.6602  1.3786
 8940TIP3    H248236   5.411   2.946   2.939 -0.6747  0.0863 -0.0826
 8941TIP3   OH248237   1.684   6.638   3.237  0.4100  0.0638  0.1911
 8941TIP3    H148238   1.698   6.644   3.331  2.3432  0.7530 -0.0861
 8941TIP3    H248239   1.771   6.648   3.199 -0.4489  0.9854 -1.7131
 8942TIP3   OH248240   3.977   3.516   2.092  0.3519  0.2344 -0.3798
 8942TIP3    H148241   4.000   3.426   2.070  1.0357 -0.5513  2.9716
 8942TIP3    H248242   3.883   3.522   2.073  0.0267 -1.6163  0.4024
 8943TIP3   OH248243   3.259   5.264   1.350 -0.5724 -0.2127 -0.2848
 8943TIP3    H148244   3.253   5.214   1.431 -0.5638 -2.2513 -1.4865
 8943TIP3    H248245   3.168   5.273   1.320 -0.4060 -2.2331 -1.5990
 8944TIP3   OH248246   5.001   3.295  12.280 -0.0675  0.3910 -0.2331
 8944TIP3    H148247   4.989   3.245  12.361  0.4906  0.6397  0.0118
 8944TIP3    H248248   4.970   3.237  12.211 -0.5801  0.1888  0.1613
 8945TIP3   OH248249   2.461   0.587   3.282 -0.1137  0.0259 -0.3377
 8945TIP3    H148250   2.438   0.646   3.354 -2.5836 -0.2813 -0.7869
 8945TIP3    H248251   2.450   0.499   3.318  1.4799 -0.1888 -0.2930
 8946TIP3   OH248252   2.681   1.691   6.352  0.1669  0.2987 -0.1572
 8946TIP3    H148253   2.771   1.669   6.377 -0.5282 -0.2157  2.0471
 8946TIP3    H248254   2.639   1.606   6.336  0.1126  0.5503 -1.5470
 8947TIP3   OH248255   1.141   5.664  14.065  0.1475  0.0225  0.1401
 8947TIP3    H148256   1.218   5.685  14.013  0.3845  1.4441  1.0155
 8947TIP3    H248257   1.128   5.570  14.053  0.5499  0.2009 -1.9707
 8948TIP3   OH248258   5.273   1.706  13.368 -0.4652 -0.3214 -0.4320
 8948TIP3    H148259   5.250   1.733  13.457  1.4156 -2.0539  0.6780
 8948TIP3    H248260   5.330   1.777  13.336 -1.5553  0.5569 -0.5027
 8949TIP3   OH248261   3.488   5.793   4.069  0.1436 -0.3746  0.5262
 8949TIP3    H148262   3.555   5.850   4.032 -1.8490  1.8846  0.1503
 8949TIP3    H248263   3.423   5.853   4.105 -1.4344 -2.4608  1.3544
 8950TIP3   OH248264   6.541   5.477   1.698 -0.3378 -0.4552 -0.6171
 8950TIP3    H148265   6.633   5.495   1.716 -0.2964  1.0219 -2.1336
 8950TIP3    H248266   6.493   5.529   1.763 -0.1340 -0.6678 -0.2901
 8951TIP3   OH248267   4.566   1.680  12.925  0.2430  0.7949  0.3551
 8951TIP3    H148268   4.600   1.703  12.839 -1.1485  0.3359 -0.3405
 8951TIP3    H248269   4.627   1.613  12.957  1.6540  2.0585  0.4257
 8952TIP3   OH248270   5.928   3.936  11.590 -0.6757 -0.5193  0.3368
 8952TIP3    H148271   5.973   3.883  11.524  0.8362  1.7281 -0.5820
 8952TIP3    H248272   5.987   3.935  11.665  0.4102  1.4488 -0.4315
 8953TIP3   OH248273   5.655   4.769  17.040 -0.6038 -0.7189 -0.0045
 8953TIP3    H148274   5.607   4.789  17.120 -0.0615 -1.2986  0.4797
 8953TIP3    H248275   5.600   4.804  16.970  0.6479  3.2273  0.7583
 8954TIP3   OH248276   1.297   0.171   4.474 -0.6213 -0.0668  0.0212
 8954TIP3    H148277   1.365   0.188   4.539 -2.2400  1.2339  1.4850
 8954TIP3    H248278   1.334   0.200   4.391  0.6213  0.5592  0.7648
 8955TIP3   OH248279   5.705   3.652   2.403  0.1808 -0.3185 -0.0527
 8955TIP3    H148280   5.653   3.573   2.416 -0.7186  0.0515 -1.1705
 8955TIP3    H248281   5.771   3.649   2.471 -0.7539 -1.2787  0.8490
 8956TIP3   OH248282   3.756   3.195  16.916  0.0201 -0.4672  0.0071
 8956TIP3    H148283   3.694   3.176  16.846  0.5496 -1.6799 -0.1635
 8956TIP3    H248284   3.828   3.135  16.901  0.6143 -0.0334  1.0037
 8957TIP3   OH248285   3.831   3.795   2.563 -0.5416 -0.5609  0.0085
 8957TIP3    H148286   3.912   3.787   2.613  0.1148 -1.1283 -1.0971
 8957TIP3    H248287   3.834   3.883   2.525 -1.6563  0.3692  1.9383
 8958TIP3   OH248288   4.154   2.399  15.752 -0.5387  0.4161 -0.1880
 8958TIP3    H148289   4.182   2.408  15.661 -0.7095 -1.8873 -0.5213
 8958TIP3    H248290   4.116   2.484  15.774 -0.8757  0.8949 -2.3923
 8959TIP3   OH248291   5.042   6.105   2.262  0.1380 -0.0753  0.6306
 8959TIP3    H148292   5.132   6.133   2.282 -0.0465  0.5537  0.6009
 8959TIP3    H248293   5.044   6.010   2.274  0.1162  0.1987  3.3598
 8960TIP3   OH248294   6.354   2.531   4.180  0.1852 -0.2567 -0.3437
 8960TIP3    H148295   6.266   2.561   4.160  0.3192  0.0898 -0.4250
 8960TIP3    H248296   6.348   2.435   4.183 -0.1109 -0.2473 -0.7123
 8961TIP3   OH248297   5.593   1.301  14.644 -0.1442  0.3488  0.1291
 8961TIP3    H148298   5.550   1.228  14.688 -0.5704  0.4043 -0.1909
 8961TIP3    H248299   5.632   1.263  14.566  1.2117  0.1157  0.8926
 8962TIP3   OH248300   4.448   3.789  11.771 -0.5114 -0.1587 -0.3636
 8962TIP3    H148301   4.518   3.746  11.821  0.0734  2.8500  1.6237
 8962TIP3    H248302   4.493   3.830  11.697 -0.4493  0.3722 -0.0292
 8963TIP3   OH248303   1.570   3.060  17.195  0.0954  0.1223 -0.6597
 8963TIP3    H148304   1.482   3.032  17.223  0.0989  0.3720 -0.4018
 8963TIP3    H248305   1.620   2.978  17.189 -0.2509 -0.0571 -1.1445
 8964TIP3   OH248306   5.565   4.245   0.491 -0.2245 -0.0174  0.0211
 8964TIP3    H148307   5.566   4.240   0.587 -0.6773 -0.0090  0.0289
 8964TIP3    H248308   5.605   4.330   0.471  0.1379 -0.1435  0.1882
 8965TIP3   OH248309   1.277   2.173   1.474 -0.1798  0.4058  0.2044
 8965TIP3    H148310   1.287   2.113   1.400 -0.2842 -1.2159  1.4282
 8965TIP3    H248311   1.365   2.207   1.489 -0.1605  0.7475 -0.6538
 8966TIP3   OH248312   6.097   1.916   0.785 -0.3268  0.3397  0.1777
 8966TIP3    H148313   6.173   1.867   0.754 -2.2595 -2.5466 -0.3182
 8966TIP3    H248314   6.133   2.002   0.809  3.2216 -1.1566  0.8574
 8967TIP3   OH248315   4.189   1.764   4.757 -0.0148 -0.3652 -0.0348
 8967TIP3    H148316   4.151   1.692   4.707  0.1162 -0.6333  0.2495
 8967TIP3    H248317   4.151   1.755   4.845 -1.2725  0.8772 -0.4011
 8968TIP3   OH248318   1.353   4.668   0.299 -0.1821  0.0066  0.8646
 8968TIP3    H148319   1.394   4.725   0.233 -1.1556 -1.3063 -0.9425
 8968TIP3    H248320   1.272   4.713   0.321 -1.3801 -0.9875 -1.2069
 8969TIP3   OH248321   5.973   5.686  13.391 -0.1234 -0.0636 -0.1853
 8969TIP3    H148322   6.045   5.714  13.336  1.4974 -1.8690  0.8869
 8969TIP3    H248323   5.901   5.669  13.330  0.3760  1.6223 -1.2968
 8970TIP3   OH248324   1.778   5.577  13.061 -0.4030 -0.4804  0.5653
 8970TIP3    H148325   1.805   5.561  13.152  1.7054 -2.3874 -0.3041
 8970TIP3    H248326   1.714   5.508  13.043  0.0051 -0.7871  0.2806
 8971TIP3   OH248327   4.408   0.593   4.651  0.0587  0.1415 -0.2100
 8971TIP3    H148328   4.477   0.590   4.716 -1.5738 -0.0057  1.6164
 8971TIP3    H248329   4.445   0.549   4.574  0.9047 -2.9629  1.8050
 8972TIP3   OH248330   1.302   4.450   1.771  0.4519  0.0328 -0.1034
 8972TIP3    H148331   1.367   4.506   1.814  0.8574 -0.2925 -0.2858
 8972TIP3    H248332   1.245   4.512   1.725  1.6883  0.2461 -1.4001
 8973TIP3   OH248333   4.575   0.993  11.587  0.4125  0.5881 -0.4562
 8973TIP3    H148334   4.563   0.978  11.681  0.9097  1.1284 -0.3023
 8973TIP3    H248335   4.486   1.007  11.554  0.1242 -0.6247 -0.2563
 8974TIP3   OH248336   3.785   2.950  12.243  0.2977 -0.0919  0.5977
 8974TIP3    H148337   3.818   2.864  12.219  1.2045  0.4930 -0.3399
 8974TIP3    H248338   3.715   2.933  12.305 -0.1344 -1.5519 -0.2482
 8975TIP3   OH248339   1.874   5.521   4.703  0.3511  0.5751 -0.7788
 8975TIP3    H148340   1.926   5.495   4.779 -0.9350 -1.3863 -0.4930
 8975TIP3    H248341   1.885   5.449   4.641 -2.2177 -0.1160 -0.5655
 8976TIP3   OH248342   6.060   2.573  16.607  0.0025 -0.0797  0.3609
 8976TIP3    H148343   6.062   2.577  16.511  1.7958 -0.4216  0.3524
 8976TIP3    H248344   6.029   2.484  16.626 -1.7981  0.4611  0.1513
 8977TIP3   OH248345   3.370   6.688  17.153 -0.0167 -0.0401 -0.7678
 8977TIP3    H148346   3.405   6.606  17.120  2.6064  0.8228 -0.3501
 8977TIP3    H248347   3.276   6.682  17.138 -0.5928 -4.7086  2.6434
 8978TIP3   OH248348   4.213   1.517   3.966 -0.0667 -0.8879  0.7307
 8978TIP3    H148349   4.205   1.596   4.020 -0.3597 -2.1435  2.6241
 8978TIP3    H248350   4.217   1.550   3.877  2.1679  1.4237  1.5623
 8979TIP3   OH248351   3.754   6.437   4.416  0.2496 -0.1957  0.5511
 8979TIP3    H148352   3.816   6.499   4.454 -1.3206  1.9215 -0.1432
 8979TIP3    H248353   3.804   6.390   4.350  1.1518  1.4225  0.0306
 8980TIP3   OH248354   1.361   2.624  15.319  0.3873 -0.0916  0.8649
 8980TIP3    H148355   1.389   2.558  15.255  1.3049 -0.7699  1.9289
 8980TIP3    H248356   1.344   2.575  15.399 -2.3511  0.5250  0.7356
 8981TIP3   OH248357   4.672   4.316  14.799  0.3369  0.3115  0.4796
 8981TIP3    H148358   4.732   4.348  14.732 -0.1869 -0.9009 -0.6150
 8981TIP3    H248359   4.690   4.222  14.805 -1.3461 -0.0646  0.2103
 8982TIP3   OH248360   6.525   2.998   5.726  0.2110  0.1071  0.0377
 8982TIP3    H148361   6.518   3.071   5.787 -1.3482 -0.3379  0.4401
 8982TIP3    H248362   6.538   3.039   5.640 -0.5165  0.8568  0.2749
 8983TIP3   OH248363   5.844   0.578   0.197 -0.3223  0.3570 -0.3458
 8983TIP3    H148364   5.885   0.610   0.117  0.3020  1.3366  0.3338
 8983TIP3    H248365   5.750   0.586   0.181 -0.1875  1.5360 -0.6053
 8984TIP3   OH248366   1.416   6.630   3.567  0.1722  0.1385 -0.0170
 8984TIP3    H148367   1.371   6.546   3.556  0.4911  0.1565 -1.6380
 8984TIP3    H248368   1.432   6.636   3.661 -0.4032 -1.3229  0.2039
 8985TIP3   OH248369   3.560   4.914   1.522  0.5744  0.6541 -0.5724
 8985TIP3    H148370   3.586   4.948   1.436  0.2366  0.3296 -0.8034
 8985TIP3    H248371   3.578   4.987   1.582 -0.3563  1.3413 -1.0973
 8986TIP3   OH248372   4.811   6.674  16.940 -0.1119  0.1047 -0.0553
 8986TIP3    H148373   4.890   6.630  16.971 -1.4373 -1.9756  0.5544
 8986TIP3    H248374   4.829   6.697  16.849  0.8891 -1.0914 -0.1666
 8987TIP3   OH248375   2.242   2.417  12.216 -0.1774 -0.3540  0.0783
 8987TIP3    H148376   2.263   2.480  12.148 -0.4188 -0.0144  0.3164
 8987TIP3    H248377   2.275   2.457  12.297  0.7805 -1.0836  0.0679
 8988TIP3   OH248378   5.273   4.302   3.546  0.6017 -0.6208  0.3895
 8988TIP3    H148379   5.229   4.382   3.572 -0.2634 -0.8024 -0.4359
 8988TIP3    H248380   5.296   4.316   3.454  0.1797 -1.4283  0.1542
 8989TIP3   OH248381   1.677   2.127   4.991  0.0513 -0.0629 -0.3113
 8989TIP3    H148382   1.666   2.032   4.998  0.1180 -0.1007 -0.7119
 8989TIP3    H248383   1.677   2.157   5.082  1.6341 -0.6163 -0.0937
 8990TIP3   OH248384   5.098   4.699  11.106  0.7150  0.3600 -0.1005
 8990TIP3    H148385   5.023   4.643  11.088  0.4458  0.8140 -0.4033
 8990TIP3    H248386   5.106   4.754  11.028  2.6893 -1.1440 -1.0660
 8991TIP3   OH248387   6.674   2.352  13.280  0.9620  0.2628  0.4107
 8991TIP3    H148388   6.714   2.412  13.217 -1.4340  2.3253  0.6877
 8991TIP3    H248389   6.641   2.279  13.227  1.1038  0.7781 -0.3970
 8992TIP3   OH248390   1.038   1.686  17.144  0.4949 -0.8768 -0.0833
 8992TIP3    H148391   1.074   1.707  17.230  1.1047 -0.9225 -0.3287
 8992TIP3    H248392   1.021   1.592  17.148  0.9442 -0.9628 -0.1683
 8993TIP3   OH248393   3.893   3.794  17.143  0.8695  0.0996 -0.6940
 8993TIP3    H148394   3.838   3.842  17.081 -0.9371 -1.4674 -0.4249
 8993TIP3    H248395   3.982   3.803  17.110  0.1434  0.6687 -2.5912
 8994TIP3   OH248396   0.758   5.353   1.219  0.8133 -0.0433  0.1896
 8994TIP3    H148397   0.776   5.438   1.260  0.8176  0.4674 -0.8442
 8994TIP3    H248398   0.681   5.320   1.266 -0.2247  1.3052 -0.4707
 8995TIP3   OH248399   0.061   5.590  13.963  0.1513 -0.1461 -0.7537
 8995TIP3    H148400   0.107   5.654  14.017 -0.3746  0.0296 -0.5016
 8995TIP3    H248401   0.084   5.506  14.002 -1.3274  0.0511  0.6550
 8996TIP3   OH248402   2.927   1.611  14.972  1.1546 -0.0064  0.2336
 8996TIP3    H148403   2.894   1.701  14.965  1.6099  0.0806 -1.5112
 8996TIP3    H248404   2.924   1.591  15.065  0.8889  1.7661  0.6508
 8997TIP3   OH248405   5.598   4.407  13.691 -0.1412  0.1229  0.9958
 8997TIP3    H148406   5.543   4.388  13.767 -0.2612  0.9068  1.1064
 8997TIP3    H248407   5.687   4.414  13.727 -0.1019 -0.1722  0.9599
 8998TIP3   OH248408   1.396   2.476  14.097 -0.2835  0.0276 -0.1183
 8998TIP3    H148409   1.477   2.454  14.143  0.1327  2.4924  0.5150
 8998TIP3    H248410   1.426   2.514  14.014 -0.7240  1.0565  0.1700
 8999TIP3   OH248411   6.599   2.984  15.568 -0.0658  0.5245 -0.1259
 8999TIP3    H148412   6.578   2.897  15.602  1.6765 -0.9518 -2.4844
 8999TIP3    H248413   6.541   2.995  15.493  0.9992  0.5158 -0.9779
 9000TIP3   OH248414   5.554   0.237  12.326 -0.0754 -0.3016 -0.2483
 9000TIP3    H148415   5.597   0.152  12.326 -1.2202 -0.9025 -1.3575
 9000TIP3    H248416   5.460   0.218  12.327 -0.3738  0.9727  1.2020
 9001TIP3   OH248417   4.969   6.768  13.206  0.8294 -0.6782 -0.1328
 9001TIP3    H148418   5.012   6.710  13.144  1.9325 -0.4310  0.3628
 9001TIP3    H248419   4.876   6.762  13.185  1.0626 -1.5411 -0.9868
 9002TIP3   OH248420   2.373   4.821  11.459 -0.2109 -0.4990  0.2270
 9002TIP3    H148421   2.332   4.751  11.510 -2.5440  0.6300  0.0662
 9002TIP3    H248422   2.371   4.898  11.517  2.8722 -0.6138  0.6313
 9003TIP3   OH248423   5.687   6.255   3.669 -0.0543 -0.0018 -0.2883
 9003TIP3    H148424   5.739   6.212   3.736 -0.2765  0.7804  0.4052
 9003TIP3    H248425   5.734   6.337   3.653 -0.5784  0.2900 -0.3205
 9004TIP3   OH248426   2.762   1.033  14.472  0.2926 -0.3214 -0.1504
 9004TIP3    H148427   2.672   1.062  14.487  0.3145 -0.6437  0.6232
 9004TIP3    H248428   2.794   1.007  14.558  1.6785  1.3423 -0.1068
 9005TIP3   OH248429   1.576   1.763  12.675 -0.0857 -0.4502 -0.4670
 9005TIP3    H148430   1.515   1.709  12.625 -0.5236 -0.1914 -0.2205
 9005TIP3    H248431   1.662   1.723  12.660 -0.3635 -1.0335 -0.5220
 9006TIP3   OH248432   1.191   6.120   0.029 -0.5250 -0.4229 -0.4957
 9006TIP3    H148433   1.152   6.154   0.110 -0.8281 -0.3039 -0.6876
 9006TIP3    H248434   1.274   6.082   0.057  0.4323  1.5738 -0.4319
 9007TIP3   OH248435   1.769   2.350  15.895  0.2360 -0.2479 -0.3792
 9007TIP3    H148436   1.758   2.256  15.882  1.0637 -0.5228  0.6697
 9007TIP3    H248437   1.863   2.360  15.913  0.2906  0.8828 -1.1914
 9008TIP3   OH248438   5.521   2.441  16.912  0.3957  0.5310  0.1166
 9008TIP3    H148439   5.503   2.498  16.986  0.6221  1.4148 -0.4975
 9008TIP3    H248440   5.572   2.368  16.949  0.3989  0.8992  0.8457
 9009TIP3   OH248441   0.701   1.653   2.263  0.4851 -0.0142  0.1454
 9009TIP3    H148442   0.757   1.643   2.340 -0.4180  0.2329  0.8477
 9009TIP3    H248443   0.724   1.739   2.228  0.1190  0.3408  0.7771
 9010TIP3   OH248444   6.752   4.813  12.859 -0.2245 -0.0328 -0.7682
 9010TIP3    H148445   6.698   4.735  12.871 -0.8746  0.5017 -0.1858
 9010TIP3    H248446   6.842   4.779  12.855 -0.6474 -1.1942 -3.9316
 9011TIP3   OH248447   0.134   0.645  14.190 -0.0269 -0.6307  0.6955
 9011TIP3    H148448   0.108   0.723  14.238 -0.8406  0.5667 -1.5331
 9011TIP3    H248449   0.053   0.594  14.183  0.5591 -1.8832  2.3866
 9012TIP3   OH248450   5.048   1.922  13.056  0.5778 -0.5115 -0.4194
 9012TIP3    H148451   5.131   1.956  13.090  0.5863  0.7218 -1.5902
 9012TIP3    H248452   5.011   1.995  13.005 -2.5055 -0.0171  2.1531
 9013TIP3   OH248453   2.355   1.734   2.093 -0.5407 -0.5125  0.0894
 9013TIP3    H148454   2.438   1.713   2.051 -1.0932  0.2900 -1.4919
 9013TIP3    H248455   2.361   1.827   2.116 -0.7519 -0.6177  0.6028
 9014TIP3   OH248456   4.210   0.095   4.174 -0.7185 -0.2918 -0.1428
 9014TIP3    H148457   4.162   0.072   4.254  0.1132 -1.4561  0.0595
 9014TIP3    H248458   4.243   0.011   4.142  3.8997  0.5735  1.4940
 9015TIP3   OH248459   3.501   6.640  11.020 -0.1149 -0.3802  0.1933
 9015TIP3    H148460   3.443   6.699  10.973 -1.0290 -0.4223  1.2349
 9015TIP3    H248461   3.545   6.695  11.084 -1.3748 -0.8930  1.5354
 9016TIP3   OH248462   3.137   0.683  11.463  0.6550 -0.1752 -0.4934
 9016TIP3    H148463   3.228   0.653  11.466  0.9486  0.4392 -2.3958
 9016TIP3    H248464   3.096   0.630  11.395 -0.4817 -0.5221  0.4146
 9017TIP3   OH248465   3.082   5.306   4.746 -0.4355  0.1746  0.2754
 9017TIP3    H148466   3.058   5.369   4.813 -1.5857 -1.2834  1.3128
 9017TIP3    H248467   3.027   5.330   4.671 -3.0377 -1.2139  1.5991
 9018TIP3   OH248468   0.731   0.884   4.762 -0.3785  0.3422 -0.1662
 9018TIP3    H148469   0.667   0.828   4.805 -0.8831  0.9372 -0.1315
 9018TIP3    H248470   0.766   0.939   4.832  0.6480 -0.4229 -0.0665
 9019TIP3   OH248471   2.847   5.413  14.620 -0.4274  0.4902 -0.0163
 9019TIP3    H148472   2.763   5.398  14.576 -1.4015 -0.4955  2.0469
 9019TIP3    H248473   2.824   5.425  14.712  1.6244  1.2916  0.4485
 9020TIP3   OH248474   3.063   4.785  14.486 -0.2535  0.1858 -0.2951
 9020TIP3    H148475   3.073   4.833  14.568 -1.3754  0.4848 -0.3162
 9020TIP3    H248476   3.037   4.852  14.422  0.7712 -0.0088 -0.9536
 9021TIP3   OH248477   6.561   4.914   1.216 -0.0054  0.2890 -0.1316
 9021TIP3    H148478   6.595   4.923   1.305 -1.2804  0.9441  0.3062
 9021TIP3    H248479   6.510   4.993   1.201 -1.1750 -0.5621 -0.8189
 9022TIP3   OH248480   3.798   3.279   4.846  0.6628 -0.5528 -0.4135
 9022TIP3    H148481   3.749   3.197   4.855 -0.5229  0.1518 -0.1489
 9022TIP3    H248482   3.756   3.323   4.772  1.8102 -0.5321 -1.0596
 9023TIP3   OH248483   5.760   3.765   4.022  0.3393  0.1043  0.3906
 9023TIP3    H148484   5.675   3.807   4.007 -0.2153 -1.1735 -0.1702
 9023TIP3    H248485   5.758   3.688   3.966  2.1739  0.4476 -0.1943
 9024TIP3   OH248486   3.791   5.391  14.238  0.5213  0.0727 -0.1411
 9024TIP3    H148487   3.714   5.405  14.183  0.1657 -0.0332  0.3323
 9024TIP3    H248488   3.757   5.351  14.318  1.1515 -0.6459 -0.2233
 9025TIP3   OH248489   4.624   3.694   1.437  0.0541 -0.2645 -0.0285
 9025TIP3    H148490   4.615   3.600   1.417  0.8123 -0.1081 -1.2191
 9025TIP3    H248491   4.714   3.703   1.467 -0.5370 -0.1816  1.8790
 9026TIP3   OH248492   3.464   5.498  10.494  0.3977  0.8175 -0.3676
 9026TIP3    H148493   3.394   5.495  10.559 -0.1743 -0.1906 -1.0015
 9026TIP3    H248494   3.541   5.464  10.539 -0.0534 -0.0996 -0.2717
 9027TIP3   OH248495   5.546   3.358  11.290 -0.1447  0.0784 -0.6370
 9027TIP3    H148496   5.476   3.412  11.253 -0.7238 -0.5985 -0.5709
 9027TIP3    H248497   5.536   3.274  11.245  0.1827 -0.2446 -0.1149
 9028TIP3   OH248498   5.919   1.483  13.841 -0.6890  0.6853  0.2387
 9028TIP3    H148499   5.905   1.557  13.899 -2.5801 -0.1816  0.9708
 9028TIP3    H248500   5.892   1.407  13.893 -0.9992 -0.2663 -1.2590
 9029TIP3   OH248501   2.299   1.674  12.882 -0.2135 -0.4456  0.0369
 9029TIP3    H148502   2.208   1.649  12.863 -0.5765  0.9302 -0.1723
 9029TIP3    H248503   2.306   1.669  12.977 -0.9485  0.7674  0.1775
 9030TIP3   OH248504   4.218   6.234   5.906  0.0825  0.7650 -0.2175
 9030TIP3    H148505   4.135   6.281   5.916 -0.1932  0.3530 -0.5195
 9030TIP3    H248506   4.212   6.162   5.968 -0.0035  0.4455 -0.5869
 9031TIP3   OH248507   0.159   5.935  15.422  0.6492 -0.3952 -0.1521
 9031TIP3    H148508   0.077   5.903  15.385 -0.8970  1.5938  1.3581
 9031TIP3    H248509   0.138   6.022  15.457  3.9901  1.3815 -1.9339
 9032TIP3   OH248510   3.384   4.721   1.399  0.1733 -0.1584 -0.0471
 9032TIP3    H148511   3.386   4.627   1.381  1.5212 -0.0403 -0.6518
 9032TIP3    H248512   3.456   4.735   1.461  0.2767  0.5391 -0.3144
 9033TIP3   OH248513   6.714   1.674  12.902  0.3253  0.0964  0.6845
 9033TIP3    H148514   6.704   1.595  12.848  1.0232  0.4641 -0.0050
 9033TIP3    H248515   6.628   1.716  12.899  0.5558  0.5153 -0.8094
 9034TIP3   OH248516   4.870   5.123  12.696 -0.0687  0.5278  0.0486
 9034TIP3    H148517   4.887   5.181  12.622 -0.1383  1.3711  0.6754
 9034TIP3    H248518   4.861   5.036  12.657  1.2946  0.7317 -0.7825
 9035TIP3   OH248519   6.057   2.883  14.377  0.3489 -0.2129 -1.0952
 9035TIP3    H148520   6.122   2.836  14.323  0.5192 -1.6838  0.3126
 9035TIP3    H248521   6.107   2.915  14.452 -0.5216 -1.4737  0.0760
 9036TIP3   OH248522   0.959   4.706  11.910  0.6289  0.1410  0.4485
 9036TIP3    H148523   1.009   4.664  11.841 -0.5626  0.5374 -0.7180
 9036TIP3    H248524   1.003   4.681  11.991  3.3244  1.3244 -0.5284
 9037TIP3   OH248525   3.798   5.399  11.009 -0.4104 -0.0705 -0.0681
 9037TIP3    H148526   3.854   5.404  11.087  0.1734 -0.3135 -0.4637
 9037TIP3    H248527   3.821   5.478  10.959 -1.4617  0.5803  0.4387
 9038TIP3   OH248528   4.064   0.045  12.081 -0.6001 -0.4063 -0.1201
 9038TIP3    H148529   4.139   0.068  12.137  0.3866 -0.6473 -1.2916
 9038TIP3    H248530   4.024   0.128  12.059 -0.6428 -0.2661  0.4698
 9039TIP3   OH248531   6.766   2.573  14.878  0.0840 -0.6773 -0.3244
 9039TIP3    H148532   6.794   2.578  14.969  0.8802 -3.3010 -0.3359
 9039TIP3    H248533   6.847   2.583  14.828 -0.3480  0.7589 -0.7711
 9040TIP3   OH248534   3.583   4.534  10.744  0.6889  0.5724  0.6565
 9040TIP3    H148535   3.616   4.462  10.690  0.7401  2.2418 -1.6693
 9040TIP3    H248536   3.508   4.568  10.696  1.8703  3.3471  0.5548
 9041TIP3   OH248537   3.129   0.551   0.974 -0.1122 -0.1699  0.5467
 9041TIP3    H148538   3.141   0.574   0.882 -0.5933 -0.3417  0.4431
 9041TIP3    H248539   3.043   0.586   0.997 -0.3415 -0.8468  0.7120
 9042TIP3   OH248540   0.067   4.609   1.101 -0.1371 -0.3719  0.1428
 9042TIP3    H148541   0.094   4.694   1.067 -0.7225 -0.4668 -0.5821
 9042TIP3    H248542  -0.007   4.583   1.046 -0.5818 -0.9119  0.9711
 9043TIP3   OH248543   5.957   4.133  14.202  0.1244  0.1737 -0.7575
 9043TIP3    H148544   5.884   4.115  14.143  0.9896  0.5105 -1.9886
 9043TIP3    H248545   5.995   4.046  14.220 -0.6250 -0.0094 -0.0389
 9044TIP3   OH248546   0.004   6.187  14.707  0.9447 -0.7186 -0.3211
 9044TIP3    H148547   0.068   6.249  14.671 -0.6252  0.1539 -1.7893
 9044TIP3    H248548  -0.071   6.242  14.731  0.6683 -1.7210  1.2161
 9045TIP3   OH248549   1.224   3.725  13.768 -0.6684  0.2172 -0.1444
 9045TIP3    H148550   1.181   3.745  13.684  1.7087  0.7209 -1.3277
 9045TIP3    H248551   1.224   3.808  13.815 -2.9400 -0.2966  0.8833
 9046TIP3   OH248552   4.115   5.267  16.304 -0.3471  0.4180 -0.6385
 9046TIP3    H148553   4.043   5.218  16.344 -0.3802  0.7888 -0.2378
 9046TIP3    H248554   4.153   5.206  16.241 -1.4978  0.4648 -1.4181
 9047TIP3   OH248555   2.210   4.299  16.029  0.8255 -0.1421 -0.2055
 9047TIP3    H148556   2.194   4.326  16.119 -0.6101  0.4068 -0.5964
 9047TIP3    H248557   2.213   4.203  16.033 -2.8405 -0.3900 -0.0180
 9048TIP3   OH248558   0.791   0.263  13.666 -0.3001 -0.0920 -0.1473
 9048TIP3    H148559   0.832   0.186  13.628 -0.9618 -0.5326  0.0086
 9048TIP3    H248560   0.703   0.264  13.627  0.0951  1.2591 -1.0765
 9049TIP3   OH248561   5.080   0.368  14.647  0.1330 -0.2090 -1.1756
 9049TIP3    H148562   5.014   0.319  14.599 -0.7767 -0.5002  0.3243
 9049TIP3    H248563   5.161   0.318  14.635 -0.4957 -1.3314 -0.8008
 9050TIP3   OH248564   0.323   5.395   2.947  0.2496  0.2037  0.1983
 9050TIP3    H148565   0.355   5.481   2.921  0.9857  0.0093  0.4329
 9050TIP3    H248566   0.386   5.365   3.013 -0.7213  0.0435  1.0856
 9051TIP3   OH248567   2.933   3.313  15.110 -0.2845 -0.1862 -0.6172
 9051TIP3    H148568   2.918   3.407  15.102 -0.4210 -0.2381 -0.9878
 9051TIP3    H248569   3.024   3.305  15.138  0.0142  0.0349 -1.4764
 9052TIP3   OH248570   3.761   3.213   2.206  0.7214 -0.2851  0.1014
 9052TIP3    H148571   3.852   3.201   2.232  0.3022  0.2410  1.9221
 9052TIP3    H248572   3.735   3.295   2.247 -1.3204 -1.7217  1.9158
 9053TIP3   OH248573   4.421   2.305   5.543  0.2623  0.1777  0.1115
 9053TIP3    H148574   4.387   2.219   5.569 -0.3866  0.6081  0.7007
 9053TIP3    H248575   4.348   2.365   5.555  0.3852  0.6624 -1.2869
 9054TIP3   OH248576   1.601   5.694  11.845  0.4944  0.0708  0.3510
 9054TIP3    H148577   1.553   5.768  11.881  1.3260  0.5792  0.4223
 9054TIP3    H248578   1.595   5.626  11.913 -0.4917 -0.0305  0.1716
 9055TIP3   OH248579   4.286   3.270   2.595 -0.0016 -0.1460 -0.2985
 9055TIP3    H148580   4.292   3.270   2.499  0.3442 -0.8762 -0.2890
 9055TIP3    H248581   4.227   3.197   2.615  2.5150 -2.1940  0.1399
 9056TIP3   OH248582   1.838   3.890   4.786 -0.0450  0.7715  0.0500
 9056TIP3    H148583   1.744   3.876   4.794  0.0066 -0.0563 -0.5704
 9056TIP3    H248584   1.875   3.850   4.865 -0.1722  0.6178  0.0324
 9057TIP3   OH248585   4.606   3.917   0.530  0.1914 -0.7498 -0.4292
 9057TIP3    H148586   4.641   3.900   0.617 -0.5946  0.4686  0.1632
 9057TIP3    H248587   4.531   3.858   0.521 -2.3094  1.8362  1.4601
 9058TIP3   OH248588   0.826   0.170   6.448  0.0203 -0.0920  0.1383
 9058TIP3    H148589   0.752   0.226   6.472 -0.6569 -1.2422  0.8516
 9058TIP3    H248590   0.875   0.160   6.529  0.7680  0.3529 -0.2463
 9059TIP3   OH248591   2.771   0.343   0.696 -0.4726  0.1880 -0.3535
 9059TIP3    H148592   2.864   0.362   0.710 -0.6870  0.0925  1.5675
 9059TIP3    H248593   2.727   0.428   0.709 -0.7255  0.0598 -0.3572
 9060TIP3   OH248594   0.516   6.339  16.737  0.2673 -0.4765 -0.5513
 9060TIP3    H148595   0.556   6.311  16.820  0.2838 -0.5505 -0.5842
 9060TIP3    H248596   0.432   6.294  16.735 -0.1872  0.3401 -0.0907
 9061TIP3   OH248597   3.659   2.392   0.516 -0.2419  0.4255  0.4745
 9061TIP3    H148598   3.752   2.378   0.498 -0.2961  0.2964  0.2954
 9061TIP3    H248599   3.631   2.452   0.446 -0.1983  0.7910  0.7665
 9062TIP3   OH248600   2.200   5.108   2.608 -0.5749 -0.2999  0.1704
 9062TIP3    H148601   2.295   5.116   2.616 -0.5922 -0.7772  0.9433
 9062TIP3    H248602   2.187   5.057   2.529 -0.2790  1.6536 -1.2212
 9063TIP3   OH248603   2.164   3.176   3.365 -0.2533  0.2057 -0.5057
 9063TIP3    H148604   2.159   3.263   3.323  0.5215  1.5568  2.0209
 9063TIP3    H248605   2.257   3.154   3.363  0.0075  0.9462  1.6485
 9064TIP3   OH248606   0.048   1.036   2.350  0.4801 -1.0612  0.2334
 9064TIP3    H148607   0.131   1.023   2.304  0.1413 -0.3828 -0.6017
 9064TIP3    H248608   0.026   1.128   2.335  0.8642 -0.5067  2.6539
 9065TIP3   OH248609   4.832   1.657  16.877  0.2230  0.5314  0.5411
 9065TIP3    H148610   4.800   1.744  16.853  0.3708  0.3395 -0.3816
 9065TIP3    H248611   4.803   1.600  16.806  0.1835 -0.1689  1.1060
 9066TIP3   OH248612   3.624   0.181  15.423  0.4740  0.3336  0.1465
 9066TIP3    H148613   3.537   0.183  15.383  0.8733 -0.3391 -0.8135
 9066TIP3    H248614   3.620   0.246  15.493 -0.8174  0.2623  0.1727
 9067TIP3   OH248615   6.234   6.116  10.972  0.2003 -0.5752  0.2040
 9067TIP3    H148616   6.232   6.113  11.067  1.8659 -2.0232  0.2373
 9067TIP3    H248617   6.155   6.068  10.945  0.3231 -1.1629  0.8612
 9068TIP3   OH248618   4.161   4.054  14.531  0.0409 -0.0187  0.3921
 9068TIP3    H148619   4.142   4.138  14.574  1.1402  0.8841 -0.8053
 9068TIP3    H248620   4.255   4.057  14.513  0.1674 -1.6746  0.6070
 9069TIP3   OH248621   5.071   1.714  15.685 -0.9365 -0.5292  0.3308
 9069TIP3    H148622   4.978   1.739  15.684 -1.1754 -1.3537  0.4885
 9069TIP3    H248623   5.072   1.627  15.645 -0.1561 -0.3146 -0.1358
 9070TIP3   OH248624   3.180   4.971   6.068 -0.1120 -0.8479  0.2494
 9070TIP3    H148625   3.261   4.935   6.032 -0.3624 -0.7657 -0.4001
 9070TIP3    H248626   3.143   5.023   5.997 -0.2999 -0.1718  0.8312
 9071TIP3   OH248627   0.041   3.415   5.618  0.3983  0.3163 -0.0413
 9071TIP3    H148628   0.100   3.485   5.592 -0.8503  1.1845 -0.6471
 9071TIP3    H248629   0.067   3.341   5.564  0.6920  0.7946 -0.5704
 9072TIP3   OH248630   2.699   3.179   0.701 -0.5294 -0.3695 -0.2613
 9072TIP3    H148631   2.679   3.261   0.656 -0.7198  0.5354  1.3979
 9072TIP3    H248632   2.792   3.164   0.682 -0.2967  0.6348  0.0022
 9073TIP3   OH248633   4.396   6.579  12.882  0.0554 -0.4200  0.0441
 9073TIP3    H148634   4.414   6.593  12.789  3.9455  1.6194  0.8826
 9073TIP3    H248635   4.451   6.504  12.907 -0.7326 -0.7759  0.7507
 9074TIP3   OH248636   3.988   4.271  14.732  0.0131 -0.2611 -0.0566
 9074TIP3    H148637   3.947   4.355  14.752 -2.5859 -0.5211 -3.2971
 9074TIP3    H248638   3.949   4.210  14.794 -0.7068  0.3963  0.1529
 9075TIP3   OH248639   4.454   3.407  11.481  0.2099  0.0417  0.0654
 9075TIP3    H148640   4.486   3.497  11.490 -0.5059  0.1597  2.0821
 9075TIP3    H248641   4.435   3.397  11.388  1.0918  1.6911 -0.3342
 9076TIP3   OH248642   5.236   2.959   0.679 -0.0645 -0.4620  0.5860
 9076TIP3    H148643   5.309   2.970   0.740  2.1551  0.1133 -1.9214
 9076TIP3    H248644   5.269   2.897   0.614 -0.7304  1.6806 -1.9977
 9077TIP3   OH248645   5.185   0.330  11.767  0.8512  0.1418 -0.7679
 9077TIP3    H148646   5.257   0.285  11.812 -0.3697 -2.6193 -1.4092
 9077TIP3    H248647   5.108   0.276  11.785 -0.4085  1.0887 -2.9850
 9078TIP3   OH248648   6.355   1.181   2.918 -0.5836 -0.0953  0.3363
 9078TIP3    H148649   6.414   1.244   2.877 -1.4371 -0.7279 -2.0523
 9078TIP3    H248650   6.412   1.117   2.959  0.6164 -1.3739 -2.9358
 9079TIP3   OH248651   6.381   1.094   4.770  0.0352 -0.4013 -0.1385
 9079TIP3    H148652   6.349   1.010   4.737 -0.6859  0.0974 -0.7454
 9079TIP3    H248653   6.302   1.145   4.784  0.5224  0.5619 -0.8234
 9080TIP3   OH248654   5.498   2.221   5.313  0.4790  0.2041 -0.3679
 9080TIP3    H148655   5.531   2.141   5.354 -0.0570 -0.0820 -0.4857
 9080TIP3    H248656   5.450   2.265   5.383  2.6662  1.5865  0.3660
 9081TIP3   OH248657   0.913   2.708  13.068  0.1764 -0.4317 -0.8049
 9081TIP3    H148658   0.868   2.792  13.056 -0.8632 -0.6025  1.3246
 9081TIP3    H248659   0.982   2.727  13.132 -0.9712 -1.4310  0.7981
 9082TIP3   OH248660   1.968   3.337   1.836 -0.1424  0.4434  0.3023
 9082TIP3    H148661   1.981   3.399   1.907 -0.9824  1.9291 -0.7921
 9082TIP3    H248662   1.902   3.377   1.780 -1.1185 -1.6870 -0.1879
 9083TIP3   OH248663   3.006   1.120  16.723 -0.0599 -0.2246 -0.4338
 9083TIP3    H148664   2.977   1.061  16.654  1.6658 -1.2417 -0.3640
 9083TIP3    H248665   3.054   1.190  16.677  0.6291 -0.6155 -0.3304
 9084TIP3   OH248666   0.405   1.479   0.191  0.1135 -0.1137  0.5766
 9084TIP3    H148667   0.475   1.431   0.236 -1.4234 -1.1981  1.9061
 9084TIP3    H248668   0.419   1.571   0.217  1.5818 -0.1687  0.0487
 9085TIP3   OH248669   0.404   0.004  16.346  0.2076 -0.6773 -0.6847
 9085TIP3    H148670   0.428  -0.012  16.255 -0.0089 -0.8976 -0.7042
 9085TIP3    H248671   0.334  -0.059  16.364 -0.4073 -0.0014 -0.6552
 9086TIP3   OH248672   2.338   2.521  14.699 -0.1849 -0.3698 -0.0980
 9086TIP3    H148673   2.378   2.440  14.670 -1.3399 -0.3194 -2.0219
 9086TIP3    H248674   2.340   2.517  14.794  1.6266 -1.6885 -0.1540
 9087TIP3   OH248675   5.904   4.589  15.378 -0.3645 -0.0078 -0.6395
 9087TIP3    H148676   5.933   4.519  15.436  3.0633  1.6308 -0.1565
 9087TIP3    H248677   5.909   4.550  15.290 -1.3185 -1.1752 -0.2071
 9088TIP3   OH248678   3.408   6.297  13.320 -0.2294 -0.6537  0.5458
 9088TIP3    H148679   3.397   6.365  13.253  0.0195  0.0060  1.1647
 9088TIP3    H248680   3.319   6.267  13.338 -0.2511 -1.2818 -0.5224
 9089TIP3   OH248681   4.174   4.582  17.244  0.3470 -0.1714 -0.7305
 9089TIP3    H148682   4.114   4.631  17.188  0.4015 -0.7216 -1.2704
 9089TIP3    H248683   4.118   4.521  17.292  0.3699 -0.0842 -0.5905
 9090TIP3   OH248684   5.628   3.588   5.763 -0.0766  0.2435 -0.3120
 9090TIP3    H148685   5.681   3.544   5.829  0.8261 -0.8308 -1.7162
 9090TIP3    H248686   5.625   3.679   5.792  0.2834 -0.1876  1.1968
 9091TIP3   OH248687   3.599   2.567  12.913 -0.0842 -0.2651 -0.3214
 9091TIP3    H148688   3.691   2.540  12.924  0.0054  0.7078  1.5549
 9091TIP3    H248689   3.552   2.484  12.900  0.9855 -0.8020 -1.0035
 9092TIP3   OH248690   5.035   6.614  12.482 -0.2903  0.5616 -0.7176
 9092TIP3    H148691   4.996   6.679  12.539 -1.9390 -0.0330 -1.1119
 9092TIP3    H248692   5.019   6.647  12.393 -0.8652 -0.2075 -0.9097
 9093TIP3   OH248693   3.927   3.750  14.877 -0.2794 -0.2676 -0.6956
 9093TIP3    H148694   4.000   3.707  14.833 -0.3563 -3.1333  1.6778
 9093TIP3    H248695   3.968   3.815  14.934  0.4305 -1.5079  0.2475
 9094TIP3   OH248696   5.252   6.420  13.473 -0.4444  0.2649 -0.0627
 9094TIP3    H148697   5.339   6.397  13.441 -0.4258 -0.6814  0.6289
 9094TIP3    H248698   5.215   6.476  13.404  0.2647 -0.2652 -0.8960
 9095TIP3   OH248699   2.498   2.648   2.604  0.1494  0.1563  0.0458
 9095TIP3    H148700   2.588   2.655   2.571  0.1162  0.0699 -0.0643
 9095TIP3    H248701   2.488   2.722   2.663  0.0228  0.6347 -0.5755
 9096TIP3   OH248702   4.091   5.200   0.838 -0.3982  0.5322  0.5256
 9096TIP3    H148703   4.169   5.159   0.876  0.9808  2.2170 -0.3383
 9096TIP3    H248704   4.083   5.161   0.751 -1.0206 -0.2404  0.9254
 9097TIP3   OH248705   3.091   5.941   1.380 -0.2941  0.3452  0.4869
 9097TIP3    H148706   3.026   5.988   1.432  0.2951  0.2812  1.2923
 9097TIP3    H248707   3.150   6.009   1.348 -2.2399  0.8042 -2.5612
 9098TIP3   OH248708   0.449   6.308  13.913  0.4407  0.6128  0.1209
 9098TIP3    H148709   0.467   6.358  13.833 -0.1295 -0.2309 -0.5590
 9098TIP3    H248710   0.509   6.233  13.908 -0.0276  0.2298  0.1693
 9099TIP3   OH248711   5.001   6.592   4.328 -0.4161 -0.4048 -0.2603
 9099TIP3    H148712   5.018   6.597   4.422  1.1268 -0.1715 -0.5196
 9099TIP3    H248713   5.044   6.669   4.292  0.0535 -1.1155 -1.2802
 9100TIP3   OH248714   2.219   1.649   3.596  0.3003  0.2464  0.6883
 9100TIP3    H148715   2.212   1.566   3.643 -0.0128  0.8366  1.7296
 9100TIP3    H248716   2.159   1.708   3.642  1.4183  1.3890  0.7529
 9101TIP3   OH248717   4.478   4.783   4.264  0.4829 -0.2621  0.0591
 9101TIP3    H148718   4.571   4.804   4.251  0.5764 -0.4843  0.3825
 9101TIP3    H248719   4.433   4.867   4.250  0.5981 -0.4304 -1.4740
 9102TIP3   OH248720   0.600   4.644   1.220  0.0826 -0.2271  0.0585
 9102TIP3    H148721   0.664   4.581   1.253 -1.2287 -0.9909  1.2303
 9102TIP3    H248722   0.626   4.727   1.260  2.0162  0.1262 -1.7544
 9103TIP3   OH248723   1.246   2.592   1.430  0.8364 -0.1903 -0.8673
 9103TIP3    H148724   1.287   2.661   1.378 -1.0834  0.6517 -1.3263
 9103TIP3    H248725   1.191   2.544   1.367 -0.7439  0.2257  0.1502
 9104TIP3   OH248726   0.199   2.244  16.107  0.1644 -0.4079 -0.2230
 9104TIP3    H148727   0.240   2.262  16.192 -1.0134  1.1196  0.0532
 9104TIP3    H248728   0.128   2.183  16.128  0.0324 -0.2298 -0.1536
 9105TIP3   OH248729   1.571   6.473  16.928  0.2029  0.2127  0.1876
 9105TIP3    H148730   1.642   6.469  16.864  0.1612  1.9418 -0.0076
 9105TIP3    H248731   1.506   6.411  16.895 -0.4607  2.0908 -2.2857
 9106TIP3   OH248732   3.114   4.653  16.443 -0.0154  0.1973  0.3081
 9106TIP3    H148733   3.096   4.631  16.534 -2.1063  1.0306  0.1400
 9106TIP3    H248734   3.052   4.722  16.422 -1.9140 -2.1774 -2.7299
 9107TIP3   OH248735   1.415   2.983  11.645 -0.4152 -0.0376  0.6005
 9107TIP3    H148736   1.357   3.054  11.672  0.4093  0.3412  1.4444
 9107TIP3    H248737   1.416   2.923  11.720 -1.0058 -0.8978 -0.0513
 9108TIP3   OH248738   3.138   4.725   5.860  0.3585 -0.2614 -0.2246
 9108TIP3    H148739   3.091   4.787   5.915 -0.4960 -0.4866 -0.6788
 9108TIP3    H248740   3.101   4.738   5.772  1.4101 -0.1886 -0.6673
 9109TIP3   OH248741   0.885   2.061   4.789 -0.3729  0.1135 -0.6326
 9109TIP3    H148742   0.901   2.066   4.695  1.0326 -0.6610 -0.4672
 9109TIP3    H248743   0.935   2.133   4.826  0.0050 -0.2689 -0.3890
 9110TIP3   OH248744   1.851   2.406   6.501 -0.3863 -0.2944 -0.5988
 9110TIP3    H148745   1.886   2.319   6.524  0.4893 -0.0314 -0.8921
 9110TIP3    H248746   1.758   2.391   6.484 -0.4907 -0.9679  0.4935
 9111TIP3   OH248747   1.716   0.277  16.347  0.1115 -0.4728 -0.5796
 9111TIP3    H148748   1.754   0.338  16.411 -3.1668 -0.6880  1.8840
 9111TIP3    H248749   1.770   0.198  16.353  0.1288 -0.3604  1.8239
 9112TIP3   OH248750   3.882   4.895  12.795 -0.0270  0.9587 -0.4275
 9112TIP3    H148751   3.786   4.898  12.796 -0.0528  0.2339 -0.0059
 9112TIP3    H248752   3.905   4.910  12.703 -0.5954  0.0764 -0.7336
 9113TIP3   OH248753   3.537   1.163  12.659  0.1449 -0.3098  0.0394
 9113TIP3    H148754   3.630   1.185  12.658  0.0202  0.6358  2.1156
 9113TIP3    H248755   3.521   1.135  12.749 -1.5190 -0.7681 -0.3681
 9114TIP3   OH248756   5.688   5.113  16.109  0.1095 -0.4627 -0.4920
 9114TIP3    H148757   5.691   5.059  16.188 -1.7097  1.4715  1.0035
 9114TIP3    H248758   5.708   5.201  16.139  0.6149  0.1255 -2.4350
 9115TIP3   OH248759   0.793   5.499  12.061  0.1379 -0.1628 -0.3738
 9115TIP3    H148760   0.750   5.565  12.006 -1.9983 -1.5216 -0.4819
 9115TIP3    H248761   0.773   5.416  12.017  0.4240 -1.0915  1.1737
 9116TIP3   OH248762   0.771   3.911  11.797  0.9177 -0.0060  0.0492
 9116TIP3    H148763   0.776   3.826  11.754  0.4758  0.2530 -0.5290
 9116TIP3    H248764   0.756   3.973  11.726 -0.7380  0.3352  0.6558
 9117TIP3   OH248765   3.631   1.441  15.985 -0.8200  0.3340  0.0478
 9117TIP3    H148766   3.613   1.357  16.027  0.0058  0.1198 -0.0152
 9117TIP3    H248767   3.544   1.481  15.974 -1.2936 -0.8274 -0.6094
 9118TIP3   OH248768   3.266   1.014   3.976  0.5626 -0.3428  0.2348
 9118TIP3    H148769   3.188   0.995   4.028  1.8516 -0.8009  2.0982
 9118TIP3    H248770   3.242   0.990   3.886 -0.6477 -2.7661  1.1357
 9119TIP3   OH248771   0.451   5.844  11.796  0.1403 -0.1102  0.1536
 9119TIP3    H148772   0.407   5.835  11.880  1.0050  0.4323  0.6786
 9119TIP3    H248773   0.543   5.831  11.816  0.4615  1.0010 -0.5367
 9120TIP3   OH248774   4.511   2.181  15.986 -1.0935 -0.1445  0.0619
 9120TIP3    H148775   4.468   2.096  15.975 -1.1336 -0.1926  0.5409
 9120TIP3    H248776   4.549   2.201  15.901 -0.5056 -0.9634  0.1204
 9121TIP3   OH248777   5.724   5.413   0.785  0.5284  0.1390  0.1850
 9121TIP3    H148778   5.774   5.336   0.757 -1.4562 -1.0496 -0.3162
 9121TIP3    H248779   5.687   5.388   0.869 -2.2992 -0.6225 -1.1516
 9122TIP3   OH248780   2.943   5.843   3.778 -0.0462  0.4125 -0.6910
 9122TIP3    H148781   3.003   5.770   3.795  0.4601  0.8470 -0.5770
 9122TIP3    H248782   2.944   5.893   3.860 -0.9511  0.1616 -0.5121
 9123TIP3   OH248783   2.265   5.238   3.802 -0.6552  0.0511 -0.2089
 9123TIP3    H148784   2.289   5.330   3.814  0.5579 -0.2467 -0.2049
 9123TIP3    H248785   2.308   5.212   3.720 -0.4297 -0.6731  0.1221
 9124TIP3   OH248786   1.779   4.989   0.538 -0.4671  0.2984  0.0156
 9124TIP3    H148787   1.781   5.065   0.597 -2.0580  1.4829 -1.3443
 9124TIP3    H248788   1.826   5.019   0.461 -0.2843 -0.4566 -0.1647
 9125TIP3   OH248789   0.602   0.421   2.358 -0.5208 -0.1941 -0.0792
 9125TIP3    H148790   0.645   0.399   2.275  2.2467  1.4593  0.7833
 9125TIP3    H248791   0.554   0.502   2.338 -1.6122 -0.9308 -0.5371
 9126TIP3   OH248792   5.327   3.526  15.681 -0.1603 -0.2640  0.4373
 9126TIP3    H148793   5.375   3.551  15.602 -1.3453 -0.4566 -0.3530
 9126TIP3    H248794   5.312   3.609  15.727  1.1383 -0.2244  0.8491
 9127TIP3   OH248795   5.647   0.479  13.901  0.5017 -0.1227 -0.5425
 9127TIP3    H148796   5.664   0.465  13.808  0.7230  0.2631 -0.5663
 9127TIP3    H248797   5.675   0.570  13.916 -1.0773  0.3753 -0.4625
 9128TIP3   OH248798   2.634   6.642  15.625 -0.1330 -0.6353 -0.2154
 9128TIP3    H148799   2.556   6.590  15.605 -0.6834  0.0896  0.0183
 9128TIP3    H248800   2.615   6.682  15.710  0.1480  0.2060 -0.5422
 9129TIP3   OH248801   4.411   3.757   4.804  0.5137  0.1880 -0.3416
 9129TIP3    H148802   4.364   3.706   4.738  0.3923 -0.7706  0.4621
 9129TIP3    H248803   4.457   3.825   4.754 -0.5135  0.2164 -1.2841
 9130TIP3   OH248804   2.649   0.077   2.425  0.1236  0.0554 -0.1286
 9130TIP3    H148805   2.711   0.059   2.355  0.3440 -0.8956  0.2850
 9130TIP3    H248806   2.581   0.010   2.415 -0.5567  0.7449 -0.2444
 9131TIP3   OH248807   5.733   4.646   2.469 -1.0974  0.4146 -0.8038
 9131TIP3    H148808   5.760   4.664   2.379 -1.1409 -0.7985 -1.0649
 9131TIP3    H248809   5.786   4.705   2.522 -1.0568  1.1314 -1.6117
 9132TIP3   OH248810   6.579   6.271  10.815  0.2381  0.0785 -0.0334
 9132TIP3    H148811   6.574   6.176  10.829 -0.7803 -0.0038 -0.7939
 9132TIP3    H248812   6.540   6.284  10.728  0.3603  1.2019  0.0671
 9133TIP3   OH248813   2.783   5.884   6.455 -0.2970  0.1354 -0.0207
 9133TIP3    H148814   2.832   5.804   6.438 -0.6854 -0.0235 -0.4304
 9133TIP3    H248815   2.844   5.955   6.436 -0.3448 -0.0528 -0.9236
 9134TIP3   OH248816   3.621   1.388  15.607  0.1146  0.0712  0.6197
 9134TIP3    H148817   3.690   1.400  15.672 -0.4740 -0.0938  1.2776
 9134TIP3    H248818   3.666   1.401  15.523  0.9081  0.1438  1.0410
 9135TIP3   OH248819   5.095   3.662   1.626 -0.1890  0.6099 -0.1342
 9135TIP3    H148820   5.164   3.727   1.617 -0.7372  0.9877 -1.9671
 9135TIP3    H248821   5.138   3.579   1.608 -0.4480  0.9831 -2.7921
 9136TIP3   OH248822   2.940   5.334   0.666 -0.0923  0.1149  0.1436
 9136TIP3    H148823   2.907   5.258   0.618  0.6250  0.8878 -1.6581
 9136TIP3    H248824   3.018   5.361   0.618  0.3303  1.3157  1.4278
 9137TIP3   OH248825   5.493   1.345   5.444 -0.0413 -0.3901 -0.0749
 9137TIP3    H148826   5.510   1.308   5.531 -1.2314 -1.5550 -0.3067
 9137TIP3    H248827   5.555   1.300   5.386  0.3527 -0.0351  0.0626
 9138TIP3   OH248828   4.081   0.219  15.553  0.0912 -0.3739  0.3077
 9138TIP3    H148829   4.007   0.193  15.497 -0.8738  0.4557  1.1408
 9138TIP3    H248830   4.066   0.312  15.569  0.6133 -0.4924  1.5487
 9139TIP3   OH248831   0.677   1.582  16.170  0.2323  0.0959 -0.7246
 9139TIP3    H148832   0.661   1.492  16.139  2.1246 -0.8406  0.7971
 9139TIP3    H248833   0.761   1.606  16.130  0.4591  0.6071  0.0492
 9140TIP3   OH248834   3.952   5.821  10.501 -0.3924  0.3890  0.6473
 9140TIP3    H148835   3.874   5.777  10.535  1.1206 -1.3849  2.0524
 9140TIP3    H248836   3.934   5.915  10.513 -1.8348 -0.0217  2.0766
 9141TIP3   OH248837   1.694   2.441   1.020 -0.4726 -0.2825  0.3629
 9141TIP3    H148838   1.706   2.504   1.091  0.7260 -0.2752  0.1791
 9141TIP3    H248839   1.639   2.372   1.058 -0.0987 -0.1323  1.2097
 9142TIP3   OH248840   6.574   4.373  11.866  0.3992  0.1232  0.5351
 9142TIP3    H148841   6.537   4.459  11.844  0.6437  0.2355  0.5589
 9142TIP3    H248842   6.649   4.393  11.922  0.5575 -0.0968  0.4039
 9143TIP3   OH248843   3.241   1.600  14.276  0.6606 -0.2093 -0.5429
 9143TIP3    H148844   3.256   1.608  14.182  0.7939  0.3617 -0.4826
 9143TIP3    H248845   3.166   1.542  14.284  0.7947 -0.4505 -0.9922
 9144TIP3   OH248846   2.784   4.756  11.235  0.0103  0.0667  0.5912
 9144TIP3    H148847   2.794   4.703  11.156  3.2238 -0.5429  1.2535
 9144TIP3    H248848   2.804   4.845  11.207  2.4335 -0.3320  0.8406
 9145TIP3   OH248849   1.587   4.264   4.952  0.4624 -0.2437 -0.5366
 9145TIP3    H148850   1.546   4.227   4.874  1.0359  0.6002 -1.2564
 9145TIP3    H248851   1.575   4.358   4.944 -0.5753 -0.1894  1.0436
 9146TIP3   OH248852   5.706   0.882  12.257  0.1120  0.0081  0.3392
 9146TIP3    H148853   5.667   0.918  12.337 -1.4359 -0.6496 -0.0949
 9146TIP3    H248854   5.791   0.848  12.286  0.2021  1.0299  1.4079
 9147TIP3   OH248855   2.596   3.903  15.254  0.1664 -0.1555 -0.4200
 9147TIP3    H148856   2.527   3.969  15.253  0.9466  0.7094  0.4735
 9147TIP3    H248857   2.677   3.954  15.261  0.9080 -1.1453 -1.4641
 9148TIP3   OH248858   0.370   2.312   5.775  0.1948 -0.4518  0.0139
 9148TIP3    H148859   0.403   2.266   5.852 -0.3358 -1.6153 -0.4182
 9148TIP3    H248860   0.283   2.273   5.760  0.2635 -0.2044 -1.1245
 9149TIP3   OH248861   1.150   4.825  13.629  0.6737 -0.5160  0.6967
 9149TIP3    H148862   1.156   4.869  13.714 -0.9525  0.5968  0.2719
 9149TIP3    H248863   1.161   4.732  13.649  0.5239 -0.2514  2.0918
 9150TIP3   OH248864   1.556   3.414  11.704 -0.1980 -0.3775  0.1860
 9150TIP3    H148865   1.519   3.433  11.618  0.9802 -0.2412 -0.2994
 9150TIP3    H248866   1.626   3.478  11.716  0.0300 -0.7561  1.0010
 9151TIP3   OH248867   2.485   4.524   3.750  0.0606  0.0874  0.8130
 9151TIP3    H148868   2.575   4.526   3.782 -0.0163  1.5666  0.9732
 9151TIP3    H248869   2.454   4.614   3.756 -1.4253 -0.3796  0.7044
 9152TIP3   OH248870   6.142   6.272  15.343  0.0724  0.0391 -0.5992
 9152TIP3    H148871   6.131   6.366  15.328 -1.5206 -0.1888 -1.0851
 9152TIP3    H248872   6.197   6.266  15.420 -0.1330  1.3915 -0.3285
 9153TIP3   OH248873   2.492   4.926  14.697 -0.2162 -0.2922 -0.5320
 9153TIP3    H148874   2.477   4.921  14.792  0.4200  0.0603 -0.4113
 9153TIP3    H248875   2.580   4.892  14.684 -1.3960 -3.4193 -1.3782
 9154TIP3   OH248876   1.057   1.475  15.905 -0.5691 -0.4102  0.8608
 9154TIP3    H148877   1.050   1.384  15.934  1.0754 -0.9360 -0.2678
 9154TIP3    H248878   1.108   1.471  15.825 -2.2292  1.3169 -0.3789
 9155TIP3   OH248879   4.333   6.570   3.375 -0.0106  0.0070  0.3132
 9155TIP3    H148880   4.315   6.594   3.284  0.5002  0.5746  0.3603
 9155TIP3    H248881   4.364   6.480   3.371 -2.9011 -1.0845  0.2251
 9156TIP3   OH248882   2.419   2.815  11.794 -0.0382 -0.5910  0.8854
 9156TIP3    H148883   2.514   2.812  11.781 -0.1982  1.9115 -1.9280
 9156TIP3    H248884   2.388   2.728  11.767  1.2707 -0.6733 -0.4630
 9157TIP3   OH248885   5.700   2.941   2.739 -0.0812 -0.2598 -0.6481
 9157TIP3    H148886   5.656   3.002   2.681 -0.7461 -0.2274 -0.1275
 9157TIP3    H248887   5.630   2.906   2.795  0.0808 -2.2540 -1.5781
 9158TIP3   OH248888   2.061   3.754   5.687 -0.0650 -0.1185 -0.3689
 9158TIP3    H148889   2.001   3.681   5.699  1.3130 -1.3158 -0.4200
 9158TIP3    H248890   2.032   3.821   5.748 -0.7128 -1.1464  0.4625
 9159TIP3   OH248891   3.196   2.453  11.742  0.6127 -0.0231  0.2040
 9159TIP3    H148892   3.119   2.491  11.700  1.1698  0.6283 -0.2404
 9159TIP3    H248893   3.267   2.464  11.679  1.4918  1.0453  1.3268
 9160TIP3   OH248894   6.489   1.556  14.101 -0.0107 -0.1962 -0.3435
 9160TIP3    H148895   6.506   1.571  14.008 -0.5377  1.5777 -0.1843
 9160TIP3    H248896   6.559   1.603  14.146  0.3571 -1.2088  0.1826
 9161TIP3   OH248897   3.919   3.925   0.339 -0.0683  0.6201  0.3567
 9161TIP3    H148898   3.945   3.892   0.253  0.3190 -0.1834  0.7726
 9161TIP3    H248899   3.875   3.851   0.381  1.6862  0.2796  1.6917
 9162TIP3   OH248900   2.436   4.656   2.445  0.4113  0.3526  0.0138
 9162TIP3    H148901   2.495   4.697   2.382  0.7270 -1.1947 -0.7567
 9162TIP3    H248902   2.350   4.660   2.403  0.5734 -0.4196 -0.4199
 9163TIP3   OH248903   3.588   2.511  16.649 -0.3136 -0.3210  0.8249
 9163TIP3    H148904   3.523   2.580  16.665  2.3774  1.8192  3.6420
 9163TIP3    H248905   3.560   2.439  16.706 -2.5227 -1.3016 -1.3098
 9164TIP3   OH248906   0.606   3.343   2.716 -0.2958  0.3413  0.5009
 9164TIP3    H148907   0.615   3.409   2.647  1.3579  0.4838  0.8276
 9164TIP3    H248908   0.532   3.373   2.768 -1.6791  0.1698 -1.2447
 9165TIP3   OH248909   5.317   4.356   4.290  0.2097 -0.0820 -0.4092
 9165TIP3    H148910   5.358   4.270   4.292 -0.4713 -0.5193 -2.7125
 9165TIP3    H248911   5.233   4.343   4.246 -1.0011  1.3791  1.2770
 9166TIP3   OH248912   0.874   0.441   6.005 -0.0397 -0.1591 -0.5807
 9166TIP3    H148913   0.784   0.422   6.030 -1.8496  4.9389 -1.9550
 9166TIP3    H248914   0.913   0.481   6.083  1.4396 -2.8273  0.1921
 9167TIP3   OH248915   2.569   6.644  14.668 -0.1257 -0.0077  0.3707
 9167TIP3    H148916   2.645   6.599  14.704 -1.1495 -0.3906  2.2004
 9167TIP3    H248917   2.498   6.580  14.674 -0.6949  0.4528 -0.9783
 9168TIP3   OH248918   3.004   5.095   5.165 -0.3426  0.0707  0.6047
 9168TIP3    H148919   3.065   5.109   5.092 -1.6955 -1.9993 -1.0282
 9168TIP3    H248920   3.013   5.002   5.186 -1.9919  0.0115  1.1997
 9169TIP3   OH248921   2.315   4.195  12.239  0.8376  0.6529 -0.4916
 9169TIP3    H148922   2.394   4.202  12.292  0.2529  0.5390  0.4100
 9169TIP3    H248923   2.331   4.121  12.181  2.4699  2.2226 -2.2158
 9170TIP3   OH248924   1.471   4.216  16.972 -0.1395  0.6290 -0.2066
 9170TIP3    H148925   1.526   4.161  17.028  0.5992  0.0288 -1.4821
 9170TIP3    H248926   1.497   4.306  16.993 -1.0550  0.5241  1.5856
 9171TIP3   OH248927   3.072   0.048   0.975  0.0373  0.2018 -0.4166
 9171TIP3    H148928   3.135  -0.008   1.020  0.2052  1.3426  0.8268
 9171TIP3    H248929   3.073   0.130   1.023 -1.4060  0.7260 -1.1905
 9172TIP3   OH248930   1.927   3.725   5.278 -0.1227  0.4743  0.4809
 9172TIP3    H148931   1.969   3.783   5.342  0.8753 -1.0542  1.2655
 9172TIP3    H248932   1.901   3.649   5.329  1.5071 -1.1979 -1.0445
 9173TIP3   OH248933   5.043   2.273  12.772  0.3888 -0.1983 -0.1082
 9173TIP3    H148934   5.063   2.186  12.738 -1.8702 -0.5655 -0.6837
 9173TIP3    H248935   5.026   2.259  12.865 -1.4409 -0.6995 -0.4785
 9174TIP3   OH248936   0.915   5.540   5.116 -0.2433 -0.0840  0.0446
 9174TIP3    H148937   0.826   5.564   5.143 -0.7595 -0.8167 -0.9266
 9174TIP3    H248938   0.928   5.586   5.033  0.2279 -0.0915  0.1139
 9175TIP3   OH248939   0.193   4.013  11.254 -0.2574 -0.3669 -0.3846
 9175TIP3    H148940   0.155   4.025  11.341 -0.4305  2.3803 -0.7498
 9175TIP3    H248941   0.124   4.042  11.194  0.9997  0.9906 -1.2474
 9176TIP3   OH248942   0.764   3.843  16.290 -0.3604 -0.1592 -0.0923
 9176TIP3    H148943   0.785   3.882  16.206  2.1798  0.0492  0.5822
 9176TIP3    H248944   0.738   3.753  16.269  2.7792 -0.9623 -0.9937
 9177TIP3   OH248945   4.138   1.321   5.446 -0.3171  0.6473 -0.4597
 9177TIP3    H148946   4.157   1.384   5.377  1.4114 -0.1561 -0.7590
 9177TIP3    H248947   4.114   1.374   5.521  0.7166  1.6504 -0.8209
 9178TIP3   OH248948   1.670   4.047   1.395 -0.2480 -0.6759 -0.2437
 9178TIP3    H148949   1.628   4.022   1.313  0.4811 -0.4274 -0.7030
 9178TIP3    H248950   1.628   3.992   1.461 -1.4600 -0.2624 -0.6400
 9179TIP3   OH248951   4.475   0.562   2.329  0.1071 -0.1932 -0.0852
 9179TIP3    H148952   4.562   0.583   2.366  0.3269 -0.0804 -0.6551
 9179TIP3    H248953   4.431   0.647   2.323 -0.6575 -0.4248  1.6918
 9180TIP3   OH248954   4.982   4.968   3.800 -0.7767  0.1180  0.1474
 9180TIP3    H148955   4.944   4.887   3.834 -0.1775  0.4542  1.7393
 9180TIP3    H248956   5.000   4.950   3.708  1.1595 -2.2734  0.8913
 9181TIP3   OH248957   3.356   3.826  12.832 -0.7840 -0.8019  0.1719
 9181TIP3    H148958   3.432   3.874  12.803 -1.4549  0.4483  0.4286
 9181TIP3    H248959   3.334   3.768  12.759  0.1940 -0.9208 -0.0319
 9182TIP3   OH248960   2.469   3.209  14.706  0.5625  0.7515  0.1270
 9182TIP3    H148961   2.398   3.245  14.653  1.1810 -0.1875 -1.4109
 9182TIP3    H248962   2.509   3.285  14.748 -1.1852  1.3124  0.8349
 9183TIP3   OH248963   2.510   3.608   2.150 -0.5967  0.0167  0.5695
 9183TIP3    H148964   2.574   3.548   2.112 -0.6635 -0.5161  1.2767
 9183TIP3    H248965   2.480   3.565   2.230 -1.2194  0.6422  0.6935
 9184TIP3   OH248966   0.700   0.486  16.261 -0.5000 -0.2914 -0.1746
 9184TIP3    H148967   0.741   0.466  16.345 -1.3540 -1.4893 -0.0192
 9184TIP3    H248968   0.704   0.404  16.212  0.2939  0.4832 -1.4629
 9185TIP3   OH248969   3.184   3.931   3.015  0.3535  0.1822 -0.0428
 9185TIP3    H148970   3.114   3.947   2.952 -0.0839 -0.8012  0.1717
 9185TIP3    H248971   3.244   4.004   3.003  0.2656  0.0345 -1.5805
 9186TIP3   OH248972   0.805   0.757  15.098  0.3977 -0.0633 -0.3129
 9186TIP3    H148973   0.715   0.788  15.106  0.1645 -0.4446 -1.2943
 9186TIP3    H248974   0.805   0.671  15.140 -0.3571 -1.2179 -2.5073
 9187TIP3   OH248975   1.273   4.924   1.807 -0.3927  0.0794  0.0056
 9187TIP3    H148976   1.364   4.922   1.775 -0.4526 -0.4549 -0.1467
 9187TIP3    H248977   1.271   4.997   1.869  0.2744 -0.2083  0.3882
 9188TIP3   OH248978   3.860   3.132   4.522 -0.5523 -0.1904  0.2634
 9188TIP3    H148979   3.899   3.210   4.484 -1.6385  0.7942  1.0872
 9188TIP3    H248980   3.765   3.144   4.510 -0.9847  0.2890  3.3284
 9189TIP3   OH248981   3.279   6.495   4.449  0.2216  0.0612 -0.0741
 9189TIP3    H148982   3.328   6.413   4.460  0.2389  0.2674  1.8298
 9189TIP3    H248983   3.200   6.483   4.502 -0.1372  0.9867 -0.3737
 9190TIP3   OH248984   2.516   4.422  11.986 -1.1288 -0.8228  0.0274
 9190TIP3    H148985   2.529   4.385  11.899 -0.0743  0.2160 -0.2824
 9190TIP3    H248986   2.534   4.350  12.046  0.5059 -0.9506 -0.5672
 9191TIP3   OH248987   3.891   1.999   1.981  0.3281  0.1120 -0.0646
 9191TIP3    H148988   3.927   2.087   1.990 -1.7888  0.9957  0.2865
 9191TIP3    H248989   3.881   1.967   2.071  0.1942 -0.1208 -0.1602
 9192TIP3   OH248990   0.502   5.374  12.061  0.3766 -0.2908 -0.1961
 9192TIP3    H148991   0.574   5.320  12.030 -0.6132 -0.8084 -1.7452
 9192TIP3    H248992   0.428   5.349  12.005 -1.5861 -1.2643  2.5829
 9193TIP3   OH248993   1.870   2.766   1.145  0.3747 -0.0642 -0.1586
 9193TIP3    H148994   1.888   2.770   1.051  1.5682 -1.7496 -0.0520
 9193TIP3    H248995   1.881   2.856   1.175  1.0024  0.3303 -1.4707
 9194TIP3   OH248996   6.675   0.550  13.526 -0.4767  1.0045  0.4711
 9194TIP3    H148997   6.727   0.510  13.595 -0.1151  0.4812 -0.0905
 9194TIP3    H248998   6.600   0.589  13.571  0.4533  1.8762  1.3016
 9195TIP3   OH248999   5.296   1.590   3.659 -0.1015 -0.2142 -0.3150
 9195TIP3    H149000   5.340   1.637   3.589  1.6879  0.3073  1.0727
 9195TIP3    H249001   5.264   1.659   3.718 -0.5365 -0.6501 -0.0346
 9196TIP3   OH249002   4.749   4.902  13.933 -0.3843  0.8308 -0.0526
 9196TIP3    H149003   4.805   4.887  13.857  0.2852 -1.2290  0.7689
 9196TIP3    H249004   4.801   4.958  13.990 -0.1710  0.9506 -0.3636
 9197TIP3   OH249005   4.730   4.551  16.513  0.0711 -0.0560  0.2268
 9197TIP3    H149006   4.669   4.609  16.467  0.0100  0.2938  0.7486
 9197TIP3    H249007   4.673   4.489  16.559  0.1376 -1.2291 -1.1842
 9198TIP3   OH249008   2.597   2.327   1.031 -0.2483  0.1003  0.1242
 9198TIP3    H149009   2.659   2.400   1.031 -1.4779  1.1816  0.1812
 9198TIP3    H249010   2.605   2.288   1.119 -0.4710  0.9726  0.5418
 9199TIP3   OH249011   4.056   1.635   6.389 -0.3012 -0.3848  0.1095
 9199TIP3    H149012   4.075   1.718   6.344  3.3285 -0.2178  1.5931
 9199TIP3    H249013   4.050   1.571   6.319 -0.7972  0.7413 -0.9241
 9200TIP3   OH249014   1.476   6.523   0.426  0.3550  0.1792  0.2008
 9200TIP3    H149015   1.472   6.544   0.520  0.9482  1.6280 -0.0659
 9200TIP3    H249016   1.385   6.522   0.398  0.0113 -2.2954  1.1689
 9201TIP3   OH249017   5.027   5.494  16.588  0.0799 -0.1220  0.3940
 9201TIP3    H149018   5.071   5.519  16.506 -0.3202 -1.5655 -0.2885
 9201TIP3    H249019   5.039   5.399  16.594 -2.0664 -0.4252  0.6877
 9202TIP3   OH249020   6.781   4.709  12.469 -0.5191 -0.3444  0.3754
 9202TIP3    H149021   6.780   4.710  12.564 -1.1043 -0.9203  0.3854
 9202TIP3    H249022   6.867   4.743  12.445 -0.0456 -0.9862  1.1199
 9203TIP3   OH249023   5.248   5.859   4.583 -0.2339  0.6582  0.5732
 9203TIP3    H149024   5.280   5.917   4.653  1.4674  0.0652  0.3469
 9203TIP3    H249025   5.154   5.852   4.598  0.0555  0.7225  2.6689
 9204TIP3   OH249026   5.287   5.971   0.468  0.6853 -0.1260  0.6122
 9204TIP3    H149027   5.215   5.946   0.526 -0.6294 -0.8733 -1.2752
 9204TIP3    H249028   5.273   6.064   0.450 -1.3933 -0.8225 -1.7895
 9205TIP3   OH249029   3.121   6.509  14.181  0.0906  0.1718  0.1748
 9205TIP3    H149030   3.082   6.422  14.187 -3.2869  1.0290 -3.7335
 9205TIP3    H249031   3.183   6.502  14.109  1.5740  0.5611  1.3772
 9206TIP3   OH249032   3.147   0.597   3.740  0.1281 -0.3637 -0.1871
 9206TIP3    H149033   3.230   0.624   3.702  0.9156 -1.6731  0.5433
 9206TIP3    H249034   3.088   0.587   3.665  0.4202  1.1998 -0.6584
 9207TIP3   OH249035   5.658   2.368  14.931  0.3901 -0.3213 -0.3237
 9207TIP3    H149036   5.684   2.383  14.841 -2.3120  1.0766 -0.9920
 9207TIP3    H249037   5.733   2.324  14.972  1.8284 -0.6291 -3.1046
 9208TIP3   OH249038   3.909   2.602  15.672  0.3580 -0.0475 -0.5675
 9208TIP3    H149039   3.968   2.666  15.711  0.2521 -0.7471  0.8001
 9208TIP3    H249040   3.834   2.653  15.641  0.3224  0.5030  0.4034
 9209TIP3   OH249041   5.437   3.336   1.839  0.0335 -0.0951 -0.2806
 9209TIP3    H149042   5.389   3.273   1.785 -0.3871  0.4972 -0.6155
 9209TIP3    H249043   5.485   3.282   1.902 -1.5822 -0.6972  0.4974
 9210TIP3   OH249044   3.639   3.197  10.935 -0.3431  0.5005  0.0572
 9210TIP3    H149045   3.649   3.113  10.889 -2.2967  0.8433 -1.1112
 9210TIP3    H249046   3.636   3.262  10.865  1.6245  1.6517  0.9724
 9211TIP3   OH249047   4.344   4.645   4.871 -0.2540 -0.2488  0.5237
 9211TIP3    H149048   4.355   4.735   4.900 -0.6203 -0.7335  2.3332
 9211TIP3    H249049   4.252   4.639   4.845 -0.3347 -0.1869  0.7897
 9212TIP3   OH249050   1.959   4.350  14.952  0.1668 -0.1611  0.4011
 9212TIP3    H149051   1.900   4.425  14.940 -1.3917 -1.3922 -0.0009
 9212TIP3    H249052   2.002   4.367  15.035  0.1256  1.3525  0.1529
 9213TIP3   OH249053   4.860   1.639   0.476  0.4859 -0.6647 -0.5452
 9213TIP3    H149054   4.835   1.700   0.546  2.7671 -1.5821  1.2482
 9213TIP3    H249055   4.887   1.560   0.523 -1.6939 -2.8657 -2.7523
 9214TIP3   OH249056   2.568   0.979   3.579  0.5523  0.0181  0.4732
 9214TIP3    H149057   2.541   1.007   3.667 -0.6694 -0.2431  0.2047
 9214TIP3    H249058   2.654   0.939   3.592 -0.4677 -1.8770  1.9158
 9215TIP3   OH249059   3.365   1.835  15.767 -0.0947 -0.4733  0.0723
 9215TIP3    H149060   3.272   1.852  15.755  0.5589  3.0433 -1.3251
 9215TIP3    H249061   3.378   1.745  15.738 -2.7861 -0.5273 -1.2132
 9216TIP3   OH249062   5.087   3.002   3.595 -0.6436  0.2256  0.2159
 9216TIP3    H149063   5.018   3.043   3.648  0.4634  0.0682  1.8318
 9216TIP3    H249064   5.095   2.914   3.631  1.6120  0.8012  1.3121
 9217TIP3   OH249065   1.204   4.451   5.266  0.4273 -0.4326  0.0846
 9217TIP3    H149066   1.198   4.368   5.314  0.5352 -1.2440 -1.2352
 9217TIP3    H249067   1.294   4.452   5.233 -0.0873 -0.6971 -1.4173
 9218TIP3   OH249068   4.724   0.332  17.144  0.1390  0.3307 -0.3139
 9218TIP3    H149069   4.817   0.318  17.129  0.3380 -1.1534  1.8356
 9218TIP3    H249070   4.716   0.340  17.239 -1.8871  0.9450 -0.4895
 9219TIP3   OH249071   1.055   5.664  12.886 -0.2470 -0.6944  0.4994
 9219TIP3    H149072   0.997   5.631  12.817 -0.2402 -1.7440  0.9824
 9219TIP3    H249073   1.127   5.706  12.838 -0.9744 -0.1344 -0.1082
 9220TIP3   OH249074   0.390   0.064  13.760  0.2705 -0.1960  0.9697
 9220TIP3    H149075   0.364  -0.027  13.773 -1.9046  0.1935 -0.1858
 9220TIP3    H249076   0.413   0.070  13.667  1.3271  0.2423  1.2429
 9221TIP3   OH249077   4.528   2.693   4.025 -0.5799  0.2275 -0.3927
 9221TIP3    H149078   4.448   2.649   4.054  0.1711 -0.9464 -0.0308
 9221TIP3    H249079   4.596   2.625   4.029  0.5323  1.3140 -0.2357
 9222TIP3   OH249080   3.402   0.159  11.741  0.4607 -0.4595 -0.3517
 9222TIP3    H149081   3.422   0.238  11.690 -0.0153  1.6120  2.4842
 9222TIP3    H249082   3.487   0.127  11.769  0.5563  0.6672  0.7240
 9223TIP3   OH249083   2.718   3.484   1.682 -0.3969  0.6012 -0.0258
 9223TIP3    H149084   2.652   3.435   1.732 -1.3209  1.2572 -0.5769
 9223TIP3    H249085   2.742   3.556   1.739 -1.3371  1.2605 -0.4348
 9224TIP3   OH249086   2.496   2.557  12.878  0.0178  0.5056 -0.5159
 9224TIP3    H149087   2.446   2.482  12.907 -1.2276  1.1386 -0.9587
 9224TIP3    H249088   2.575   2.556  12.933  0.0834 -1.1592 -0.5958
 9225TIP3   OH249089   3.730   5.800   1.246  0.7456  0.1223  0.9063
 9225TIP3    H149090   3.641   5.806   1.280  1.0461  1.5120  1.5420
 9225TIP3    H249091   3.738   5.711   1.214 -1.0390  0.1240  0.3657
 9226TIP3   OH249092   0.895   6.321   1.441 -0.3544  0.0335  0.2740
 9226TIP3    H149093   0.837   6.392   1.412  0.3063  0.2682 -0.5079
 9226TIP3    H249094   0.862   6.243   1.396 -1.0099 -0.1502  1.0445
 9227TIP3   OH249095   3.054   1.179   4.661 -0.4497 -0.5131 -0.2307
 9227TIP3    H149096   3.061   1.088   4.632 -0.7662 -0.2393 -1.2094
 9227TIP3    H249097   3.002   1.222   4.593 -0.4942  0.3552  0.3316
 9228TIP3   OH249098   3.944   3.178  17.158  0.6947  0.4881 -0.0993
 9228TIP3    H149099   4.004   3.232  17.106  0.1176  0.4745 -0.7942
 9228TIP3    H249100   3.865   3.230  17.166  0.0946 -0.2881 -0.8657
 9229TIP3   OH249101   0.303   3.619  17.169  0.6743  0.0733  0.2655
 9229TIP3    H149102   0.291   3.701  17.121 -0.0593 -0.5139 -0.6080
 9229TIP3    H249103   0.374   3.574  17.122  1.4068  0.4150  1.0376
 9230TIP3   OH249104   0.765   2.689  15.517  0.0103 -0.6301 -0.3382
 9230TIP3    H149105   0.814   2.607  15.515 -0.2544 -0.8178  0.4737
 9230TIP3    H249106   0.681   2.666  15.555 -0.5825 -0.2352 -1.3861
 9231TIP3   OH249107   6.386   6.264  16.884  0.0341  0.1855 -0.3921
 9231TIP3    H149108   6.435   6.294  16.960  2.0860 -0.6232 -1.3002
 9231TIP3    H249109   6.296   6.259  16.914  0.0325  3.9484  0.7258
 9232TIP3   OH249110   3.668   0.033   5.468  0.4212  0.2821 -0.5903
 9232TIP3    H149111   3.708   0.051   5.383  0.0060 -0.7891 -1.0357
 9232TIP3    H249112   3.589  -0.017   5.447  1.0287 -1.1911  0.4813
 9233TIP3   OH249113   4.541   0.079   2.279  0.1213 -0.2923  0.2395
 9233TIP3    H149114   4.456   0.052   2.244  1.3526 -1.2679 -2.2030
 9233TIP3    H249115   4.599   0.005   2.263  2.0755  1.3275 -0.6410
 9234TIP3   OH249116   2.698   2.524   5.618 -0.3431  0.2996 -0.2556
 9234TIP3    H149117   2.741   2.500   5.536 -0.1506  3.1960 -1.0972
 9234TIP3    H249118   2.733   2.461   5.682  0.8821 -0.8836 -1.9917
 9235TIP3   OH249119   4.649   6.554  15.436  0.4503 -0.1179  0.2503
 9235TIP3    H149120   4.719   6.616  15.416  1.2774 -0.7169  1.2308
 9235TIP3    H249121   4.618   6.581  15.523  0.0127 -0.3662  0.1739
 9236TIP3   OH249122   1.661   1.668  16.786  0.5519  0.8188  0.5584
 9236TIP3    H149123   1.617   1.583  16.785  1.4794  0.3255  0.7206
 9236TIP3    H249124   1.750   1.649  16.759  0.7953  1.7361  0.6866
 9237TIP3   OH249125   6.050   6.323   1.865  0.0988 -0.1760 -0.4020
 9237TIP3    H149126   5.968   6.274   1.873  0.0187  0.0589  0.3054
 9237TIP3    H249127   6.106   6.267   1.811  0.2657 -1.4057  0.9814
 9238TIP3   OH249128   6.694   2.190   1.615  0.0528 -0.2038  0.1016
 9238TIP3    H149129   6.664   2.121   1.674  0.3911  0.2355  0.8060
 9238TIP3    H249130   6.788   2.172   1.604 -0.3175 -1.2504 -1.6469
 9239TIP3   OH249131   2.051   0.942  16.836 -0.1097  0.0960  0.0632
 9239TIP3    H149132   2.039   0.906  16.924 -1.8134  1.8380  0.6288
 9239TIP3    H249133   1.977   1.002  16.825  0.8220  0.9544 -2.0369
 9240TIP3   OH249134   5.905   2.337   2.049  0.2037  0.1810 -0.2412
 9240TIP3    H149135   5.973   2.281   2.087 -0.3185 -1.0932 -1.0974
 9240TIP3    H249136   5.954   2.402   1.998  0.8220  0.4735  0.7001
 9241TIP3   OH249137   2.619   1.750   0.301 -0.2339  0.1818 -0.6563
 9241TIP3    H149138   2.563   1.679   0.332  0.9947 -0.6153 -0.1728
 9241TIP3    H249139   2.559   1.812   0.259 -1.5964 -0.1467  0.7038
 9242TIP3   OH249140   3.914   6.459   1.944  0.4230  0.0436  0.3476
 9242TIP3    H149141   3.858   6.469   2.021 -1.0078 -0.4542 -0.5818
 9242TIP3    H249142   3.977   6.531   1.950  0.6970 -0.3109  2.2424
 9243TIP3   OH249143   0.916   3.032  14.454  0.2145  0.5054  0.1163
 9243TIP3    H149144   0.955   3.069  14.375  0.3616 -0.1922 -0.1352
 9243TIP3    H249145   0.941   2.940  14.454 -1.1523  0.1066  0.1098
 9244TIP3   OH249146   1.855   1.363   1.876 -0.6674 -0.0615 -0.6138
 9244TIP3    H149147   1.844   1.431   1.943  0.4149 -2.2098  1.9028
 9244TIP3    H249148   1.768   1.326   1.865 -0.3195 -2.2575  2.6686
 9245TIP3   OH249149   1.437   6.373   2.561 -0.3965 -0.0258  0.1326
 9245TIP3    H149150   1.452   6.312   2.633 -0.5304  0.6273  0.7209
 9245TIP3    H249151   1.510   6.357   2.501 -0.3785 -0.6940  0.3268
 9246TIP3   OH249152   4.115   4.131  16.265 -0.2923  0.4866 -0.3761
 9246TIP3    H149153   4.102   4.154  16.357 -0.6617 -1.0233 -0.0230
 9246TIP3    H249154   4.089   4.209  16.216 -1.8189  0.7088  0.7216
 9247TIP3   OH249155   6.331   2.721   2.209  0.0111  0.1615  0.2759
 9247TIP3    H149156   6.299   2.806   2.237  0.6807  0.7859 -0.7669
 9247TIP3    H249157   6.401   2.700   2.271 -0.5824  0.0573  0.9198
 9248TIP3   OH249158   3.130   3.284   4.301  0.3089  0.0470 -0.0717
 9248TIP3    H149159   3.106   3.198   4.267 -0.4168  0.1397  0.1995
 9248TIP3    H249160   3.094   3.346   4.239 -1.8722  0.2579  1.3019
 9249TIP3   OH249161   3.720   6.499   0.299 -0.3524  0.1057  0.5546
 9249TIP3    H149162   3.735   6.549   0.218 -1.5195 -0.7049 -0.1933
 9249TIP3    H249163   3.726   6.408   0.272 -2.5985 -0.2148  0.9594
 9250TIP3   OH249164   1.485   1.669  12.914  0.3069  0.5277 -0.0160
 9250TIP3    H149165   1.511   1.719  12.836 -0.2033  0.9881  0.1059
 9250TIP3    H249166   1.566   1.629  12.945  0.5314  0.4164 -0.7307
 9251TIP3   OH249167   3.161   4.411  10.973 -0.4431 -0.5216 -0.0293
 9251TIP3    H149168   3.106   4.385  11.048  0.0466 -0.9057  0.1983
 9251TIP3    H249169   3.107   4.393  10.897 -1.1652  0.3819  0.2385
 9252TIP3   OH249170   3.645   3.824  12.866 -0.0145 -0.1178 -0.1844
 9252TIP3    H149171   3.740   3.816  12.878 -0.2352 -0.5645  1.6243
 9252TIP3    H249172   3.623   3.756  12.802  0.8885  0.0046 -0.6394
 9253TIP3   OH249173   2.432   1.000   2.367  0.0365 -0.2661 -0.4185
 9253TIP3    H149174   2.388   1.013   2.283  1.5930  0.9681 -1.0972
 9253TIP3    H249175   2.438   0.905   2.377 -1.9909 -0.4660 -0.6668
 9254TIP3   OH249176   2.788   5.705  15.083 -0.3741 -0.1828 -0.5685
 9254TIP3    H149177   2.858   5.662  15.033  1.1633  0.8140  0.6482
 9254TIP3    H249178   2.803   5.679  15.174 -1.3840  0.3500 -0.2336
 9255TIP3   OH249179   5.489   0.546  16.941  0.0868 -0.3241 -0.6354
 9255TIP3    H149180   5.485   0.633  16.899 -1.9255  1.0435  2.0521
 9255TIP3    H249181   5.582   0.531  16.956  0.4928  1.4055 -1.1626
 9256TIP3   OH249182   5.794   2.189  16.112  0.3116 -0.2721  0.3280
 9256TIP3    H149183   5.714   2.240  16.124 -0.3464 -0.9805 -0.8929
 9256TIP3    H249184   5.799   2.134  16.190 -0.9914 -0.9903 -0.0603
 9257TIP3   OH249185   1.109   4.409   3.837  0.1062 -0.2901 -0.0168
 9257TIP3    H149186   1.029   4.425   3.786  0.2433 -1.7979 -0.7546
 9257TIP3    H249187   1.179   4.403   3.772  0.9101  1.3392  0.6471
 9258TIP3   OH249188   3.607   0.140  11.012 -0.5340 -0.0628  0.3881
 9258TIP3    H149189   3.597   0.228  11.048  0.7112  0.8301 -1.2827
 9258TIP3    H249190   3.531   0.130  10.953 -0.8942 -0.2778  0.8849
 9259TIP3   OH249191   4.542   4.246  16.031 -0.4832  0.4156 -0.3952
 9259TIP3    H149192   4.610   4.313  16.041 -0.6873  1.1046 -2.9328
 9259TIP3    H249193   4.558   4.208  15.945 -2.5723 -0.2793 -0.5434
 9260TIP3   OH249194   1.183   6.069  11.770  0.0548 -0.1560 -0.5023
 9260TIP3    H149195   1.106   6.014  11.755  0.3310 -0.6313 -0.1794
 9260TIP3    H249196   1.228   6.071  11.686 -1.3106  1.7121 -1.2775
 9261TIP3   OH249197   6.772   1.221   3.475  0.1455  0.1794 -0.5134
 9261TIP3    H149198   6.737   1.213   3.564  1.0092  1.6756  0.0016
 9261TIP3    H249199   6.764   1.315   3.455  1.1709  0.0691 -1.4980
 9262TIP3   OH249200   1.323   6.414  15.108  0.0566  0.1240 -0.2309
 9262TIP3    H149201   1.262   6.342  15.092 -0.7174  0.2285  1.8675
 9262TIP3    H249202   1.338   6.412  15.202  1.2121  1.7831 -0.3297
 9263TIP3   OH249203   2.477   1.054  14.543 -0.3369  0.2732  0.5157
 9263TIP3    H149204   2.458   0.965  14.575  1.3108  0.2580  1.5369
 9263TIP3    H249205   2.411   1.109  14.586 -0.4539 -0.2642  1.0435
 9264TIP3   OH249206   4.185   6.342   1.862  0.4695 -0.1404  0.1291
 9264TIP3    H149207   4.257   6.342   1.925  1.1920 -0.3591 -0.6836
 9264TIP3    H249208   4.106   6.350   1.916  1.1349  0.9732  0.9891
 9265TIP3   OH249209   1.998   2.873   3.682  0.1171 -0.2603 -0.6407
 9265TIP3    H149210   2.076   2.888   3.628  0.8931 -1.2323  0.1866
 9265TIP3    H249211   1.949   2.956   3.677  0.8381  0.1196 -1.7355
 9266TIP3   OH249212   1.135   5.800   1.729  0.0122 -0.3835  0.1627
 9266TIP3    H149213   1.204   5.766   1.786 -0.2573 -0.9202  0.1836
 9266TIP3    H249214   1.095   5.871   1.778  0.2090 -0.4179  0.3707
 9267TIP3   OH249215   2.171   5.392   4.987 -0.6443  0.4611 -0.3997
 9267TIP3    H149216   2.086   5.424   5.016  0.0892  2.1194  0.0084
 9267TIP3    H249217   2.215   5.363   5.067  0.5947  3.1501 -0.0170
 9268TIP3   OH249218   0.102   1.999  15.014  0.4407  0.1655  0.7780
 9268TIP3    H149219   0.033   2.062  15.030  0.2643  0.1268  0.1914
 9268TIP3    H249220   0.062   1.914  15.031 -0.2953 -0.0178 -1.5183
 9269TIP3   OH249221   4.498   6.379  17.229 -0.3682 -0.7888 -0.3759
 9269TIP3    H149222   4.526   6.341  17.313 -0.6811  0.0210  0.1072
 9269TIP3    H249223   4.580   6.397  17.182 -0.0641  0.8579  0.7092
 9270TIP3   OH249224   4.135   2.749   2.880 -0.7310 -0.2188 -0.5380
 9270TIP3    H149225   4.194   2.824   2.889  1.5227 -1.7375 -1.7030
 9270TIP3    H249226   4.052   2.780   2.917  0.5840  2.2251  0.6737
 9271TIP3   OH249227   5.263   1.081  16.574  0.1324  0.0276  0.1555
 9271TIP3    H149228   5.174   1.049  16.564 -0.2882  1.2991 -0.4537
 9271TIP3    H249229   5.282   1.072  16.667 -0.9478  0.5041  0.4400
 9272TIP3   OH249230   2.015   1.978   2.222  0.3674 -0.1213  0.4950
 9272TIP3    H149231   1.968   2.050   2.264  0.1308 -0.5347  0.9404
 9272TIP3    H249232   2.103   1.981   2.260  1.2737  1.6670 -1.4940
 9273TIP3   OH249233   5.001   2.976  11.054  0.8418  0.3312 -0.2426
 9273TIP3    H149234   5.071   2.954  11.115  0.4126 -1.3580 -0.3100
 9273TIP3    H249235   5.041   2.967  10.967  0.2348 -2.1117 -0.3443
 9274TIP3   OH249236   0.838   3.131  16.542  0.2000 -0.0559 -0.4587
 9274TIP3    H149237   0.799   3.195  16.483 -1.1166 -1.2226 -0.9034
 9274TIP3    H249238   0.777   3.125  16.615  1.8191  1.3832  1.1100
 9275TIP3   OH249239   0.594   3.370   4.028 -0.3222  0.0834  0.1436
 9275TIP3    H149240   0.619   3.411   3.945 -0.9786 -0.8680 -0.5415
 9275TIP3    H249241   0.571   3.444   4.085 -0.3201  0.7265 -0.6695
 9276TIP3   OH249242   6.389   3.134  14.231  0.4172 -0.2886 -0.5008
 9276TIP3    H149243   6.339   3.056  14.254 -0.0453 -0.3779 -1.6992
 9276TIP3    H249244   6.473   3.101  14.201  0.7143 -0.2288  0.2551
 9277TIP3   OH249245   2.828   1.097   4.097 -0.1463  0.1668 -0.7273
 9277TIP3    H149246   2.752   1.053   4.134  1.1792 -1.1581  0.5659
 9277TIP3    H249247   2.878   1.027   4.054  0.5829  0.9126 -1.1235
 9278TIP3   OH249248   2.224   0.415  11.925 -0.2868 -0.3623 -0.3623
 9278TIP3    H149249   2.311   0.407  11.962 -0.3153 -0.6860 -0.3646
 9278TIP3    H249250   2.201   0.326  11.898 -0.3137 -0.1487 -1.0509
 9279TIP3   OH249251   4.525   0.183   5.520  0.0593  0.4742 -0.2433
 9279TIP3    H149252   4.556   0.108   5.571  0.1450  0.5171 -0.2328
 9279TIP3    H249253   4.455   0.148   5.466  0.6212  0.2114 -0.8135
 9280TIP3   OH249254   0.879   5.752  12.161 -0.7273  0.0956  0.1110
 9280TIP3    H149255   0.892   5.659  12.142 -1.6199 -0.6487  2.7342
 9280TIP3    H249256   0.967   5.787  12.173 -0.3510 -0.2281 -1.5103
 9281TIP3   OH249257   5.076   4.662   3.999 -0.3467 -0.0347 -0.2095
 9281TIP3    H149258   5.096   4.754   3.984  0.0703 -0.4676 -2.6190
 9281TIP3    H249259   4.985   4.653   3.971 -0.0857 -0.5360 -0.9176
 9282TIP3   OH249260   2.805   6.283   1.301  0.0343 -0.5744 -0.1803
 9282TIP3    H149261   2.776   6.372   1.285 -2.1062  0.0079  4.9757
 9282TIP3    H249262   2.732   6.228   1.273  0.7261 -0.6746 -1.9148
 9283TIP3   OH249263   1.904   1.501  13.955  0.2330 -0.5328 -0.2389
 9283TIP3    H149264   1.872   1.576  13.904 -1.3579 -0.8605  0.2341
 9283TIP3    H249265   1.885   1.425  13.901  2.3413 -0.6126 -0.9626
 9284TIP3   OH249266   2.129   1.145  13.754  0.3803  0.1064  0.3331
 9284TIP3    H149267   2.087   1.062  13.731  0.0477  0.4120 -0.1815
 9284TIP3    H249268   2.058   1.208  13.758  0.9297  1.0806 -2.5657
 9285TIP3   OH249269   1.073   4.793  14.947 -0.8948  0.5753 -0.0410
 9285TIP3    H149270   1.168   4.782  14.951 -1.0782 -0.9418  0.8504
 9285TIP3    H249271   1.049   4.827  15.033 -1.3791 -1.1960  0.5567
 9286TIP3   OH249272   1.582   1.381  10.604 -0.4741 -0.1566  0.0137
 9286TIP3    H149273   1.657   1.337  10.645  0.2494  1.5843  0.6421
 9286TIP3    H249274   1.514   1.314  10.601  0.0176 -0.8549  2.4785
 9287TIP3   OH249275   5.028   6.519  13.325  0.4487  0.0686  0.0739
 9287TIP3    H149276   5.011   6.468  13.245  0.7109 -1.1100  0.7544
 9287TIP3    H249277   5.019   6.610  13.296 -2.6081 -0.3137 -0.6323
 9288TIP3   OH249278   1.234   5.453  14.329 -0.5946  0.1650  0.0427
 9288TIP3    H149279   1.172   5.409  14.388  0.3619  0.0434  0.9890
 9288TIP3    H249280   1.237   5.543  14.361  0.8045 -0.1761  0.9531
 9289TIP3   OH249281   6.350   4.615  14.783  0.4535  0.0229 -0.0200
 9289TIP3    H149282   6.426   4.592  14.836  0.5304  0.6837  0.1695
 9289TIP3    H249283   6.301   4.677  14.837 -0.0690 -0.1754 -0.2576
 9290TIP3   OH249284   6.052   3.961  13.079 -0.4370  0.1620 -0.2974
 9290TIP3    H149285   6.146   3.950  13.064 -0.3720 -0.4545  0.5409
 9290TIP3    H249286   6.011   3.927  12.999  0.0657  1.0819 -0.9675
 9291TIP3   OH249287   1.210   3.428  16.785  0.0178  0.2056  0.1511
 9291TIP3    H149288   1.267   3.392  16.853 -0.4380  1.6016  1.3124
 9291TIP3    H249289   1.218   3.523  16.794  0.7258  0.4670 -2.4524
 9292TIP3   OH249290   2.358   6.197  14.398 -0.0525 -0.1650  0.3179
 9292TIP3    H149291   2.396   6.284  14.393 -1.5992  0.5210 -0.2071
 9292TIP3    H249292   2.360   6.174  14.491  0.7935  0.2074  0.3979
 9293TIP3   OH249293   0.912   2.009  11.421  0.4320  0.5940 -0.1320
 9293TIP3    H149294   0.994   1.976  11.383 -0.1267  1.1692 -1.9442
 9293TIP3    H249295   0.895   2.090  11.374 -1.8918 -0.1979 -0.8006
 9294TIP3   OH249296   2.097   0.661  12.643 -0.2341 -0.5077 -0.4665
 9294TIP3    H149297   2.089   0.566  12.641 -1.5356 -0.4278  0.0122
 9294TIP3    H249298   2.183   0.679  12.607 -0.1967 -1.8455 -1.0832
 9295TIP3   OH249299   0.860   4.107  11.202 -0.5956 -0.0148 -0.1875
 9295TIP3    H149300   0.768   4.106  11.231 -1.0455 -1.5325 -1.5109
 9295TIP3    H249301   0.854   4.114  11.107  0.6744 -0.3167 -0.2975
 9296TIP3   OH249302   2.686   1.252  10.713  0.1721  0.5027 -0.2307
 9296TIP3    H149303   2.656   1.165  10.740 -3.1773  2.1606  2.2778
 9296TIP3    H249304   2.637   1.271  10.633  1.9436 -0.3376 -1.5721
 9297TIP3   OH249305   5.147   2.644  17.088 -0.1526  0.2485  0.1510
 9297TIP3    H149306   5.098   2.565  17.112  1.3121 -0.7360  0.0133
 9297TIP3    H249307   5.098   2.716  17.128 -0.7210 -0.8629  1.5344
 9298TIP3   OH249308   4.142   5.325  15.689 -0.3398 -0.0588  0.8799
 9298TIP3    H149309   4.067   5.332  15.747  1.3485  0.7010  3.1423
 9298TIP3    H249310   4.196   5.256  15.727 -0.2439 -1.1801 -1.1764
 9299TIP3   OH249311   6.527   1.505  15.841  0.0759  0.2281 -0.2238
 9299TIP3    H149312   6.450   1.560  15.858 -1.1506 -1.0531 -1.3232
 9299TIP3    H249313   6.585   1.560  15.789 -0.2329  1.1233  0.3626
 9300TIP3   OH249314   1.037   1.845   3.529 -0.4384 -0.2189  0.1512
 9300TIP3    H149315   1.112   1.798   3.491  1.0348  2.4913 -0.5156
 9300TIP3    H249316   0.981   1.864   3.454  1.1773  2.8155 -0.4489
 9301TIP3   OH249317   2.574   6.162  16.252  0.2490 -0.3749 -0.1064
 9301TIP3    H149318   2.575   6.235  16.314  1.8557 -0.7775  0.3894
 9301TIP3    H249319   2.572   6.204  16.166  0.1713  0.2310  0.1830
 9302TIP3   OH249320   6.750   2.950   6.620 -0.2758  0.2241  0.3382
 9302TIP3    H149321   6.796   2.867   6.623 -2.0822 -0.8125  1.4438
 9302TIP3    H249322   6.669   2.934   6.669 -1.6723  1.9975 -1.2269
 9303TIP3   OH249323   3.412   3.898  15.346  0.2352  0.1093 -0.1314
 9303TIP3    H149324   3.345   3.920  15.410 -0.1732 -0.8127 -0.2332
 9303TIP3    H249325   3.436   3.808  15.365  0.0359 -0.2237 -1.3324
 9304TIP3   OH249326   2.743   0.147  14.368 -0.8095  0.4633  0.1808
 9304TIP3    H149327   2.805   0.204  14.413  2.7845 -1.3572 -2.0710
 9304TIP3    H249328   2.762   0.060  14.402 -1.5383 -0.2641 -1.2027
 9305TIP3   OH249329   6.784   0.308  13.374 -0.4622  0.0287  0.7548
 9305TIP3    H149330   6.804   0.399  13.394  1.3605 -0.2582  0.3937
 9305TIP3    H249331   6.691   0.298  13.397 -0.2307  1.4856  2.5268
 9306TIP3   OH249332   3.100   1.942   1.180 -0.2258 -0.5422 -0.4078
 9306TIP3    H149333   3.061   2.023   1.148  0.0723 -0.0708  0.3975
 9306TIP3    H249334   3.026   1.893   1.218 -0.1489  0.1188  0.6417
 9307TIP3   OH249335   5.723   4.860   6.097  0.3373 -0.2006  0.3526
 9307TIP3    H149336   5.660   4.808   6.146 -1.8342  0.5892 -1.4609
 9307TIP3    H249337   5.783   4.795   6.060 -0.1439 -1.0774  1.0532
 9308TIP3   OH249338   3.404   1.791   0.135  0.2861  0.0369 -0.5929
 9308TIP3    H149339   3.462   1.758   0.205  0.3403  1.7445  0.2211
 9308TIP3    H249340   3.458   1.788   0.056  1.7867  2.1835  0.2548
 9309TIP3   OH249341   4.264   1.591   3.069  0.6494  0.6785 -0.5248
 9309TIP3    H149342   4.307   1.676   3.081  2.1152 -0.2504  1.3301
 9309TIP3    H249343   4.309   1.533   3.129 -0.7055 -1.3126 -1.3333
 9310TIP3   OH249344   6.484   1.861  11.096 -0.8020 -0.7599  0.6640
 9310TIP3    H149345   6.551   1.833  11.034 -0.7829 -0.7498  0.6808
 9310TIP3    H249346   6.406   1.875  11.042  0.0231  2.3527  0.1026
 9311TIP3   OH249347   2.004   1.204  12.952  0.0222 -0.0186  0.2612
 9311TIP3    H149348   2.021   1.202  12.858 -0.6237  0.4039  0.1338
 9311TIP3    H249349   2.063   1.272  12.986  0.2474 -0.1650  0.1712
 9312TIP3   OH249350   1.998   0.723   1.155 -0.0862 -0.0827 -0.3602
 9312TIP3    H149351   1.941   0.675   1.095  1.4208 -0.9836 -1.1466
 9312TIP3    H249352   1.954   0.717   1.239 -1.8947  0.5858 -1.2073
 9313TIP3   OH249353   4.695   6.342  14.329 -0.3768 -0.2831  0.3670
 9313TIP3    H149354   4.705   6.247  14.324 -0.6895 -0.2970  0.0285
 9313TIP3    H249355   4.614   6.361  14.282 -1.5258 -0.0694  2.3097
 9314TIP3   OH249356   2.657   2.936   1.021 -0.3081 -0.5278 -0.6714
 9314TIP3    H149357   2.724   2.890   1.072  0.3402  0.6815 -0.3914
 9314TIP3    H249358   2.586   2.951   1.084  0.4748  0.9275 -0.0912
 9315TIP3   OH249359   2.937   4.481  14.144  0.5307  0.8045 -0.1389
 9315TIP3    H149360   2.908   4.507  14.231 -1.6731  2.6950 -1.3054
 9315TIP3    H249361   2.868   4.422  14.112 -0.5668  2.8210 -1.7837
 9316TIP3   OH249362   1.509   2.207   2.037 -0.0765  0.0779  0.7256
 9316TIP3    H149363   1.544   2.124   2.006 -1.8022 -0.7158  0.7931
 9316TIP3    H249364   1.463   2.243   1.961 -0.4425  0.3420  1.0737
 9317TIP3   OH249365   6.256   6.666  16.314 -0.3480  0.3164 -0.2707
 9317TIP3    H149366   6.259   6.600  16.384 -0.8092  0.3461 -0.2242
 9317TIP3    H249367   6.311   6.629  16.245  2.4805  1.5029  1.1572
 9318TIP3   OH249368   2.362   4.685  16.489  0.2529  0.0092  0.1879
 9318TIP3    H149369   2.412   4.707  16.411  0.1694 -1.3120 -0.2507
 9318TIP3    H249370   2.270   4.694  16.462  0.2220 -0.6492  0.0784
 9319TIP3   OH249371   5.149   2.518  16.661 -0.4664 -0.1647 -0.9704
 9319TIP3    H149372   5.203   2.587  16.624 -0.6535 -0.2798 -1.4621
 9319TIP3    H249373   5.196   2.437  16.641 -0.4228 -0.2085 -0.6996
 9320TIP3   OH249374   5.551   1.906   3.167  0.1973 -0.0239  0.1630
 9320TIP3    H149375   5.549   1.987   3.117 -1.1265 -0.1991 -0.0914
 9320TIP3    H249376   5.482   1.916   3.232 -0.4213 -1.1976 -0.2853
 9321TIP3   OH249377   0.800   4.508   1.029 -0.6668  0.3261 -0.2550
 9321TIP3    H149378   0.772   4.436   0.973 -1.3586  0.4404 -0.0689
 9321TIP3    H249379   0.718   4.543   1.065 -0.4197  1.7443 -0.9970
 9322TIP3   OH249380   5.616   4.880   1.618  0.5175 -0.4706 -0.1267
 9322TIP3    H149381   5.687   4.843   1.565  0.1507 -1.0211 -0.2358
 9322TIP3    H249382   5.546   4.815   1.614  0.1246 -0.0783  0.2488
 9323TIP3   OH249383   4.814   1.475   1.475 -0.0584 -0.4645  0.4931
 9323TIP3    H149384   4.721   1.483   1.453  0.4261 -0.8707 -2.1605
 9323TIP3    H249385   4.844   1.564   1.489 -0.5675 -0.1709 -0.2072
 9324TIP3   OH249386   0.326   0.922  11.275 -0.3171 -0.5419  0.2134
 9324TIP3    H149387   0.317   0.864  11.200 -0.0473  0.5569 -0.7087
 9324TIP3    H249388   0.414   0.908  11.307  0.2830  0.3787 -0.9319
 9325TIP3   OH249389   5.771   1.584  11.626  0.1352 -0.0969 -0.4520
 9325TIP3    H149390   5.810   1.657  11.577  0.4272  0.0761  0.0323
 9325TIP3    H249391   5.832   1.569  11.698  0.8377 -1.7370 -1.3244
 9326TIP3   OH249392   6.322   5.220   2.183 -0.4914 -0.8275  0.0231
 9326TIP3    H149393   6.328   5.129   2.153 -1.7488 -0.7014 -0.6758
 9326TIP3    H249394   6.384   5.267   2.127  0.6637 -1.3419  0.8353
 9327TIP3   OH249395   2.944   4.963   4.521 -0.1079  0.5320 -0.3287
 9327TIP3    H149396   2.865   4.935   4.475 -0.7319 -0.8984  1.4821
 9327TIP3    H249397   3.016   4.927   4.470 -0.6458  1.1097 -1.5273
 9328TIP3   OH249398   0.579   1.062   5.368  0.1596 -0.4095 -0.3053
 9328TIP3    H149399   0.567   1.148   5.407 -1.3085 -2.2206  3.9201
 9328TIP3    H249400   0.510   1.056   5.301  1.6110  2.2532 -2.2233
 9329TIP3   OH249401   4.173   6.626  12.721  0.6018 -0.1901  0.0649
 9329TIP3    H149402   4.197   6.712  12.689 -0.4726 -0.5231 -1.7753
 9329TIP3    H249403   4.236   6.607  12.791  1.6021  1.5513 -0.3252
 9330TIP3   OH249404   5.168   4.437   6.012 -0.2882 -0.1794  0.4463
 9330TIP3    H149405   5.260   4.429   6.036 -0.1202  1.5580  0.4570
 9330TIP3    H249406   5.127   4.481   6.086 -1.0008 -0.3379  0.1565
 9331TIP3   OH249407   5.983   1.911   2.268  0.2438  0.4975  0.0646
 9331TIP3    H149408   5.964   1.940   2.357  3.1042 -2.8616  2.0241
 9331TIP3    H249409   5.974   1.816   2.272  1.7401  0.1310 -2.8987
 9332TIP3   OH249410   3.080   2.569   5.579  0.3696  0.4168  0.2765
 9332TIP3    H149411   3.076   2.486   5.627 -1.2777  0.4616  0.2765
 9332TIP3    H249412   3.174   2.589   5.574  0.7870 -1.3157  0.4732
 9333TIP3   OH249413   4.279   5.228  17.242  0.3291 -0.2197  0.3804
 9333TIP3    H149414   4.260   5.240  17.335  0.0105  1.8581  0.1038
 9333TIP3    H249415   4.374   5.233  17.236  0.4469 -1.6409  0.7123
 9334TIP3   OH249416   4.149   3.245  15.099  0.0868 -0.2089  0.5050
 9334TIP3    H149417   4.116   3.310  15.038  2.0224  0.6918  0.3451
 9334TIP3    H249418   4.172   3.170  15.043  1.2023  0.3524  0.1755
 9335TIP3   OH249419   3.044   1.164   1.229  0.5308  0.2525  0.1570
 9335TIP3    H149420   3.018   1.251   1.259  0.4350  0.2194  0.1694
 9335TIP3    H249421   3.139   1.160   1.245  0.4570  0.1763  0.6013
 9336TIP3   OH249422   4.490   6.774  14.602 -0.9725 -0.5334  0.6490
 9336TIP3    H149423   4.541   6.825  14.539 -1.8569 -0.8088 -0.3446
 9336TIP3    H249424   4.400   6.782  14.570 -1.1614 -2.5218  0.5846
 9337TIP3   OH249425   3.173   1.594  12.404 -0.2333 -0.1085 -0.5752
 9337TIP3    H149426   3.177   1.659  12.333 -0.4785  1.0294  0.4199
 9337TIP3    H249427   3.209   1.640  12.480  0.4204 -1.4414 -0.0379
 9338TIP3   OH249428   4.913   4.263  13.405 -0.7885  0.2173  0.6139
 9338TIP3    H149429   4.887   4.251  13.314 -0.9981 -1.5980  0.8751
 9338TIP3    H249430   4.984   4.327  13.402  0.8320 -1.5467 -1.1113
 9339TIP3   OH249431   6.439   4.314  16.694 -0.1811  0.6865  0.0727
 9339TIP3    H149432   6.458   4.407  16.706  0.2177  0.6950 -0.5430
 9339TIP3    H249433   6.390   4.311  16.611 -0.3957  0.3727  0.2105
 9340TIP3   OH249434   5.587   1.931   5.881 -0.0413 -0.1641  0.2376
 9340TIP3    H149435   5.540   2.014   5.873 -1.6119 -0.8016  2.0497
 9340TIP3    H249436   5.663   1.952   5.934 -0.6540  0.0691  1.0457
 9341TIP3   OH249437   1.070   6.610  16.224 -0.5022  0.2749  0.4787
 9341TIP3    H149438   1.069   6.683  16.162  0.9032  1.9130  2.2665
 9341TIP3    H249439   1.031   6.646  16.304  2.0464 -0.2211  2.0629
 9342TIP3   OH249440   6.682   1.368   1.373 -0.2577 -0.0713 -0.3018
 9342TIP3    H149441   6.724   1.406   1.296  1.7121  0.1330  0.8041
 9342TIP3    H249442   6.608   1.425   1.391  0.1345  0.7375 -1.1782
 9343TIP3   OH249443   5.906   3.291  11.870  0.2477  0.7072 -0.0243
 9343TIP3    H149444   5.878   3.310  11.959 -0.6489  2.0208 -0.5652
 9343TIP3    H249445   5.998   3.318  11.867  0.7321 -0.6986  0.8705
 9344TIP3   OH249446   0.107   0.281   4.865  0.2205  0.2649 -0.4650
 9344TIP3    H149447   0.194   0.265   4.830  0.9287  1.7908  0.4821
 9344TIP3    H249448   0.067   0.344   4.805 -0.1548 -0.2653 -0.7780
 9345TIP3   OH249449   6.773   3.097   4.907 -0.5594 -0.5073 -0.1717
 9345TIP3    H149450   6.771   3.034   4.834 -0.5680 -0.6130 -0.0802
 9345TIP3    H249451   6.749   3.045   4.984  2.7165 -1.2268  0.5166
 9346TIP3   OH249452   6.620   0.464   1.110  0.0962  0.3837  0.3049
 9346TIP3    H149453   6.661   0.426   1.032  0.1395 -0.0783  0.5463
 9346TIP3    H249454   6.675   0.538   1.133  1.3679 -0.7837  1.1808
 9347TIP3   OH249455   0.908   4.820  17.047 -0.1928  0.0305  0.4323
 9347TIP3    H149456   0.988   4.767  17.051 -0.2928 -0.0518  2.5533
 9347TIP3    H249457   0.866   4.794  16.966  0.2169 -2.4915  0.9536
 9348TIP3   OH249458   0.615   1.010   3.279  0.1303 -0.1226 -0.5537
 9348TIP3    H149459   0.630   0.918   3.300 -0.3373 -0.1005 -0.0949
 9348TIP3    H249460   0.520   1.016   3.267  0.1023  0.3982 -0.1009
 9349TIP3   OH249461   3.806   2.282   1.624  0.2943  0.0616  0.1114
 9349TIP3    H149462   3.734   2.330   1.665 -0.0722 -0.6265  0.2750
 9349TIP3    H249463   3.780   2.274   1.532 -0.0958 -0.6583  0.2801
 9350TIP3   OH249464   2.947   1.049  15.500  0.1088  0.0655 -0.1918
 9350TIP3    H149465   2.859   1.015  15.512  0.0569  1.0638  3.3985
 9350TIP3    H249466   2.944   1.137  15.537  3.0541 -0.6789  2.2340
 9351TIP3   OH249467   6.037   4.276  12.606  0.1359 -0.0932  0.3798
 9351TIP3    H149468   6.027   4.324  12.524  0.2601  0.0997  0.4774
 9351TIP3    H249469   5.979   4.320  12.668 -1.0624 -1.1202  0.0252
 9352TIP3   OH249470   3.631   3.629   5.670  0.1581 -0.1674 -0.1352
 9352TIP3    H149471   3.568   3.698   5.687  1.5382  1.0586  0.1811
 9352TIP3    H249472   3.617   3.565   5.740  0.0483  0.6548  0.6027
 9353TIP3   OH249473   6.670   2.888  11.691  0.5060  0.6113 -0.1883
 9353TIP3    H149474   6.645   2.916  11.779 -0.3744 -0.0212 -0.2216
 9353TIP3    H249475   6.648   2.962  11.635  0.9511  0.9680  0.1031
 9354TIP3   OH249476   2.263   5.240   5.236 -0.5811 -0.3982 -0.2943
 9354TIP3    H149477   2.279   5.166   5.295 -0.7054 -0.9948 -0.9974
 9354TIP3    H249478   2.330   5.304   5.259 -1.6064  0.0706  1.6004
 9355TIP3   OH249479   3.695   2.124  11.467  0.4362  0.5204  0.1199
 9355TIP3    H149480   3.711   2.184  11.395 -0.4528  0.9040  0.2216
 9355TIP3    H249481   3.782   2.103  11.502  0.7177  2.5562  0.7326
 9356TIP3   OH249482   0.779   3.321  16.028  0.3937  0.2819  0.0903
 9356TIP3    H149483   0.798   3.316  15.934  1.7986  0.7152  0.3313
 9356TIP3    H249484   0.711   3.389  16.034  1.0964  1.0587 -0.5179
 9357TIP3   OH249485   1.904   1.788   0.057 -0.0264 -0.3960 -0.2962
 9357TIP3    H149486   1.935   1.754   0.141  0.7365  0.8410 -0.0414
 9357TIP3    H249487   1.810   1.801   0.068  0.3239  1.4596  1.0404
 9358TIP3   OH249488   2.344   1.689  16.622  0.3729  0.7022 -0.8539
 9358TIP3    H149489   2.396   1.623  16.667  0.7679  1.2497 -0.4930
 9358TIP3    H249490   2.400   1.766  16.619 -0.8626  1.7439  0.7654
 9359TIP3   OH249491   0.620   0.286   4.410 -0.0240 -0.3601 -0.1201
 9359TIP3    H149492   0.663   0.371   4.400 -2.4525  0.7165 -2.9884
 9359TIP3    H249493   0.548   0.303   4.471 -0.3443 -0.3984 -0.4816
 9360TIP3   OH249494   6.509   5.205  14.365  0.0294 -0.2802  0.4023
 9360TIP3    H149495   6.557   5.217  14.447  1.2977 -0.6814 -0.2646
 9360TIP3    H249496   6.482   5.113  14.365 -4.0893  0.6731  2.4952
 9361TIP3   OH249497   1.849   3.288   1.364  0.5138  0.0217  0.0589
 9361TIP3    H149498   1.807   3.232   1.430  2.7761 -2.5243 -0.5204
 9361TIP3    H249499   1.777   3.341   1.330 -1.5014 -1.4724  1.6901
 9362TIP3   OH249500   6.545   3.624   1.818  1.0676  0.3867 -0.0669
 9362TIP3    H149501   6.558   3.567   1.742 -1.9399 -1.1604  0.4594
 9362TIP3    H249502   6.572   3.572   1.893 -0.0800  0.2719  0.2774
 9363TIP3   OH249503   2.727   5.910   5.635 -0.1093  0.3604  0.0580
 9363TIP3    H149504   2.721   5.877   5.725  0.2647 -0.6236 -0.2666
 9363TIP3    H249505   2.638   5.937   5.614 -0.1263  0.9790  0.8567
 9364TIP3   OH249506   5.604   2.736   4.518  0.0979  0.1566  0.0973
 9364TIP3    H149507   5.622   2.654   4.471  0.4560  0.2564  0.0595
 9364TIP3    H249508   5.508   2.743   4.517  0.1234  0.5137 -1.2138
 9365TIP3   OH249509   1.474   2.349   0.478 -0.0594  0.3171  0.4477
 9365TIP3    H149510   1.454   2.422   0.536  0.4236 -0.5618  1.7802
 9365TIP3    H249511   1.532   2.292   0.530 -1.5588 -1.7293  0.0267
 9366TIP3   OH249512   3.572   1.698  17.230  0.0230  0.0953  0.7689
 9366TIP3    H149513   3.639   1.671  17.293  1.2870  1.2465 -0.0160
 9366TIP3    H249514   3.618   1.702  17.146 -1.5138 -0.9467 -0.1842
 9367TIP3   OH249515   1.446   3.626   1.562  0.1477 -0.0557  0.5178
 9367TIP3    H149516   1.438   3.566   1.488 -0.1531 -0.1619  0.6327
 9367TIP3    H249517   1.356   3.638   1.593  0.3641 -0.8086  1.4915
 9368TIP3   OH249518   5.456   4.683   1.304  0.1551 -0.8464  0.0914
 9368TIP3    H149519   5.487   4.673   1.394  0.7161  0.2673  0.0373
 9368TIP3    H249520   5.530   4.659   1.250 -0.0904 -1.2384 -0.0724
 9369TIP3   OH249521   2.136   3.784   1.831 -0.1481 -0.3199  0.1175
 9369TIP3    H149522   2.195   3.732   1.885 -0.7241 -0.4619  0.6213
 9369TIP3    H249523   2.049   3.767   1.867 -0.4492  0.2402 -0.3252
 9370TIP3   OH249524   5.093   2.832   3.984 -0.2875 -0.3116  0.4291
 9370TIP3    H149525   5.188   2.824   3.994  0.0642  1.8518 -0.6670
 9370TIP3    H249526   5.072   2.774   3.911  0.1859 -0.6922  0.5851
 9371TIP3   OH249527   6.223   4.537  15.479  0.0692 -0.3733 -0.3049
 9371TIP3    H149528   6.263   4.456  15.449  0.8520 -0.1372  0.0589
 9371TIP3    H249529   6.286   4.605  15.456 -0.4347  0.0979 -0.3274
 9372TIP3   OH249530   6.055   6.065  16.561 -0.4997  0.4050 -0.3954
 9372TIP3    H149531   6.132   6.098  16.514  0.6902  2.8463  2.8645
 9372TIP3    H249532   6.088   5.993  16.614 -1.3314 -0.8965 -1.5950
 9373TIP3   OH249533   1.988   6.079  14.695 -0.1640  0.6774 -0.3385
 9373TIP3    H149534   2.019   6.085  14.604  1.3249 -2.0175 -0.1156
 9373TIP3    H249535   1.963   5.987  14.706  0.3561  0.7616  2.1508
 9374TIP3   OH249536   1.655   1.992  14.918 -0.8158  0.4592  0.1230
 9374TIP3    H149537   1.676   1.967  14.828 -0.7971  0.7771  0.0359
 9374TIP3    H249538   1.740   2.011  14.958 -0.5542 -2.2704  1.0237
 9375TIP3   OH249539   5.796   6.283  16.311  0.0375 -0.3700 -0.7211
 9375TIP3    H149540   5.764   6.192  16.315  3.0239 -1.4952  0.0129
 9375TIP3    H249541   5.825   6.294  16.220 -0.3783 -0.0920 -0.8267
 9376TIP3   OH249542   6.259   5.359  14.256  0.2766 -0.3155  0.0362
 9376TIP3    H149543   6.237   5.294  14.322  1.2141 -0.8169 -0.1280
 9376TIP3    H249544   6.203   5.434  14.276 -2.5707 -1.9711 -1.1807
 9377TIP3   OH249545   0.111   0.885  14.963 -0.7045  0.4680 -0.5417
 9377TIP3    H149546   0.095   0.970  15.005  2.7965 -0.2194  2.7240
 9377TIP3    H249547   0.059   0.823  15.013  0.1587  0.1816  0.0220
 9378TIP3   OH249548   4.365   3.481  11.925 -0.6140  0.5563 -0.3046
 9378TIP3    H149549   4.379   3.510  12.015 -1.6275 -0.8179  0.3307
 9378TIP3    H249550   4.298   3.414  11.932  0.2901 -0.5745 -1.9341
 9379TIP3   OH249551   3.051   2.274  12.530  0.3380 -0.2704  1.0988
 9379TIP3    H149552   3.066   2.332  12.605  0.9697 -0.4346  1.1070
 9379TIP3    H249553   3.039   2.334  12.456  0.0731 -0.1152  1.2662
 9380TIP3   OH249554   5.906   3.936   2.085 -0.1548 -0.2393 -0.4851
 9380TIP3    H149555   5.966   3.865   2.109  1.4810  1.4240  0.5814
 9380TIP3    H249556   5.962   4.013   2.077 -2.1607  1.4374  0.6210
 9381TIP3   OH249557   6.509   3.785  13.845 -0.2181 -0.1389  0.4193
 9381TIP3    H149558   6.434   3.844  13.844 -0.3497 -0.2862 -1.5816
 9381TIP3    H249559   6.583   3.839  13.819  0.5289  0.1079  2.7774
 9382TIP3   OH249560   1.295   0.398   1.974  0.0750  0.0915  0.1468
 9382TIP3    H149561   1.319   0.320   2.024 -0.0237  0.5756  0.9502
 9382TIP3    H249562   1.237   0.447   2.031  0.5763  1.0358 -0.1383
 9383TIP3   OH249563   2.933   3.005  11.062  0.2267 -0.5159  0.1683
 9383TIP3    H149564   2.989   2.959  11.125 -0.2509 -1.8718 -0.3522
 9383TIP3    H249565   2.942   3.097  11.085  2.4955 -0.7044  0.2243
 9384TIP3   OH249566   4.815   2.884  13.846  0.7330 -0.2437 -0.1074
 9384TIP3    H149567   4.860   2.952  13.895  1.9606 -0.3626 -1.0269
 9384TIP3    H249568   4.789   2.819  13.912  0.2899  0.6997  0.6584
 9385TIP3   OH249569   4.388   1.581  12.304  0.0513 -0.1404  0.0327
 9385TIP3    H149570   4.295   1.580  12.328 -0.1307  1.3636 -0.4775
 9385TIP3    H249571   4.391   1.541  12.217  0.0604 -1.2682  0.5384
 9386TIP3   OH249572   3.428   1.429   4.112 -0.1690  0.4537  0.2674
 9386TIP3    H149573   3.473   1.420   4.028 -0.0960  1.4928  0.1842
 9386TIP3    H249574   3.442   1.520   4.138 -2.8246  1.0837 -0.1398
 9387TIP3   OH249575   6.028   6.636  11.333 -0.4243 -0.0890 -0.3192
 9387TIP3    H149576   5.979   6.624  11.414 -0.4732 -0.0509 -0.3428
 9387TIP3    H249577   5.966   6.611  11.264 -0.7282  0.8580 -0.4060
 9388TIP3   OH249578   6.225   2.060   5.464 -0.5969 -0.4864 -0.3926
 9388TIP3    H149579   6.177   2.141   5.479 -2.1944 -1.5426  0.5092
 9388TIP3    H249580   6.317   2.085   5.473 -1.1021  0.8938  1.6177
 9389TIP3   OH249581   6.043   1.405   0.312  0.3230  0.3219  0.0868
 9389TIP3    H149582   6.002   1.406   0.398 -0.3250  0.7786 -0.2218
 9389TIP3    H249583   6.057   1.312   0.293  1.3990  0.2440  1.1025
 9390TIP3   OH249584   6.496   0.102  13.201 -0.3443  0.4407 -0.6152
 9390TIP3    H149585   6.508   0.048  13.123 -1.3481  0.9833 -1.1702
 9390TIP3    H249586   6.569   0.079  13.258 -0.5875 -1.2713 -0.9513
 9391TIP3   OH249587   1.823   5.514   2.693  0.1590 -0.0357  0.0706
 9391TIP3    H149588   1.845   5.422   2.684 -0.0321 -0.0133 -0.7312
 9391TIP3    H249589   1.743   5.515   2.746 -0.1640 -0.3722 -0.4061
 9392TIP3   OH249590   6.193   3.289   3.387  0.3185 -0.9719  0.6786
 9392TIP3    H149591   6.170   3.281   3.294  1.0207 -0.1817  0.4245
 9392TIP3    H249592   6.110   3.314   3.430 -0.0053 -1.3214  0.2647
 9393TIP3   OH249593   4.768   3.754  15.085 -0.0005  0.2219 -0.5248
 9393TIP3    H149594   4.691   3.801  15.117  0.5544  1.7735 -1.3722
 9393TIP3    H249595   4.780   3.683  15.148 -1.6369  0.4285  0.0717
 9394TIP3   OH249596   0.406   4.361  11.127  0.4505  0.3794 -0.6925
 9394TIP3    H149597   0.473   4.427  11.147  0.1467  0.7579 -0.9070
 9394TIP3    H249598   0.367   4.340  11.211  1.1266 -0.1591 -0.5059
 9395TIP3   OH249599   1.776   0.485  12.243 -0.5579 -0.3455  0.6028
 9395TIP3    H149600   1.797   0.402  12.198  2.4797  0.6755 -0.0783
 9395TIP3    H249601   1.683   0.477  12.264 -1.0896 -2.7506 -1.9676
 9396TIP3   OH249602   4.617   2.034   1.995 -0.0254  0.1253 -0.1686
 9396TIP3    H149603   4.545   2.006   2.052 -0.6100  0.9122 -0.5070
 9396TIP3    H249604   4.575   2.052   1.911  0.7714 -0.6218 -0.7378
 9397TIP3   OH249605   2.973   6.520   3.571  0.3594  0.2715 -0.4327
 9397TIP3    H149606   3.066   6.505   3.555  0.2741 -1.0603  0.1960
 9397TIP3    H249607   2.968   6.608   3.609  1.3466  0.3869 -0.5632
 9398TIP3   OH249608   2.496   1.383   3.121  0.2630 -0.4483 -0.0479
 9398TIP3    H149609   2.498   1.289   3.101  1.5925 -0.2626 -0.8805
 9398TIP3    H249610   2.517   1.426   3.038  0.8769  0.5326  0.5918
 9399TIP3   OH249611   1.970   5.448   1.147  0.2110  0.2285 -0.4790
 9399TIP3    H149612   1.968   5.370   1.204 -2.2443 -0.9085 -1.9326
 9399TIP3    H249613   1.946   5.520   1.205  0.3650 -0.4456  0.4567
 9400TIP3   OH249614   2.446   5.994   3.998  0.1852 -0.4595  0.2933
 9400TIP3    H149615   2.412   5.961   4.080  0.2799  0.4780  0.7258
 9400TIP3    H249616   2.388   5.958   3.931 -0.3749 -0.5773  0.8383
 9401TIP3   OH249617   0.176   3.468  14.560 -0.0370  0.4582  0.6151
 9401TIP3    H149618   0.161   3.528  14.486  1.3071 -0.0569 -0.1016
 9401TIP3    H249619   0.174   3.525  14.637 -3.9775  0.6927  0.5417
 9402TIP3   OH249620   2.628   1.391  12.862  0.4720 -0.3207  0.1058
 9402TIP3    H149621   2.638   1.485  12.847  0.6781 -0.1988  0.9648
 9402TIP3    H249622   2.555   1.384  12.923 -1.7616 -0.9455 -2.4447
 9403TIP3   OH249623   2.465   1.562   5.177 -0.1672  0.3138 -0.0555
 9403TIP3    H149624   2.493   1.475   5.149 -0.8736 -0.1964  0.7770
 9403TIP3    H249625   2.436   1.605   5.096 -0.0133 -0.2910 -0.4414
 9404TIP3   OH249626   5.888   0.083   2.392 -0.1422  0.0585  0.2353
 9404TIP3    H149627   5.893   0.176   2.370 -1.4519 -0.3666 -2.2331
 9404TIP3    H249628   5.803   0.073   2.436 -1.2062 -0.3026 -1.7917
 9405TIP3   OH249629   0.234   3.171   2.551 -0.3741  0.5745 -0.0760
 9405TIP3    H149630   0.226   3.256   2.595 -2.5020 -0.2557  1.3050
 9405TIP3    H249631   0.294   3.121   2.606 -0.0608  0.7817 -0.2276
 9406TIP3   OH249632   2.773   6.126  14.879  0.1331  0.3423  0.1061
 9406TIP3    H149633   2.809   6.212  14.858 -0.5019  0.6968  0.4234
 9406TIP3    H249634   2.847   6.066  14.871  1.4145  1.3581  3.0872
 9407TIP3   OH249635   3.158   1.403   2.541 -0.1882 -0.4401 -0.0630
 9407TIP3    H149636   3.227   1.347   2.506 -1.3687 -1.0961 -1.4786
 9407TIP3    H249637   3.163   1.393   2.636  1.2776 -0.9129 -0.1746
 9408TIP3   OH249638   3.022   6.600   2.360 -0.1332 -0.5542 -0.2814
 9408TIP3    H149639   3.111   6.620   2.390 -1.5288  3.3773  2.0649
 9408TIP3    H249640   2.988   6.540   2.427  0.2396 -0.8649 -0.3598
 9409TIP3   OH249641   3.986   1.696  12.195 -0.2806 -0.1918  0.8396
 9409TIP3    H149642   4.014   1.679  12.284 -1.0977  2.9599  1.8018
 9409TIP3    H249643   3.902   1.741  12.204 -0.1701  0.6173 -1.5037
 9410TIP3   OH249644   2.619   6.763  11.432  0.6493  0.1835  0.0576
 9410TIP3    H149645   2.605   6.677  11.471 -1.8085  1.1186  1.4443
 9410TIP3    H249646   2.712   6.763  11.406  0.9293 -2.5262  0.7994
 9411TIP3   OH249647   0.897   1.657  15.154 -0.7357 -1.1866 -0.1851
 9411TIP3    H149648   0.925   1.590  15.216  1.6956  1.3546  1.7275
 9411TIP3    H249649   0.804   1.640  15.140  0.0667 -5.9261 -1.2725
 9412TIP3   OH249650   2.382   0.328   3.380 -0.0511 -0.6643  0.5646
 9412TIP3    H149651   2.406   0.375   3.460  0.8943  0.0291 -0.1131
 9412TIP3    H249652   2.411   0.238   3.395  2.3681 -0.0126  0.0694
 9413TIP3   OH249653   2.479   5.166  13.964  0.2317 -0.4822 -0.0720
 9413TIP3    H149654   2.403   5.144  14.017  1.0395 -0.4073  1.1591
 9413TIP3    H249655   2.508   5.082  13.929  0.4748 -0.7343  0.7088
 9414TIP3   OH249656   2.044   2.854  16.259  0.3750 -0.0243  0.0814
 9414TIP3    H149657   2.013   2.944  16.251  0.8723  0.1856  0.4802
 9414TIP3    H249658   2.099   2.841  16.182  0.2108 -0.0241 -0.0355
 9415TIP3   OH249659   2.301   5.117  12.791 -0.5192 -0.4771  0.1299
 9415TIP3    H149660   2.322   5.036  12.838  0.6837 -0.4607 -0.3444
 9415TIP3    H249661   2.227   5.154  12.838 -0.0844 -1.0633  1.3013
 9416TIP3   OH249662   5.558   3.514   2.187 -0.1256 -0.1336 -0.0644
 9416TIP3    H149663   5.478   3.463   2.192  0.2612 -0.8354 -0.8627
 9416TIP3    H249664   5.594   3.510   2.275 -0.4108 -0.7325  0.0294
 9417TIP3   OH249665   5.184   4.080  11.788 -0.5055  0.0536 -0.4556
 9417TIP3    H149666   5.245   4.097  11.860  0.0583 -2.4718 -0.2276
 9417TIP3    H249667   5.109   4.038  11.830  0.2010 -2.2621 -1.3537
 9418TIP3   OH249668   5.891   4.316   1.343  0.2527 -0.1576  0.0976
 9418TIP3    H149669   5.914   4.397   1.389  1.8473 -0.5049 -0.0197
 9418TIP3    H249670   5.930   4.327   1.256  0.4069 -1.0068  0.0525
 9419TIP3   OH249671   0.174   0.201  12.739  0.6538 -0.4970  0.3273
 9419TIP3    H149672   0.240   0.269  12.727  0.3503 -0.4234 -1.0783
 9419TIP3    H249673   0.187   0.142  12.665 -1.3015 -0.0959 -0.3936
 9420TIP3   OH249674   3.324   6.222   2.134  0.2695  0.5090  0.1076
 9420TIP3    H149675   3.242   6.183   2.106  0.4826 -1.0174  1.4494
 9420TIP3    H249676   3.308   6.248   2.225  1.9725 -2.2882  1.3441
 9421TIP3   OH249677   1.287   3.244  14.837 -1.1121  0.1899  0.1181
 9421TIP3    H149678   1.252   3.221  14.750  0.5826 -0.8098 -0.3470
 9421TIP3    H249679   1.257   3.173  14.894 -1.6634  0.4897  0.2030
 9422TIP3   OH249680   4.110   4.774  16.755 -0.4329 -0.0737  0.1972
 9422TIP3    H149681   4.202   4.769  16.781  0.0895  1.7975 -1.0853
 9422TIP3    H249682   4.082   4.861  16.782 -1.8147 -0.5975  0.4977
 9423TIP3   OH249683   1.679   2.890   2.062  0.0382 -0.0310  0.3977
 9423TIP3    H149684   1.747   2.949   2.031 -0.3100 -0.1310 -0.5784
 9423TIP3    H249685   1.722   2.804   2.066 -0.2894 -0.3106 -1.2838
 9424TIP3   OH249686   0.993   5.796  16.612 -0.0394 -0.0019  0.4539
 9424TIP3    H149687   0.931   5.736  16.652 -1.2335 -0.8878 -2.4504
 9424TIP3    H249688   1.058   5.740  16.570 -0.2888  0.7258 -0.9705
 9425TIP3   OH249689   4.825   0.405   0.960 -0.0477 -0.1834  0.7292
 9425TIP3    H149690   4.897   0.419   1.021 -0.1017  0.1885  0.7101
 9425TIP3    H249691   4.853   0.331   0.906  0.9277  0.8022 -0.1840
 9426TIP3   OH249692   0.522   2.583   5.805  0.3273 -0.2076  0.3034
 9426TIP3    H149693   0.457   2.518   5.779 -0.5839  1.5513 -2.2749
 9426TIP3    H249694   0.479   2.634   5.873 -1.2971  1.1649 -1.6269
 9427TIP3   OH249695   4.130   0.349   4.219  0.2995  0.2581 -0.1682
 9427TIP3    H149696   4.105   0.393   4.138  4.0419  0.2239 -1.5130
 9427TIP3    H249697   4.173   0.269   4.191 -3.0267 -2.6746  2.1509
 9428TIP3   OH249698   3.960   3.289  14.380 -0.5277  0.2160 -0.0160
 9428TIP3    H149699   4.033   3.319  14.326 -1.7706 -0.5976 -2.2872
 9428TIP3    H249700   3.882   3.327  14.338 -1.9065 -3.5996 -1.3307
 9429TIP3   OH249701   4.714   2.078   4.505 -0.0820  0.1574  0.2917
 9429TIP3    H149702   4.778   2.027   4.555 -0.6980  0.1761  1.1079
 9429TIP3    H249703   4.660   2.121   4.571 -1.1914 -0.1614 -0.3871
 9430TIP3   OH249704   2.213   0.134   5.455 -0.4639  0.3796 -0.1242
 9430TIP3    H149705   2.133   0.184   5.471 -1.6923 -1.5173 -0.0390
 9430TIP3    H249706   2.243   0.109   5.543 -0.0670  0.6343 -0.1848
 9431TIP3   OH249707   3.685   5.388  10.661 -0.0620  0.0274  0.2741
 9431TIP3    H149708   3.669   5.331  10.736  0.2297  0.2897  0.5338
 9431TIP3    H249709   3.751   5.341  10.610  0.1711  0.1321  0.4829
 9432TIP3   OH249710   5.157   2.901  15.156  0.1817  0.1928 -0.5099
 9432TIP3    H149711   5.222   2.911  15.226 -1.2093 -0.1933  0.8771
 9432TIP3    H249712   5.106   2.982  15.159 -1.4753 -0.8292  0.6506
 9433TIP3   OH249713   6.452   2.979   0.322  0.1622 -0.1501  0.5567
 9433TIP3    H149714   6.471   3.062   0.278 -0.0530  0.7593  2.1036
 9433TIP3    H249715   6.526   2.922   0.300  1.0138  0.9113  0.5806
 9434TIP3   OH249716   2.728   3.861   6.386 -0.2580 -0.1992  0.4783
 9434TIP3    H149717   2.791   3.805   6.339  0.3749 -0.4217  1.5655
 9434TIP3    H249718   2.654   3.803   6.405 -0.3843 -0.1883  0.0352
 9435TIP3   OH249719   3.957   2.015   4.047  0.0872 -0.0411  0.3561
 9435TIP3    H149720   4.027   2.027   4.111  0.1756  1.8139 -0.0230
 9435TIP3    H249721   3.969   2.086   3.985 -0.6874 -1.1289 -1.0978
 9436TIP3   OH249722   3.416   0.947   5.641  0.9114 -0.3341  0.0823
 9436TIP3    H149723   3.378   0.878   5.696 -1.2899 -0.9956 -2.0999
 9436TIP3    H249724   3.388   1.029   5.681 -0.6368 -0.8023  0.0110
 9437TIP3   OH249725   5.992   1.346  16.279 -0.0681  0.0138 -0.4516
 9437TIP3    H149726   5.972   1.415  16.341  0.2078  0.3602 -0.7398
 9437TIP3    H249727   5.917   1.286  16.283 -0.7803  0.8527 -0.9311
 9438TIP3   OH249728   2.563   0.172   3.152 -0.9289  0.5536 -0.5190
 9438TIP3    H149729   2.483   0.119   3.154 -1.6148  1.5873  0.6776
 9438TIP3    H249730   2.546   0.237   3.084 -1.7357  1.6714  0.7115
 9439TIP3   OH249731   5.313   4.164  15.794  0.3802 -1.3566  0.2086
 9439TIP3    H149732   5.232   4.119  15.821 -1.5644  1.4463 -0.5287
 9439TIP3    H249733   5.354   4.103  15.732 -0.7252 -3.1828  1.1688
 9440TIP3   OH249734   0.545   1.909   0.576  0.5613 -0.2034 -0.0510
 9440TIP3    H149735   0.470   1.849   0.574 -0.6092  1.2194 -0.1700
 9440TIP3    H249736   0.545   1.951   0.490  0.5048  0.9810  0.5152
 9441TIP3   OH249737   4.430   0.099  14.931 -0.2976  0.6495 -0.2590
 9441TIP3    H149738   4.482   0.081  15.009 -0.6487 -2.2322 -0.5775
 9441TIP3    H249739   4.460   0.185  14.902  2.7117  0.1015  0.8160
 9442TIP3   OH249740   5.264   2.759  14.634  0.9100 -0.1025  0.6053
 9442TIP3    H149741   5.279   2.679  14.684  1.3083 -0.9874 -0.8714
 9442TIP3    H249742   5.191   2.737  14.575  0.4827  0.8963  0.7431
 9443TIP3   OH249743   3.209   2.078   2.615 -0.2401  0.4267 -0.0642
 9443TIP3    H149744   3.186   2.017   2.545  3.3758 -3.2428  1.4561
 9443TIP3    H249745   3.290   2.119   2.585 -0.1553  0.9318  0.8159
 9444TIP3   OH249746   3.071   0.624   1.330  0.1363  0.0784  0.4770
 9444TIP3    H149747   3.156   0.655   1.299  0.2193 -0.9450 -0.3802
 9444TIP3    H249748   3.008   0.666   1.273  0.1988 -0.6683 -0.1558
 9445TIP3   OH249749   0.040   5.779  12.058 -0.4177 -0.5821  0.5824
 9445TIP3    H149750   0.012   5.728  11.982  0.7671  1.0171 -1.0002
 9445TIP3    H249751   0.112   5.729  12.096 -1.5630 -1.8174  1.2276
 9446TIP3   OH249752   4.344   6.638   0.918 -0.1178 -0.4078  0.6311
 9446TIP3    H149753   4.269   6.689   0.887  0.3643 -0.8137 -1.3412
 9446TIP3    H249754   4.312   6.548   0.924 -0.2126 -0.3336  1.4240
 9447TIP3   OH249755   1.789   5.578   0.827  0.3086 -0.0238  0.2593
 9447TIP3    H149756   1.700   5.543   0.830  0.1987  0.3084  2.1541
 9447TIP3    H249757   1.778   5.673   0.826  0.6110  0.0537  1.7801
 9448TIP3   OH249758   0.766   1.569   0.767 -0.6107  0.4759  0.3493
 9448TIP3    H149759   0.682   1.610   0.747 -0.4224  0.8174  0.2461
 9448TIP3    H249760   0.830   1.615   0.712 -0.4023 -0.0063  0.1757
 9449TIP3   OH249761   2.186   3.474  13.779  0.3702 -0.5019 -0.3143
 9449TIP3    H149762   2.182   3.383  13.808 -0.6894 -0.4463 -0.2321
 9449TIP3    H249763   2.279   3.496  13.780  0.4748 -0.8155  2.0844
 9450TIP3   OH249764   2.541   3.617  14.139  0.5598 -0.6662  0.2797
 9450TIP3    H149765   2.593   3.577  14.208  0.0812 -1.1212  0.3859
 9450TIP3    H249766   2.605   3.651  14.077  0.9846 -0.7331  0.6831
 9451TIP3   OH249767   6.655   1.548  16.285  0.0592  0.6969  0.4525
 9451TIP3    H149768   6.625   1.466  16.324 -0.0927  0.0461 -0.9889
 9451TIP3    H249769   6.751   1.546  16.296  0.3828 -1.0086 -1.9501
 9452TIP3   OH249770   4.006   5.814   0.515  0.2362 -0.2906 -0.0075
 9452TIP3    H149771   4.067   5.860   0.457 -0.1401  0.4970  0.2089
 9452TIP3    H249772   3.957   5.884   0.558 -2.7228 -0.9033 -2.1283
 9453TIP3   OH249773   0.682   4.958   3.387  1.1537 -0.5511  0.8927
 9453TIP3    H149774   0.600   4.957   3.436 -0.0186 -0.6975 -0.9675
 9453TIP3    H249775   0.737   5.022   3.433 -0.4106  0.3734  1.5548
 9454TIP3   OH249776   6.098   5.198  14.550 -0.1982  0.4122  0.1786
 9454TIP3    H149777   6.091   5.146  14.470  0.3793  0.8514 -0.1667
 9454TIP3    H249778   6.192   5.201  14.568 -0.3565 -0.0930  1.1540
 9455TIP3   OH249779   1.427   3.754  15.811  0.2926 -0.0793 -0.3527
 9455TIP3    H149780   1.423   3.730  15.904 -0.2497  1.5771  0.0830
 9455TIP3    H249781   1.361   3.699  15.769 -1.4391  1.0542  0.7291
 9456TIP3   OH249782   1.989   6.366   1.084 -0.4226  0.0970 -0.3724
 9456TIP3    H149783   2.034   6.347   1.002  1.1092  0.5286  0.3329
 9456TIP3    H249784   1.924   6.296   1.093  3.0400 -3.3325  0.6809
 9457TIP3   OH249785   2.200   6.696   0.903  1.1733  0.1632  0.7188
 9457TIP3    H149786   2.245   6.636   0.844  0.0923  1.6402 -1.7740
 9457TIP3    H249787   2.231   6.783   0.876 -3.1265  1.3178 -1.4059
 9458TIP3   OH249788   5.134   3.932   1.902  0.1318 -0.0222  0.5663
 9458TIP3    H149789   5.062   3.872   1.880  0.5803 -0.3471 -0.0429
 9458TIP3    H249790   5.189   3.882   1.963  0.5398 -0.2671  0.0095
 9459TIP3   OH249791   0.065   5.755   2.891  0.3189 -0.4611 -0.3961
 9459TIP3    H149792   0.044   5.662   2.881 -0.2482 -0.4100  0.3181
 9459TIP3    H249793   0.083   5.785   2.801 -0.4020 -1.0375 -0.7410
 9460TIP3   OH249794   4.906   1.012   1.909 -0.3827  0.0721 -0.2060
 9460TIP3    H149795   4.849   1.065   1.965  0.5704  1.2319 -0.2829
 9460TIP3    H249796   4.925   0.933   1.960 -1.1965  0.1607  0.2368
 9461TIP3   OH249797   4.005   3.302  14.044  0.1357  0.2417 -0.0281
 9461TIP3    H149798   3.916   3.310  14.078  0.2100  0.2108  0.1723
 9461TIP3    H249799   4.013   3.210  14.018  0.5920 -0.1196  1.3091
 9462TIP3   OH249800   1.816   5.335   5.785  0.1146  0.4789  1.0092
 9462TIP3    H149801   1.893   5.384   5.814  1.9580 -1.7677  0.1919
 9462TIP3    H249802   1.802   5.364   5.695  0.0528  0.8240  1.1284
 9463TIP3   OH249803   1.698   6.084   6.143  0.3122  0.5515  0.2923
 9463TIP3    H149804   1.667   6.163   6.186  0.4449 -0.3806  2.2111
 9463TIP3    H249805   1.794   6.091   6.144  0.3197  0.4592  0.2746
 9464TIP3   OH249806   5.382   0.518  12.007 -0.1127 -0.2311 -0.2278
 9464TIP3    H149807   5.383   0.425  11.985 -1.0581  0.0020 -1.3193
 9464TIP3    H249808   5.335   0.559  11.935  1.2419  1.2430 -0.3270
 9465TIP3   OH249809   1.776   1.067   0.463  1.0046 -0.3855 -0.1115
 9465TIP3    H149810   1.804   1.153   0.494  2.7644 -0.6149 -0.9280
 9465TIP3    H249811   1.765   1.015   0.543 -0.5665  0.6816  0.4229
 9466TIP3   OH249812   6.496   5.173   0.981 -0.2686  0.2262  0.6609
 9466TIP3    H149813   6.514   5.081   0.962 -2.1695  0.1272 -1.0382
 9466TIP3    H249814   6.580   5.217   0.969 -0.0650 -0.7807 -2.4580
 9467TIP3   OH249815   3.177   5.139  15.246 -0.0255  0.0304  0.4352
 9467TIP3    H149816   3.140   5.052  15.253 -1.0544  0.4960  0.9869
 9467TIP3    H249817   3.264   5.132  15.285 -0.9274 -0.2572  2.4993
 9468TIP3   OH249818   1.593   2.924  14.524  0.3176 -0.2689  0.5204
 9468TIP3    H149819   1.662   2.899  14.586 -0.2779 -0.4584  1.1235
 9468TIP3    H249820   1.575   3.016  14.545  0.8780 -0.0093 -0.1186
 9469TIP3   OH249821   4.297   4.836   4.564 -0.0762  0.6272 -0.4369
 9469TIP3    H149822   4.342   4.856   4.646  1.9362 -0.1732 -1.2830
 9469TIP3    H249823   4.223   4.897   4.561  0.0119  0.8983  1.7749
 9470TIP3   OH249824   5.221   2.291   6.143  0.5980  0.1133  0.3346
 9470TIP3    H149825   5.302   2.255   6.107  0.6342 -0.4635  0.9589
 9470TIP3    H249826   5.201   2.366   6.088  1.0626 -0.2854 -0.3987
 9471TIP3   OH249827   5.742   3.356   4.170 -0.0067 -0.6782  0.1540
 9471TIP3    H149828   5.801   3.287   4.199 -0.4641 -1.2020 -0.1566
 9471TIP3    H249829   5.785   3.392   4.091 -0.1284 -1.0898 -0.0996
 9472TIP3   OH249830   0.572   2.715   2.056  0.3812 -0.0850  0.1256
 9472TIP3    H149831   0.584   2.800   2.015  1.9707 -0.3299  0.0309
 9472TIP3    H249832   0.606   2.726   2.145 -1.3852 -0.0568  0.8531
 9473TIP3   OH249833   6.271   1.834  11.609  0.5205 -0.2012  0.0597
 9473TIP3    H149834   6.332   1.781  11.659  0.2445  0.2029  0.8435
 9473TIP3    H249835   6.311   1.843  11.523  0.5972 -1.6224 -0.0700
 9474TIP3   OH249836   2.168   1.311  13.396 -0.2251 -0.2510 -0.8084
 9474TIP3    H149837   2.087   1.357  13.418 -0.1253 -0.5567  0.2632
 9474TIP3    H249838   2.153   1.221  13.424  1.0109  0.0001  0.8610
 9475TIP3   OH249839   3.106   6.251  13.027 -0.3142  0.2827 -0.3144
 9475TIP3    H149840   3.049   6.254  12.950  0.1179 -0.7120 -0.6964
 9475TIP3    H249841   3.134   6.160  13.033  0.4739  0.5523  0.4265
 9476TIP3   OH249842   2.966   5.763   0.280  0.3947  0.0876  0.4784
 9476TIP3    H149843   2.928   5.693   0.333  0.3548  0.7146  1.3007
 9476TIP3    H249844   2.904   5.835   0.288  0.9336  0.5585  0.4717
 9477TIP3   OH249845   1.944   4.058   1.583  0.6123  0.0344 -0.4456
 9477TIP3    H149846   1.859   4.091   1.612  0.9039 -0.1869  0.7356
 9477TIP3    H249847   1.972   4.000   1.655  1.1503 -0.9496 -1.4253
 9478TIP3   OH249848   5.102   4.467  15.134  0.1844 -0.2609  0.0289
 9478TIP3    H149849   5.021   4.436  15.175 -0.2795 -0.0994 -0.7531
 9478TIP3    H249850   5.139   4.390  15.092 -0.6710  0.0837 -1.4201
 9479TIP3   OH249851   2.793   6.122  12.682 -0.0225  0.2631  0.1478
 9479TIP3    H149852   2.772   6.029  12.675  0.5738  0.1536 -0.2815
 9479TIP3    H249853   2.709   6.166  12.677 -0.2658 -0.2312 -0.1440
 9480TIP3   OH249854   2.497   4.070  12.617  0.0857 -0.4888  0.5607
 9480TIP3    H149855   2.539   4.041  12.698 -0.5471 -0.8394  0.7682
 9480TIP3    H249856   2.409   4.096  12.644 -0.8135 -2.4231 -0.2928
 9481TIP3   OH249857   1.618   3.136   6.101  0.2147  0.3521  0.8098
 9481TIP3    H149858   1.567   3.189   6.164  0.3979  1.4549  0.0632
 9481TIP3    H249859   1.574   3.151   6.017 -0.0235 -1.1008  0.6576
 9482TIP3   OH249860   2.383   5.390   1.387  0.4129 -0.0218 -0.6587
 9482TIP3    H149861   2.316   5.453   1.416  0.0516 -0.2052 -1.0687
 9482TIP3    H249862   2.395   5.331   1.462  0.0841 -0.0085 -0.5933
 9483TIP3   OH249863   3.013   4.908   1.374 -0.5371  0.2434  0.2110
 9483TIP3    H149864   3.059   4.900   1.458  1.7050  2.1594 -0.7216
 9483TIP3    H249865   3.070   4.864   1.311 -1.3906  0.2368 -0.5826
 9484TIP3   OH249866   0.527   2.344   3.031 -0.5101  0.3804  0.0878
 9484TIP3    H149867   0.560   2.395   2.957 -0.9201 -2.4323 -2.1942
 9484TIP3    H249868   0.604   2.302   3.068 -0.5938 -0.1022 -0.2843
 9485TIP3   OH249869   6.037   6.056   0.215 -0.3057  0.2248 -0.3792
 9485TIP3    H149870   5.948   6.047   0.249  0.1593  0.9266  1.1459
 9485TIP3    H249871   6.092   6.061   0.294  1.1531 -0.7620 -1.2844
 9486TIP3   OH249872   4.872   5.339   3.181 -0.2237 -0.6114 -0.7996
 9486TIP3    H149873   4.890   5.423   3.139 -0.7070  0.0880  0.3477
 9486TIP3    H249874   4.789   5.352   3.228 -1.1035 -2.2017 -1.8255
 9487TIP3   OH249875   0.821   4.989  10.789 -0.2383 -0.1256 -0.1401
 9487TIP3    H149876   0.783   4.983  10.877  0.4495 -0.3465  0.1414
 9487TIP3    H249877   0.913   4.966  10.800 -0.3885 -1.2991 -1.1080
 9488TIP3   OH249878   6.765   4.546   2.709 -0.5250  0.0330 -0.6311
 9488TIP3    H149879   6.785   4.564   2.617  0.3211  1.2308 -0.2358
 9488TIP3    H249880   6.728   4.628   2.742 -1.2706 -0.5390 -0.0078
 9489TIP3   OH249881   3.721   0.690   1.061  0.5534  0.1281  0.4735
 9489TIP3    H149882   3.733   0.784   1.072  4.0965 -0.1520  0.3660
 9489TIP3    H249883   3.767   0.651   1.135  1.3583 -1.4820 -0.7814
 9490TIP3   OH249884   6.451   5.663   0.315  0.2766 -0.7599 -0.1176
 9490TIP3    H149885   6.507   5.584   0.315 -0.4475 -1.2913 -1.3106
 9490TIP3    H249886   6.479   5.712   0.238  0.6595  0.1437  0.5685
 9491TIP3   OH249887   1.788   3.000   4.810  0.4903 -0.1232  0.4634
 9491TIP3    H149888   1.828   3.086   4.826  1.3398 -0.5358  0.6381
 9491TIP3    H249889   1.819   2.946   4.882 -0.3568 -0.4769  0.5647
 9492TIP3   OH249890   6.665   6.780  10.627  1.0245  0.0428 -0.0038
 9492TIP3    H149891   6.744   6.831  10.608  1.1304  0.4421  1.3912
 9492TIP3    H249892   6.611   6.837  10.680  0.1344 -0.5219 -0.2703
 9493TIP3   OH249893   5.751   4.258   2.323 -0.2768 -0.7877 -0.1765
 9493TIP3    H149894   5.677   4.299   2.368 -0.5051 -2.5888  1.2243
 9493TIP3    H249895   5.714   4.178   2.284  0.7317 -1.2320 -0.2496
 9494TIP3   OH249896   3.484   5.152  14.290 -0.1008 -0.0194 -0.2141
 9494TIP3    H149897   3.454   5.139  14.200 -1.8130  1.9957 -0.0117
 9494TIP3    H249898   3.418   5.211  14.329  1.0807 -0.1131  2.0764
 9495TIP3   OH249899   0.446   0.812   0.227 -0.7151  0.1062 -0.2941
 9495TIP3    H149900   0.350   0.814   0.232 -0.7737 -0.5542 -1.0281
 9495TIP3    H249901   0.465   0.788   0.137  0.1295 -1.0049  0.1561
 9496TIP3   OH249902   4.210   2.826   5.709  0.1296  0.3666 -0.4182
 9496TIP3    H149903   4.194   2.892   5.776 -0.4782 -0.8854  0.7158
 9496TIP3    H249904   4.258   2.757   5.754  0.8100  0.0495 -1.5916
 9497TIP3   OH249905   1.623   0.068  12.780 -0.4841 -0.7763  0.0109
 9497TIP3    H149906   1.604  -0.016  12.822 -2.2909  0.6083  2.2175
 9497TIP3    H249907   1.699   0.102  12.826 -1.1607 -0.2264  0.7703
 9498TIP3   OH249908   4.031   3.131  15.650 -0.6256 -0.1254 -0.7519
 9498TIP3    H149909   4.026   3.119  15.555  0.9966  1.0040 -1.0371
 9498TIP3    H249910   4.036   3.226  15.662  3.2528 -0.2396  0.0773
 9499TIP3   OH249911   6.042   2.144  11.090 -0.4138 -0.4796  0.4734
 9499TIP3    H149912   6.110   2.132  11.156 -0.2772 -0.1746  0.3883
 9499TIP3    H249913   6.011   2.233  11.102 -0.5318 -0.4903  0.2588
 9500TIP3   OH249914   0.131   3.003   5.933  0.6418 -0.0537  0.5280
 9500TIP3    H149915   0.039   3.003   5.961  0.6231 -1.1676  0.5193
 9500TIP3    H249916   0.178   2.963   6.007  0.8685 -1.1635 -0.1997
 9501TIP3   OH249917   2.616   2.594  16.770 -0.2234 -0.1083 -0.2936
 9501TIP3    H149918   2.657   2.673  16.806  0.5186 -0.8264  0.4940
 9501TIP3    H249919   2.646   2.524  16.828  0.9122 -1.3278 -2.2400
 9502TIP3   OH249920   4.212   5.023   2.650  0.1085  0.2512  0.2079
 9502TIP3    H149921   4.146   4.970   2.606 -0.1367  2.2486 -2.0740
 9502TIP3    H249922   4.170   5.107   2.664  1.7511  1.2147 -0.2637
 9503TIP3   OH249923   1.183   4.581  13.752 -0.1562 -0.2804  0.4087
 9503TIP3    H149924   1.103   4.535  13.776 -0.9676 -0.1597 -1.8214
 9503TIP3    H249925   1.250   4.545  13.809 -1.5475 -1.3166  1.4529
 9504TIP3   OH249926   1.511   1.966  13.201 -0.2575  0.1692 -0.3327
 9504TIP3    H149927   1.532   2.053  13.237 -0.5501  0.2890 -0.4504
 9504TIP3    H249928   1.518   1.907  13.276 -1.6428  0.5345  0.1063
 9505TIP3   OH249929   5.834   3.203   5.347 -0.2106  0.3185  0.5987
 9505TIP3    H149930   5.870   3.270   5.404  0.6358  1.2344 -0.9528
 9505TIP3    H249931   5.879   3.122   5.373 -0.2334  0.6155  1.5701
 9506TIP3   OH249932   3.333   2.894   5.343  0.2379  0.3732  0.2511
 9506TIP3    H149933   3.307   2.856   5.259  2.0481  2.3343 -1.2961
 9506TIP3    H249934   3.375   2.822   5.390 -1.3861 -0.9272 -0.1762
 9507TIP3   OH249935   5.953   6.630   5.847 -0.1594 -0.3084  0.4495
 9507TIP3    H149936   5.901   6.705   5.817 -0.2375 -0.4419  0.2564
 9507TIP3    H249937   5.964   6.575   5.770  3.4417  1.4979 -0.5902
 9508TIP3   OH249938   0.527   3.415  17.082 -0.1790 -0.4711  0.2743
 9508TIP3    H149939   0.503   3.396  16.991 -0.0527 -3.6155  0.7877
 9508TIP3    H249940   0.465   3.363  17.134  0.6381  0.1849  1.9594
 9509TIP3   OH249941   0.328   2.275  14.729  0.1111  0.5675  0.1843
 9509TIP3    H149942   0.355   2.311  14.814 -1.7609  1.9865  0.2436
 9509TIP3    H249943   0.319   2.181  14.745  0.5211  0.7050  1.3338
 9510TIP3   OH249944   5.715   0.167   3.225 -0.0550  0.4791 -0.8803
 9510TIP3    H149945   5.632   0.160   3.274  1.1136  1.6905  1.4452
 9510TIP3    H249946   5.776   0.114   3.276  0.9103  0.6449 -1.8425
 9511TIP3   OH249947   5.537   3.195  11.513 -0.0814  0.5140  0.6083
 9511TIP3    H149948   5.620   3.199  11.559  0.6347  3.0384 -0.7274
 9511TIP3    H249949   5.552   3.243  11.431 -2.1984 -0.9708 -0.7700
 9512TIP3   OH249950   3.714   2.174  14.723 -0.1320  0.1951  0.6284
 9512TIP3    H149951   3.657   2.102  14.750 -0.4338  0.9227  2.0201
 9512TIP3    H249952   3.688   2.192  14.632  0.0223 -1.4844  0.2055
 9513TIP3   OH249953   2.269   2.993   0.057  0.1219  0.4175 -0.2122
 9513TIP3    H149954   2.286   3.046  -0.021 -1.2339  0.4884 -0.4905
 9513TIP3    H249955   2.175   3.003   0.072  0.0819 -0.8711  0.4971
 9514TIP3   OH249956   2.913   6.769  15.151 -0.0967  0.4947  0.1348
 9514TIP3    H149957   2.885   6.690  15.197  0.8263  0.3244  0.4150
 9514TIP3    H249958   2.872   6.840  15.199 -0.3868  0.2239  0.2934
 9515TIP3   OH249959   2.185   5.377  16.999 -0.3610  0.3460 -0.0972
 9515TIP3    H149960   2.124   5.319  16.952 -0.3451  0.1562  0.1163
 9515TIP3    H249961   2.134   5.411  17.072 -0.1943  0.1424  0.1147
 9516TIP3   OH249962   0.600   0.325   5.611 -0.1968 -0.0941  0.7493
 9516TIP3    H149963   0.614   0.396   5.674  1.3595 -0.0265  0.3626
 9516TIP3    H249964   0.651   0.252   5.645 -0.0546 -0.3345  0.0401
 9517TIP3   OH249965   0.928   1.131  16.207  0.0235 -0.1076  0.4156
 9517TIP3    H149966   0.979   1.146  16.127  1.0036 -3.3696  0.2892
 9517TIP3    H249967   0.856   1.075  16.179  0.1695 -0.9801  1.7396
 9518TIP3   OH249968   2.331   5.598  11.244  0.6198 -0.0220  0.3526
 9518TIP3    H149969   2.236   5.605  11.247  0.6668  0.8180  0.0831
 9518TIP3    H249970   2.348   5.504  11.253 -0.2733 -0.2959 -0.6073
 9519TIP3   OH249971   0.076   3.725   3.448 -0.1477  0.0271 -0.2757
 9519TIP3    H149972   0.118   3.751   3.366  0.6696  0.4193  0.2471
 9519TIP3    H249973   0.094   3.798   3.508 -1.1356 -0.0385  0.1160
 9520TIP3   OH249974   3.319   2.530   3.799 -0.3381  0.2485  0.4285
 9520TIP3    H149975   3.281   2.561   3.717  0.7727  2.2257  0.5797
 9520TIP3    H249976   3.243   2.506   3.853 -1.1860  0.7618 -0.5024
 9521TIP3   OH249977   4.206   2.622  11.656  0.1270  0.5073 -0.4227
 9521TIP3    H149978   4.180   2.699  11.605 -0.0026  0.5646 -0.2686
 9521TIP3    H249979   4.130   2.603  11.711  0.0480  0.0893 -0.6769
 9522TIP3   OH249980   6.290   1.421  14.276  0.6061 -0.2976 -0.0801
 9522TIP3    H149981   6.271   1.422  14.370 -2.4995 -1.0257 -0.5816
 9522TIP3    H249982   6.372   1.468  14.268  0.9657 -0.1669  2.9895
 9523TIP3   OH249983   3.475   3.891  12.568  0.2132  0.1918 -0.1129
 9523TIP3    H149984   3.484   3.901  12.473 -1.1353  0.4764 -0.2320
 9523TIP3    H249985   3.508   3.803  12.586 -1.1642 -0.5586 -1.1129
 9524TIP3   OH249986   3.600   5.255   1.499 -0.5744  0.0084  0.2497
 9524TIP3    H149987   3.597   5.313   1.576  1.2346 -1.3366  1.4099
 9524TIP3    H249988   3.692   5.250   1.476 -0.8748 -1.1326 -0.8500
 9525TIP3   OH249989   6.268   3.141  16.292  0.2063  0.1474 -0.2500
 9525TIP3    H149990   6.179   3.138  16.326  1.2365  1.3527  2.8832
 9525TIP3    H249991   6.321   3.099  16.360  2.2565  1.1672 -1.1342
 9526TIP3   OH249992   1.007   5.386  14.995  0.1319 -0.0977 -0.2476
 9526TIP3    H149993   0.948   5.404  15.068 -0.0899 -0.5714 -0.3027
 9526TIP3    H249994   1.031   5.294  15.006  2.1323  0.4736  0.6834
 9527TIP3   OH249995   0.964   6.116   3.209 -0.2630 -0.5754 -0.2096
 9527TIP3    H149996   0.940   6.028   3.236  1.2120 -0.1918  2.7510
 9527TIP3    H249997   0.895   6.143   3.149 -1.5520 -3.1568 -0.0004
 9528TIP3   OH249998   1.634   3.695   5.861  0.2038 -0.0119 -0.3788
 9528TIP3    H149999   1.651   3.670   5.951  0.2615  0.8793 -0.1346
 9528TIP3    H250000   1.663   3.786   5.855  1.9206 -0.5930 -1.7704
 9529TIP3   OH250001   5.373   6.142  16.045  0.5068 -0.1074  0.2654
 9529TIP3    H150002   5.435   6.199  16.091  2.2117 -0.0220 -1.9273
 9529TIP3    H250003   5.350   6.075  16.108  1.6452  0.7451  1.6504
 9530TIP3   OH250004   1.977   3.930  13.284  0.4443 -0.3781  0.0084
 9530TIP3    H150005   2.005   3.898  13.198 -0.8511 -2.6443  0.3293
 9530TIP3    H250006   1.881   3.924  13.282  0.4170 -2.6185  2.2558
 9531TIP3   OH250007   6.580   4.280   1.681 -0.6194  0.5534 -0.7147
 9531TIP3    H150008   6.559   4.347   1.616 -0.9937  0.5568 -0.5889
 9531TIP3    H250009   6.496   4.253   1.717 -0.7172 -1.5105 -2.2782
 9532TIP3   OH250010   2.194   4.630   5.789 -0.4291  0.4378 -0.1273
 9532TIP3    H150011   2.193   4.543   5.829  2.2220  0.6818  0.6618
 9532TIP3    H250012   2.182   4.691   5.862 -0.9758  0.7693 -0.4874
 9533TIP3   OH250013   0.917   5.521  14.249  0.3520 -0.1922 -0.6549
 9533TIP3    H150014   0.927   5.516  14.344 -0.8723 -0.0514 -0.5033
 9533TIP3    H250015   0.951   5.437  14.217  2.7369  0.5634 -0.3101
 9534TIP3   OH250016   0.682   1.061  14.968  0.9758  0.5700  0.0628
 9534TIP3    H150017   0.710   0.981  14.923  1.6845  1.4440 -1.1080
 9534TIP3    H250018   0.747   1.074  15.037  0.0062 -0.6607  1.2712
 9535TIP3   OH250019   4.523   0.177   1.412 -0.0706 -0.2850 -0.0919
 9535TIP3    H150020   4.545   0.209   1.325  0.4659  0.9903  0.4870
 9535TIP3    H250021   4.572   0.234   1.472 -0.3244 -1.2095  1.0438
 9536TIP3   OH250022   0.184   3.451   1.154  0.0800 -0.0715 -1.0796
 9536TIP3    H150023   0.177   3.506   1.077  0.1601  0.8303 -0.4633
 9536TIP3    H250024   0.251   3.493   1.208 -0.0875 -0.5919 -0.4461
 9537TIP3   OH250025   1.993   5.928  14.357 -0.1251  0.0465  0.1257
 9537TIP3    H150026   1.944   5.897  14.281 -1.3681 -2.6079  1.8531
 9537TIP3    H250027   2.042   6.004  14.325 -0.6711 -0.8632 -3.2625
 9538TIP3   OH250028   0.117   3.393  13.579  0.1602  0.3152  0.0851
 9538TIP3    H150029   0.050   3.347  13.628 -0.4535  1.1482  0.0467
 9538TIP3    H250030   0.074   3.472  13.547  1.0435  0.6675 -0.2800
 9539TIP3   OH250031   1.174   5.881   4.336 -0.9489  0.0574 -0.4868
 9539TIP3    H150032   1.253   5.935   4.341 -0.7491 -0.3718  2.2069
 9539TIP3    H250033   1.108   5.930   4.386 -1.3512 -1.2246  0.2766
 9540TIP3   OH250034   2.048   6.501   5.828  0.0154  0.3356 -0.4371
 9540TIP3    H150035   2.107   6.425   5.824 -0.4456  0.0036 -1.0693
 9540TIP3    H250036   2.037   6.528   5.737 -3.1627 -1.4570 -0.7051
 9541TIP3   OH250037   4.446   2.690   1.916 -0.2195 -0.2300  0.1592
 9541TIP3    H150038   4.459   2.749   1.842 -0.5377 -0.6130 -0.2091
 9541TIP3    H250039   4.454   2.745   1.993 -3.2457  0.8816 -0.1846
 9542TIP3   OH250040   1.128   4.170   2.373  0.2444 -0.8756  0.4461
 9542TIP3    H150041   1.157   4.211   2.454  2.4285 -0.3740 -0.5007
 9542TIP3    H250042   1.084   4.240   2.325 -0.6017 -1.0437  0.9489
 9543TIP3   OH250043   6.087   1.606  12.203  0.1398  0.4860 -0.2042
 9543TIP3    H150044   6.021   1.648  12.259  0.1725 -0.3469  0.4741
 9543TIP3    H250045   6.038   1.540  12.154  0.3389  0.3507 -0.2190
 9544TIP3   OH250046   3.612   1.993   1.510 -0.1882 -0.6228 -0.4937
 9544TIP3    H150047   3.678   1.987   1.579  0.4862 -1.2980 -1.1832
 9544TIP3    H250048   3.661   1.985   1.428 -1.0594 -0.5917 -1.0343
 9545TIP3   OH250049   2.892   1.369  13.222  0.0973 -0.0377  0.1469
 9545TIP3    H150050   2.899   1.425  13.144 -0.2136 -0.5646 -0.2672
 9545TIP3    H250051   2.859   1.427  13.290 -0.0917  0.3206 -0.2423
 9546TIP3   OH250052   4.606   6.417   3.322  0.2096 -0.0598  0.2094
 9546TIP3    H150053   4.641   6.422   3.233  0.3808  2.3839  0.3411
 9546TIP3    H250054   4.531   6.357   3.315 -0.4598  0.9279 -1.8495
 9547TIP3   OH250055   0.893   5.278  13.511 -0.3413  0.1188  0.4025
 9547TIP3    H150056   0.879   5.309  13.601  4.3505  0.2024  1.3632
 9547TIP3    H250057   0.921   5.356  13.463  2.1748 -0.7514  0.3223
 9548TIP3   OH250058   2.989   1.578   1.082 -0.3600  0.2933  0.5259
 9548TIP3    H150059   2.895   1.599   1.085 -0.4654 -0.2159  0.7268
 9548TIP3    H250060   2.997   1.494   1.127 -0.0064 -0.3516 -0.6880
 9549TIP3   OH250061   3.321   6.417  13.060  0.1358  0.0209  0.1387
 9549TIP3    H150062   3.250   6.353  13.058 -1.0876  1.3053  0.6991
 9549TIP3    H250063   3.381   6.389  12.990 -1.8071 -0.1068 -1.5472
 9550TIP3   OH250064   2.598   6.112   1.204  0.4102 -0.2189  0.0750
 9550TIP3    H150065   2.591   6.019   1.186 -0.0903 -0.3857  1.0282
 9550TIP3    H250066   2.518   6.150   1.168  0.1339 -0.3236  0.5583
 9551TIP3   OH250067   1.372   2.676   4.322  0.1784 -0.3105 -0.1707
 9551TIP3    H150068   1.360   2.619   4.398  1.1374  1.1633  1.1321
 9551TIP3    H250069   1.464   2.702   4.326  0.0785  0.3339 -1.4630
 9552TIP3   OH250070   4.438   6.636  12.601 -0.8931 -0.2757 -0.0706
 9552TIP3    H150071   4.477   6.585  12.531 -0.5057  0.2447 -0.2442
 9552TIP3    H250072   4.507   6.696  12.628 -1.0596 -0.4254  0.7108
 9553TIP3   OH250073   2.242   5.213   0.464 -0.2819  0.5417  0.2687
 9553TIP3    H150074   2.287   5.129   0.462 -1.7643 -0.5741  4.6505
 9553TIP3    H250075   2.302   5.271   0.510 -0.5076  1.0573 -0.0729
 9554TIP3   OH250076   2.136   5.621   3.935  0.4368 -0.1057  0.4511
 9554TIP3    H150077   2.045   5.592   3.930  0.5728 -0.4640 -0.0308
 9554TIP3    H250078   2.158   5.614   4.028  0.2394 -0.8474  0.4493
 9555TIP3   OH250079   6.740   0.084   4.606  0.3295  0.1141 -0.0644
 9555TIP3    H150080   6.693   0.167   4.611  1.2162  0.5734  1.0403
 9555TIP3    H250081   6.762   0.074   4.514 -0.3286  0.7916 -0.3024
 9556TIP3   OH250082   5.539   4.070   4.212  0.4698  0.1693 -0.2913
 9556TIP3    H150083   5.488   4.018   4.149 -0.4441  0.5580  0.1119
 9556TIP3    H250084   5.588   4.132   4.157  3.9501 -2.9321 -1.0756
 9557TIP3   OH250085   1.367   2.498  11.695  0.2175 -0.1887  0.1315
 9557TIP3    H150086   1.317   2.538  11.624 -0.4678  0.0536  0.7368
 9557TIP3    H250087   1.361   2.404  11.678 -1.5370 -0.2433  0.8816
 9558TIP3   OH250088   1.212   6.719  13.332  0.1181 -0.1634  0.2464
 9558TIP3    H150089   1.185   6.653  13.268 -0.7109 -0.7627  1.1848
 9558TIP3    H250090   1.270   6.671  13.392  0.3814  0.2286  0.3049
 9559TIP3   OH250091   5.244   0.523  13.843  0.0060 -0.6740 -0.2896
 9559TIP3    H150092   5.299   0.506  13.766  1.2300  0.5850  0.2713
 9559TIP3    H250093   5.159   0.548  13.806  0.7449  0.4994 -1.2717
 9560TIP3   OH250094   3.243   3.554   5.169  0.0250 -0.3132  0.5787
 9560TIP3    H150095   3.277   3.527   5.254 -0.0556 -1.3022  0.3051
 9560TIP3    H250096   3.157   3.511   5.163  1.4539 -3.1630 -1.4427
 9561TIP3   OH250097   3.803   0.493   5.784  0.4510  0.4769  0.2732
 9561TIP3    H150098   3.767   0.408   5.758 -0.8243  1.0443  0.0882
 9561TIP3    H250099   3.890   0.473   5.817  0.6546 -0.7462 -0.9030
 9562TIP3   OH250100   3.889   2.254   2.814  0.3273  0.4958  0.0278
 9562TIP3    H150101   3.905   2.224   2.725 -0.2590 -1.6839  0.5917
 9562TIP3    H250102   3.974   2.283   2.846  0.9595 -0.6139 -0.5921
 9563TIP3   OH250103   2.624   1.316   2.837  0.2168  0.7919  0.2173
 9563TIP3    H150104   2.664   1.232   2.857 -0.2955  0.2962 -0.7824
 9563TIP3    H250105   2.546   1.294   2.786 -1.7830  1.6665  2.6698
 9564TIP3   OH250106   1.436   5.091  16.375  0.1829  0.4830  0.3268
 9564TIP3    H150107   1.346   5.062  16.390  0.8427 -1.7301  0.3395
 9564TIP3    H250108   1.462   5.132  16.457 -0.5597  0.4443  0.5887
 9565TIP3   OH250109   6.348   5.531   1.000 -0.1739 -0.1636  0.1560
 9565TIP3    H150110   6.316   5.566   1.084 -1.3444  2.0060 -1.0949
 9565TIP3    H250111   6.270   5.494   0.959  0.4069 -1.2829  0.0404
 9566TIP3   OH250112   1.593   3.855   1.579  0.2847  0.3880  0.2703
 9566TIP3    H150113   1.503   3.866   1.612 -0.5330 -0.8610 -1.4219
 9566TIP3    H250114   1.600   3.762   1.558  1.6956  0.6349 -0.4789
 9567TIP3   OH250115   4.086   5.164  17.047 -0.0627 -0.7653 -0.4679
 9567TIP3    H150116   4.150   5.217  17.095  0.1620 -0.0958 -1.4732
 9567TIP3    H250117   4.005   5.174  17.097 -0.4203  1.7941 -1.3880
 9568TIP3   OH250118   1.283   4.806   2.346  0.0981 -0.4738  0.4345
 9568TIP3    H150119   1.279   4.761   2.430  0.0323  0.8327  1.1536
 9568TIP3    H250120   1.232   4.750   2.287  0.3185 -1.5167  1.1890
 9569TIP3   OH250121   6.142   1.704   0.458 -0.0679 -0.0037  0.6870
 9569TIP3    H150122   6.213   1.657   0.415 -1.4708 -0.7525 -0.9016
 9569TIP3    H250123   6.163   1.797   0.445  0.6926 -0.2117  0.3788
 9570TIP3   OH250124   1.332   1.997  16.781  0.2837 -0.2182 -0.3457
 9570TIP3    H150125   1.240   1.996  16.807  0.4859  0.4732  0.4550
 9570TIP3    H250126   1.371   1.926  16.832 -0.2176 -2.1135 -2.4499
 9571TIP3   OH250127   0.605   3.573   4.222  0.0878  0.3659  0.5804
 9571TIP3    H150128   0.671   3.630   4.185  0.7897 -0.8540 -0.1022
 9571TIP3    H250129   0.621   3.575   4.316  0.3793  0.9363  0.5187
 9572TIP3   OH250130   1.284   4.153  10.915  0.3896  0.7348 -0.1790
 9572TIP3    H150131   1.327   4.152  10.829  1.4302 -0.4357  0.3282
 9572TIP3    H250132   1.231   4.074  10.916 -1.2102  1.7647 -0.4859
 9573TIP3   OH250133   5.606   5.763  14.547 -0.1017 -0.1694  0.1387
 9573TIP3    H150134   5.626   5.750  14.640  0.2394 -3.3933 -0.2855
 9573TIP3    H250135   5.662   5.701  14.501 -0.5633  1.0522 -2.2424
 9574TIP3   OH250136   3.192   1.162  12.618  0.3464  0.4493 -0.2050
 9574TIP3    H150137   3.162   1.120  12.698 -1.0750  1.6406 -0.0791
 9574TIP3    H250138   3.261   1.222  12.646  1.0791 -0.4017 -0.1393
 9575TIP3   OH250139   1.013   2.415   0.247  0.0277 -0.8068  0.5017
 9575TIP3    H150140   0.925   2.427   0.282  0.0231 -1.4021  0.7033
 9575TIP3    H250141   1.070   2.420   0.324  0.0617 -1.6106  0.5383
 9576TIP3   OH250142   4.096   2.358  17.269 -0.2432 -0.1746  0.3177
 9576TIP3    H150143   4.137   2.346  17.184  0.4561 -1.9088  0.8743
 9576TIP3    H250144   4.039   2.282  17.280 -2.9933  1.6933 -0.0265
 9577TIP3   OH250145   6.142   3.367   0.514  0.1642  0.3452 -0.3075
 9577TIP3    H150146   6.197   3.446   0.512 -0.3981  0.7338 -0.4569
 9577TIP3    H250147   6.141   3.341   0.606 -0.1205  0.8417 -0.1692
 9578TIP3   OH250148   4.356   5.264   2.969 -0.1841  0.1639  0.7220
 9578TIP3    H150149   4.338   5.215   3.049 -0.5518  0.3877  0.7787
 9578TIP3    H250150   4.291   5.231   2.906 -0.6442  0.7993  0.8531
 9579TIP3   OH250151   2.668   1.945  12.847 -0.9735  0.5240 -0.0056
 9579TIP3    H150152   2.663   1.931  12.752  2.3188 -2.5575  0.0790
 9579TIP3    H250153   2.746   2.000  12.859  0.2408 -1.3006  0.9345
 9580TIP3   OH250154   0.914   0.079  13.271  0.0123  0.2007 -0.1471
 9580TIP3    H150155   0.857   0.152  13.245 -2.4476 -1.0108  1.4531
 9580TIP3    H250156   0.977   0.118  13.330 -0.3988  1.2730 -0.3948
 9581TIP3   OH250157   4.135   1.212   3.484 -0.1836 -0.4968 -0.0452
 9581TIP3    H150158   4.129   1.145   3.552  0.0889 -0.7961 -0.3097
 9581TIP3    H250159   4.110   1.294   3.527 -1.0112 -0.8480  0.1604
 9582TIP3   OH250160   5.983   2.601  11.636 -0.4782 -0.0118  0.1283
 9582TIP3    H150161   6.054   2.641  11.686 -0.4361 -0.7325  0.6619
 9582TIP3    H250162   5.946   2.673  11.585  0.2339  0.4958  0.3181
 9583TIP3   OH250163   2.944   1.350   4.129  0.2372  0.1121 -0.4833
 9583TIP3    H150164   3.009   1.352   4.058 -1.0331 -0.1567 -1.7138
 9583TIP3    H250165   2.906   1.262   4.124  1.9732 -0.9279  2.3587
 9584TIP3   OH250166   2.168   4.755   0.494  0.2942 -0.4358  0.5086
 9584TIP3    H150167   2.228   4.815   0.539  1.4626 -1.4402  0.3462
 9584TIP3    H250168   2.164   4.679   0.552 -0.7818 -0.4246  0.4684
 9585TIP3   OH250169   4.701   6.267   5.895 -0.2813  0.0052 -0.3858
 9585TIP3    H150170   4.662   6.219   5.968 -0.2608 -0.7326 -0.8567
 9585TIP3    H250171   4.677   6.217   5.817  1.2186 -0.2304 -0.7315
 9586TIP3   OH250172   0.307   1.629   1.747 -0.0917  0.3519  0.1806
 9586TIP3    H150173   0.311   1.571   1.823  0.2609 -0.5943 -0.5485
 9586TIP3    H250174   0.276   1.713   1.783  1.0866  0.2466  1.5423
 9587TIP3   OH250175   0.022   1.028   3.172 -0.1305 -0.1804  0.2745
 9587TIP3    H150176  -0.050   0.989   3.221 -0.6645 -0.6556 -0.8405
 9587TIP3    H250177   0.093   0.964   3.178  0.4835  0.6159  1.9858
 9588TIP3   OH250178   0.716   3.552   0.726  0.3182  0.4079 -0.2140
 9588TIP3    H150179   0.665   3.567   0.806  1.2956  1.4918  0.2412
 9588TIP3    H250180   0.689   3.466   0.696 -1.0190  0.5174  0.5739
 9589TIP3   OH250181   3.870   5.427  12.322 -0.3717 -0.1590 -0.1420
 9589TIP3    H150182   3.910   5.341  12.306  0.2613 -0.2992  1.8389
 9589TIP3    H250183   3.817   5.414  12.401 -1.1062  1.0283 -0.4180
 9590TIP3   OH250184   6.526   0.240   0.823 -0.6787 -0.2486 -0.0414
 9590TIP3    H150185   6.615   0.265   0.850 -0.0868 -2.6287  0.4840
 9590TIP3    H250186   6.490   0.319   0.783  0.4765  1.7835  2.6027
 9591TIP3   OH250187   1.375   2.919  14.888  0.1280  0.0559 -0.1439
 9591TIP3    H150188   1.403   3.001  14.929 -2.6518  1.1144 -0.1063
 9591TIP3    H250189   1.289   2.901  14.927  0.4530 -2.6309 -0.5382
 9592TIP3   OH250190   3.684   6.218   3.008 -0.0814  0.3491 -0.8334
 9592TIP3    H150191   3.774   6.226   2.977 -0.1113 -0.8469 -1.2896
 9592TIP3    H250192   3.658   6.308   3.029  2.2259  0.4524  2.2823
 9593TIP3   OH250193   1.331   1.979   4.080 -0.3583  0.0990  0.4486
 9593TIP3    H150194   1.323   1.909   4.015  0.7118 -0.8205  1.2635
 9593TIP3    H250195   1.342   2.059   4.028  2.2858 -0.8126 -0.5943
 9594TIP3   OH250196   5.608   3.278  17.018  0.0021  0.6736 -0.1787
 9594TIP3    H150197   5.593   3.332  17.096  0.6538  0.8930 -0.1918
 9594TIP3    H250198   5.701   3.293  16.997  1.1159 -2.7157  1.5603
 9595TIP3   OH250199   0.917   5.789   0.046 -0.4517  0.6017  0.8662
 9595TIP3    H150200   0.833   5.767   0.008 -0.9424  1.7385  1.2506
 9595TIP3    H250201   0.968   5.824  -0.027 -0.1413 -0.4986  0.5404
 9596TIP3   OH250202   0.007   4.469  14.882  0.3900  0.4326  0.7584
 9596TIP3    H150203  -0.036   4.394  14.840  1.2873  0.1117  0.3969
 9596TIP3    H250204  -0.065   4.519  14.920 -0.2566 -0.4131  0.6800
 9597TIP3   OH250205   3.969   0.846  13.502 -0.3388  0.1978 -0.1102
 9597TIP3    H150206   4.034   0.892  13.556 -0.1523 -0.4164  0.1923
 9597TIP3    H250207   4.012   0.834  13.417  0.3732 -1.1612  0.4103
 9598TIP3   OH250208   1.210   2.852   5.494 -0.2044 -0.3127  0.9359
 9598TIP3    H150209   1.152   2.843   5.418  1.7555  0.0702 -0.6690
 9598TIP3    H250210   1.262   2.930   5.476  1.6482 -1.3076  1.7037
 9599TIP3   OH250211   6.602   1.634   2.599  0.1638  0.3503 -0.0123
 9599TIP3    H150212   6.538   1.564   2.587 -1.7384  1.3751  3.0504
 9599TIP3    H250213   6.595   1.687   2.519 -0.7536 -1.1057 -0.9473
 9600TIP3   OH250214   6.770   3.886  15.142 -1.0267 -0.8922 -0.1220
 9600TIP3    H150215   6.786   3.792  15.147  2.1268 -0.5026 -0.5274
 9600TIP3    H250216   6.770   3.905  15.048 -1.9952 -0.5107 -0.0542
 9601TIP3   OH250217   0.986   0.882   5.927 -0.2463 -0.8514 -0.2839
 9601TIP3    H150218   0.905   0.903   5.880 -0.7582  0.0376  0.9522
 9601TIP3    H250219   0.957   0.841   6.008  0.6300 -2.4774 -0.7659
 9602TIP3   OH250220   4.709   0.035   5.705 -0.7380  0.3821  0.3163
 9602TIP3    H150221   4.637   0.016   5.765 -1.2169  0.9036 -0.0705
 9602TIP3    H250222   4.724  -0.047   5.658 -0.8048  0.1566  0.6875
 9603TIP3   OH250223   1.942   5.401   2.399 -0.5464 -0.5352  0.5721
 9603TIP3    H150224   1.901   5.331   2.450 -1.0675 -0.2724  0.5263
 9603TIP3    H250225   1.931   5.480   2.453  2.5496 -0.9201  1.9635
 9604TIP3   OH250226   1.181   6.392   5.765  0.2880 -0.3507 -0.6678
 9604TIP3    H150227   1.098   6.349   5.745 -0.9043  0.1427  2.6163
 9604TIP3    H250228   1.237   6.321   5.799 -0.0818 -0.1376  0.4374
 9605TIP3   OH250229   3.988   0.762   1.549  0.4309  0.4412 -0.0434
 9605TIP3    H150230   3.982   0.668   1.531  1.2718  0.4242 -0.2903
 9605TIP3    H250231   4.027   0.767   1.637  0.1857  0.5596  0.0598
 9606TIP3   OH250232   2.531   6.521  10.957 -0.2660  0.4218 -0.3220
 9606TIP3    H150233   2.617   6.478  10.955 -0.3448  0.1430  1.0972
 9606TIP3    H250234   2.546   6.607  10.918  0.1055 -0.5180 -2.3546
 9607TIP3   OH250235   2.520   0.448   8.399 -0.1077 -0.5041  0.2192
 9607TIP3    H150236   2.473   0.490   8.327 -0.8001 -0.3071  0.7717
 9607TIP3    H250237   2.495   0.498   8.477 -1.4875 -2.2746  1.0049
 9608TIP3   OH250238   3.888   4.531   4.854 -0.2455  0.5184  0.4343
 9608TIP3    H150239   3.959   4.533   4.789 -0.2514 -1.1879  0.3253
 9608TIP3    H250240   3.831   4.460   4.824 -0.6308  0.1759  1.9120
 9609TIP3   OH250241   0.130   0.500  12.882 -0.7534 -0.4578 -0.6578
 9609TIP3    H150242   0.104   0.436  12.949 -1.0914  0.2076 -0.1416
 9609TIP3    H250243   0.054   0.507  12.824 -1.3242  0.6015  0.1710
 9610TIP3   OH250244   4.813   0.405  12.289 -0.2187 -0.0077  0.7767
 9610TIP3    H150245   4.887   0.418  12.348  0.2750 -1.3160  0.4751
 9610TIP3    H250246   4.738   0.388  12.347 -0.3873  1.6363  1.0911
 9611TIP3   OH250247   6.516   3.905   3.875  0.2118  0.2915 -0.3151
 9611TIP3    H150248   6.559   3.889   3.959  0.3174  0.4622 -0.3349
 9611TIP3    H250249   6.500   4.000   3.875  2.0975  0.6540 -1.3686
 9612TIP3   OH250250   3.379   6.693   0.159  0.0420  0.2943  0.1286
 9612TIP3    H150251   3.373   6.780   0.199  3.7431  1.1467 -0.8019
 9612TIP3    H250252   3.379   6.709   0.065 -0.3590 -0.8432 -0.0787
 9613TIP3   OH250253   6.712   6.103   5.170  0.1576  0.0456 -0.1768
 9613TIP3    H150254   6.783   6.119   5.107  1.2796 -0.8715  0.8244
 9613TIP3    H250255   6.722   6.012   5.196 -1.1734  0.0040  0.2804
 9614TIP3   OH250256   1.367   6.344   4.042  0.4136 -0.2071 -0.6027
 9614TIP3    H150257   1.328   6.424   4.009 -1.9050 -0.6833  0.7093
 9614TIP3    H250258   1.338   6.276   3.981  1.4273 -0.2225 -1.0819
 9615TIP3   OH250259   1.023   4.696  12.385 -0.0703 -0.1694 -0.2493
 9615TIP3    H150260   1.000   4.604  12.395 -0.5983 -0.1382 -1.1208
 9615TIP3    H250261   1.034   4.709  12.291 -2.5102  1.2123 -0.4472
 9616TIP3   OH250262   4.624   3.596   0.235  1.0101  0.2388  0.0767
 9616TIP3    H150263   4.648   3.686   0.215  0.9001 -0.0973 -1.7817
 9616TIP3    H250264   4.536   3.586   0.198  0.2913 -0.1555  1.7953
 9617TIP3   OH250265   6.321   5.901   2.484 -0.1243 -0.1495 -0.6225
 9617TIP3    H150266   6.242   5.923   2.434 -0.1865  0.7263 -0.1644
 9617TIP3    H250267   6.332   5.975   2.545  0.1669 -0.9963  0.3822
 9618TIP3   OH250268   2.666   6.389  13.899  0.1890 -0.4498 -0.2416
 9618TIP3    H150269   2.755   6.397  13.935  0.2863  0.9161 -0.7045
 9618TIP3    H250270   2.665   6.449  13.825 -1.7811  1.3630  1.1250
 9619TIP3   OH250271   3.589   3.186  15.722 -0.0160  0.0309 -0.2288
 9619TIP3    H150272   3.510   3.200  15.773  0.2624  0.2156  0.1588
 9619TIP3    H250273   3.639   3.267  15.731  2.1897 -1.4564  3.0630
 9620TIP3   OH250274   2.275   6.315  16.272 -0.2608  0.1968  0.4338
 9620TIP3    H150275   2.184   6.327  16.245 -0.0357 -0.6086 -0.7717
 9620TIP3    H250276   2.303   6.236  16.226  0.4821 -0.6708  2.2978
 9621TIP3   OH250277   6.252   4.136  16.292 -0.5124  0.7892 -0.2006
 9621TIP3    H150278   6.198   4.111  16.217 -1.0678  0.0034  0.4429
 9621TIP3    H250279   6.231   4.072  16.360  0.5817  0.9965  0.3660
 9622TIP3   OH250280   5.437   1.008  15.968 -0.0106 -0.1185 -0.0954
 9622TIP3    H150281   5.384   0.932  15.943 -0.3635  0.3988 -0.9589
 9622TIP3    H250282   5.378   1.062  16.021  0.3195 -0.5549  0.7401
 9623TIP3   OH250283   6.035   2.383   4.653 -0.2866 -0.6097 -0.4265
 9623TIP3    H150284   6.006   2.384   4.562  1.3484  0.6324 -0.9832
 9623TIP3    H250285   6.057   2.474   4.673 -0.7879 -0.8244  1.2944
 9624TIP3   OH250286   3.000   3.145   5.783 -0.3137  0.5113  0.7702
 9624TIP3    H150287   2.931   3.200   5.748  0.2942  0.6220 -0.3021
 9624TIP3    H250288   3.062   3.134   5.711  0.0037 -0.8815  1.2101
 9625TIP3   OH250289   1.532   3.433   2.936  0.1873  0.1673  0.4466
 9625TIP3    H150290   1.574   3.348   2.947 -0.5405 -0.5732 -1.8930
 9625TIP3    H250291   1.590   3.480   2.875 -0.4128  0.5939  0.1999
 9626TIP3   OH250292   5.312   4.145  15.139 -0.0392  0.5258 -0.0349
 9626TIP3    H150293   5.240   4.157  15.202  1.2876 -0.0346  1.6826
 9626TIP3    H250294   5.342   4.234  15.121 -0.7881  0.7283 -0.3293
 9627TIP3   OH250295   4.624   4.750  16.959 -0.7155 -0.0499 -0.4538
 9627TIP3    H150296   4.693   4.684  16.953 -2.5684 -2.3386  1.3194
 9627TIP3    H250297   4.648   4.805  17.034 -1.6383 -2.0616  1.4310
 9628TIP3   OH250298   2.433   6.337  15.784  0.1646  0.1696  0.0047
 9628TIP3    H150299   2.448   6.329  15.690 -0.4683 -0.0943 -0.0837
 9628TIP3    H250300   2.401   6.251  15.810 -0.2828  0.4304  0.3333
 9629TIP3   OH250301   3.452   3.453   1.336 -0.0889 -0.0032  0.3535
 9629TIP3    H150302   3.534   3.447   1.287 -0.7302 -1.2487 -0.6286
 9629TIP3    H250303   3.384   3.455   1.269 -0.8845  0.8780  1.1545
 9630TIP3   OH250304   0.106   0.967   4.261  0.0344 -0.1245  0.0113
 9630TIP3    H150305   0.102   1.043   4.318  1.8880  0.7172 -0.8853
 9630TIP3    H250306   0.040   0.983   4.193 -1.3858 -0.5999  1.2288
 9631TIP3   OH250307   3.977   0.689  15.798  0.1001 -0.5411  0.1201
 9631TIP3    H150308   3.983   0.769  15.745 -2.8181 -0.0580  0.3617
 9631TIP3    H250309   4.035   0.705  15.872 -0.9535  1.7588  0.5564
 9632TIP3   OH250310   4.515   6.232   5.334 -0.2571  0.1488  0.3335
 9632TIP3    H150311   4.432   6.185   5.330 -1.5696  1.9828  2.9408
 9632TIP3    H250312   4.499   6.314   5.287  0.2636  0.2495  0.3212
 9633TIP3   OH250313   5.634   0.915  10.642  0.3287 -0.3985 -0.0460
 9633TIP3    H150314   5.719   0.950  10.616  0.5371 -0.8019  0.0879
 9633TIP3    H250315   5.631   0.928  10.737  0.0142  0.1058 -0.1240
 9634TIP3   OH250316   2.212   6.788   2.079 -0.4111  0.2141  0.3155
 9634TIP3    H150317   2.297   6.818   2.111 -1.5146  1.3544  2.3909
 9634TIP3    H250318   2.197   6.706   2.125 -0.6880  0.3338  0.4426
 9635TIP3   OH250319   0.136   5.910   3.146 -0.2672 -0.3250 -0.2177
 9635TIP3    H150320   0.170   5.838   3.199  2.3951  0.5844 -0.4950
 9635TIP3    H250321   0.100   5.868   3.068 -1.3622 -1.4859  0.8818
 9636TIP3   OH250322   6.278   0.382   3.807 -0.0567 -0.0232  0.6676
 9636TIP3    H150323   6.308   0.317   3.870  0.7518 -1.8623 -1.5057
 9636TIP3    H250324   6.184   0.367   3.799  0.1255 -0.9642  0.1845
 9637TIP3   OH250325   1.278   2.081  14.297 -0.1134 -0.1654  0.4687
 9637TIP3    H150326   1.337   2.029  14.352 -0.8097 -0.6131  0.8075
 9637TIP3    H250327   1.191   2.069  14.337 -0.0036  3.1138  1.9760
 9638TIP3   OH250328   1.381   5.938  14.777 -0.2409  0.1102 -0.2890
 9638TIP3    H150329   1.433   5.881  14.833 -1.4489 -1.5587 -0.7778
 9638TIP3    H250330   1.436   6.014  14.762  1.1600 -0.6105  0.9673
 9639TIP3   OH250331   2.425   0.120  17.146 -0.6565  0.1428  0.3688
 9639TIP3    H150332   2.360   0.050  17.146 -0.8261  0.2963 -0.4233
 9639TIP3    H250333   2.495   0.087  17.202 -0.0941 -1.2805 -1.0817
 9640TIP3   OH250334   5.751   1.186   5.930 -0.3783  0.3277 -0.4050
 9640TIP3    H150335   5.797   1.199   6.013  0.3754 -3.8240  0.0409
 9640TIP3    H250336   5.671   1.140   5.954 -0.4550 -0.3835 -1.8988
 9641TIP3   OH250337   0.817   2.843  11.593 -0.1153 -0.1578 -0.6102
 9641TIP3    H150338   0.844   2.787  11.665  0.9186 -1.3880 -1.8856
 9641TIP3    H250339   0.884   2.911  11.588 -0.3464  0.0999 -0.2420
 9642TIP3   OH250340   2.929   3.111   2.934  0.0354  0.4429 -0.1681
 9642TIP3    H150341   2.908   3.049   2.864 -3.0286  2.8563 -1.6468
 9642TIP3    H250342   3.012   3.151   2.906 -0.2090  0.0848 -1.4822
 9643TIP3   OH250343   2.621   4.289   5.737  0.1370  0.9793  0.0933
 9643TIP3    H150344   2.604   4.202   5.700 -0.6633  2.1617 -2.6016
 9643TIP3    H250345   2.551   4.302   5.801 -0.9796  0.4102 -0.9614
 9644TIP3   OH250346   4.327   5.496   0.896 -0.3317  0.0289  0.0323
 9644TIP3    H150347   4.391   5.566   0.883 -0.5145  0.0574 -0.7392
 9644TIP3    H250348   4.330   5.479   0.990  0.1764  0.6320  0.1357
 9645TIP3   OH250349   5.067   3.277   5.978  0.7353 -0.6180  0.3885
 9645TIP3    H150350   5.142   3.280   5.919  1.0074  2.2236  0.7427
 9645TIP3    H250351   5.102   3.238   6.059  1.7648  0.2684  0.4015
 9646TIP3   OH250352   4.732   0.976  16.410 -0.4208 -0.2595 -0.3650
 9646TIP3    H150353   4.724   1.007  16.500 -0.4924  0.2432 -0.5413
 9646TIP3    H250354   4.823   0.949  16.402 -0.3068  0.0974 -0.2679
 9647TIP3   OH250355   4.986   2.259  14.533 -0.0704  0.0176  0.6253
 9647TIP3    H150356   4.913   2.207  14.501  0.1264 -0.9409  1.6878
 9647TIP3    H250357   5.061   2.200  14.531  0.1373  0.2026  1.9324
 9648TIP3   OH250358   0.067   3.872  12.233  0.5896 -0.1564 -0.0139
 9648TIP3    H150359   0.119   3.948  12.208 -0.7102  1.1677  1.0801
 9648TIP3    H250360   0.120   3.797  12.208  2.0497  1.1067 -0.8817
 9649TIP3   OH250361   2.734   1.890   4.907  0.0676 -0.0999 -0.7262
 9649TIP3    H150362   2.692   1.947   4.972  0.9968  1.6663 -1.5959
 9649TIP3    H250363   2.795   1.837   4.958  0.4658  0.9514 -0.0654
 9650TIP3   OH250364   4.867   4.330  15.645 -0.6863  0.4769  0.2849
 9650TIP3    H150365   4.849   4.276  15.568  0.1419 -0.3304  0.6427
 9650TIP3    H250366   4.961   4.348  15.640 -0.9676  2.0392  0.0852
 9651TIP3   OH250367   6.610   3.271  10.885  0.4951 -0.1303 -0.1065
 9651TIP3    H150368   6.536   3.245  10.831 -1.2262 -0.4397  2.2516
 9651TIP3    H250369   6.683   3.218  10.852 -0.2465  0.2310 -2.5297
 9652TIP3   OH250370   5.092   0.672   4.866  0.0888  0.0317  0.5989
 9652TIP3    H150371   5.021   0.734   4.885  2.3361  3.7899 -1.8949
 9652TIP3    H250372   5.074   0.640   4.778  0.4135 -0.6858  0.7819
 9653TIP3   OH250373   0.269   1.566   6.115 -0.1778 -0.2451  0.3050
 9653TIP3    H150374   0.333   1.543   6.182 -0.5316 -0.0822  0.7033
 9653TIP3    H250375   0.278   1.497   6.049  1.5551  0.6628 -0.4551
 9654TIP3   OH250376   2.404   1.414   4.714  0.4543  0.2962 -0.0894
 9654TIP3    H150377   2.346   1.490   4.706  0.1943  0.2489  1.1476
 9654TIP3    H250378   2.489   1.452   4.734  0.5393  0.2973 -0.4433
 9655TIP3   OH250379   0.684   3.582  17.275  0.5619 -0.3277  0.6797
 9655TIP3    H150380   0.627   3.546  17.343 -2.7202  1.2343 -1.0240
 9655TIP3    H250381   0.642   3.558  17.193  3.6383 -0.9426 -0.8634
 9656TIP3   OH250382   1.085   1.351   0.544  0.6969  0.2648 -0.4406
 9656TIP3    H150383   1.169   1.327   0.504  0.5234 -0.9857 -0.0771
 9656TIP3    H250384   1.054   1.271   0.586  0.5857  1.3721  1.7371
 9657TIP3   OH250385   6.272   5.134   6.021  0.6654  0.0277  0.2080
 9657TIP3    H150386   6.347   5.180   6.059  2.4221 -3.6605  1.7264
 9657TIP3    H250387   6.222   5.103   6.097 -1.0592  0.3095 -0.7561
 9658TIP3   OH250388   3.586   0.832  16.665 -0.3267  0.1920  0.0244
 9658TIP3    H150389   3.537   0.802  16.741  1.8131 -1.7565  0.7733
 9658TIP3    H250390   3.559   0.774  16.594  0.3114 -0.4068  0.2575
 9659TIP3   OH250391   5.673   6.166  15.303 -0.0974  0.8544 -0.0734
 9659TIP3    H150392   5.708   6.243  15.347  1.0923  0.8220 -0.8873
 9659TIP3    H250393   5.656   6.195  15.213  1.1310  0.0085 -0.6186
 9660TIP3   OH250394   1.598   4.125   2.305 -1.0207  0.3785 -0.1046
 9660TIP3    H150395   1.666   4.184   2.272 -0.9823 -0.0011 -0.7150
 9660TIP3    H250396   1.581   4.065   2.233 -0.8507 -0.5489  0.6081
 9661TIP3   OH250397   5.403   1.260   6.650  0.4040  0.2609  0.2332
 9661TIP3    H150398   5.409   1.346   6.608  1.1389  0.2303  0.2566
 9661TIP3    H250399   5.412   1.279   6.743  1.2240  0.1138  0.1972
 9662TIP3   OH250400   3.962   1.965   4.392  0.2380 -0.2627  0.4020
 9662TIP3    H150401   3.989   1.879   4.360 -0.1944 -0.4469  0.5238
 9662TIP3    H250402   4.037   1.996   4.442  0.8080 -0.1027 -0.5290
 9663TIP3   OH250403   2.162   0.287   2.712  0.2730 -0.6650 -0.3202
 9663TIP3    H150404   2.211   0.359   2.672  0.7945 -0.6141  0.3839
 9663TIP3    H250405   2.228   0.236   2.758 -0.3399 -0.4777  0.8262
 9664TIP3   OH250406   3.713   3.503   1.525 -0.2810  0.6269 -0.1586
 9664TIP3    H150407   3.679   3.584   1.487  0.2060  0.7886 -0.2583
 9664TIP3    H250408   3.795   3.487   1.478  0.6924  1.2026  1.2604
 9665TIP3   OH250409   2.439   3.037   0.263  0.0837  0.2347 -0.3841
 9665TIP3    H150410   2.365   3.039   0.203 -0.2030 -0.4407 -0.0541
 9665TIP3    H250411   2.435   2.952   0.305  0.0487  0.8314  0.8835
 9666TIP3   OH250412   1.453   3.041  15.223 -0.1542 -0.3122 -0.2163
 9666TIP3    H150413   1.430   3.108  15.288  1.1356 -0.7158  0.6966
 9666TIP3    H250414   1.453   3.087  15.140  3.3963  1.5969  0.6424
 9667TIP3   OH250415   5.749   2.687  10.824  0.7091  0.0785 -0.4094
 9667TIP3    H150416   5.758   2.592  10.819  1.3614  0.1447 -0.6216
 9667TIP3    H250417   5.655   2.702  10.836  0.7623 -0.6566  1.1384
 9668TIP3   OH250418   5.565   5.584  16.931  0.3844 -0.1660 -0.2071
 9668TIP3    H150419   5.498   5.644  16.964  0.6174  0.4966 -0.9074
 9668TIP3    H250420   5.528   5.547  16.851  1.3030  1.1458 -1.2955
 9669TIP3   OH250421   4.991   5.384   5.931  0.8376  0.2157  0.1446
 9669TIP3    H150422   4.952   5.468   5.954  1.1723  0.6191 -0.7197
 9669TIP3    H250423   5.001   5.339   6.015 -0.8465  0.3647  0.4703
 9670TIP3   OH250424   4.969   2.723   1.288  0.3856  0.0598  0.1377
 9670TIP3    H150425   4.936   2.728   1.199 -1.5104 -2.0341  0.6198
 9670TIP3    H250426   5.060   2.752   1.282 -0.3458  2.2395 -2.0049
 9671TIP3   OH250427   4.023   1.895   3.480 -0.4384  0.5568 -0.1841
 9671TIP3    H150428   3.963   1.826   3.451 -0.2584  0.8690 -1.3486
 9671TIP3    H250429   4.008   1.902   3.574 -0.5079 -1.0186 -0.0647
 9672TIP3   OH250430   6.636   5.263   0.050  0.1397  0.1961 -0.4558
 9672TIP3    H150431   6.637   5.232   0.141  0.2556 -0.3358 -0.6326
 9672TIP3    H250432   6.726   5.251   0.019 -0.2275 -1.0440 -1.0998
 9673TIP3   OH250433   6.047   1.073   1.059 -0.3935  0.0276  0.4806
 9673TIP3    H150434   5.992   1.029   1.123 -1.6694  0.6244 -0.1625
 9673TIP3    H250435   6.054   1.010   0.987 -0.2853 -0.0340  0.5461
 9674TIP3   OH250436   6.220   5.842   1.854  0.4860  0.0659  0.5334
 9674TIP3    H150437   6.294   5.820   1.910 -0.6863 -2.1651  1.3136
 9674TIP3    H250438   6.148   5.860   1.914 -0.2421 -0.2337 -0.2196
 9675TIP3   OH250439   5.536   6.571  16.132 -0.0102 -0.3275  0.0879
 9675TIP3    H150440   5.489   6.626  16.194 -0.8788 -0.7867 -0.1389
 9675TIP3    H250441   5.496   6.484  16.143 -2.1728  0.0982 -3.0086
 9676TIP3   OH250442   3.788   6.219  11.233  0.3925  0.4283 -0.4796
 9676TIP3    H150443   3.774   6.164  11.310 -0.9874 -0.7585 -1.5230
 9676TIP3    H250444   3.705   6.267  11.222  0.6785  0.8067 -1.0488
 9677TIP3   OH250445   2.992   2.851   6.447 -0.0857 -0.2708 -0.0418
 9677TIP3    H150446   3.038   2.866   6.529 -0.9554  2.7391 -0.0047
 9677TIP3    H250447   3.061   2.845   6.381  0.5790  3.4315  0.1033
 9678TIP3   OH250448   0.821   2.421   4.202  0.0410 -0.0989  0.4123
 9678TIP3    H150449   0.788   2.511   4.195 -0.4240 -0.3000 -0.0051
 9678TIP3    H250450   0.768   2.371   4.140 -1.2285 -1.1040  2.2410
 9679TIP3   OH250451   3.806   4.771   1.101  0.3200 -0.2959  0.1165
 9679TIP3    H150452   3.818   4.676   1.106 -0.2436 -0.3424  0.6245
 9679TIP3    H250453   3.715   4.786   1.126  0.6212  0.4427  0.8259
 9680TIP3   OH250454   0.552   3.229  11.066  0.1391 -0.1478  0.3371
 9680TIP3    H150455   0.620   3.178  11.022  0.9847 -0.4631  1.9484
 9680TIP3    H250456   0.473   3.210  11.017  0.7984 -1.5100 -0.2570
 9681TIP3   OH250457   4.624   0.470  16.322 -0.1086  0.2089 -0.0289
 9681TIP3    H150458   4.664   0.540  16.374  1.5142 -0.8769  0.2666
 9681TIP3    H250459   4.695   0.407  16.308 -1.3928 -1.1572 -0.6912
 9682TIP3   OH250460   4.896   6.756  13.908 -0.4175 -0.8449  0.0121
 9682TIP3    H150461   4.964   6.818  13.880  0.8036 -1.5416  1.3003
 9682TIP3    H250462   4.865   6.716  13.827  2.5868 -2.4052 -0.5016
 9683TIP3   OH250463   6.126   1.570  17.155  1.0335  0.4319  0.4098
 9683TIP3    H150464   6.079   1.563  17.238  0.3753 -1.9937 -0.0915
 9683TIP3    H250465   6.067   1.532  17.090  2.0969  0.9800 -0.9257
 9684TIP3   OH250466   4.588   5.728  11.967 -0.2945  0.3592  0.0165
 9684TIP3    H150467   4.601   5.783  12.045 -0.7269 -0.0151  0.3551
 9684TIP3    H250468   4.551   5.647  12.001 -0.1068  0.0396 -0.5405
 9685TIP3   OH250469   6.787   3.975   2.702 -0.2627  0.3536 -0.1607
 9685TIP3    H150470   6.792   3.967   2.797  0.5532 -0.5222 -0.2597
 9685TIP3    H250471   6.726   4.047   2.687  0.6159  1.4016  1.0472
 9686TIP3   OH250472   1.035   0.949  14.241 -0.1364  0.6066  0.2281
 9686TIP3    H150473   1.040   0.902  14.158 -1.5543  0.5420  0.1503
 9686TIP3    H250474   0.960   0.911  14.286  0.7397  0.4813  1.6599
 9687TIP3   OH250475   6.374   5.978  11.815 -0.5977 -0.7872  0.0034
 9687TIP3    H150476   6.407   6.058  11.773  0.1154 -0.4131  1.2168
 9687TIP3    H250477   6.286   5.966  11.778 -0.4846  0.2227 -0.6397
 9688TIP3   OH250478   5.312   5.426  12.651  0.0249  0.2466 -0.3115
 9688TIP3    H150479   5.240   5.376  12.689  0.8621  0.1157  1.1487
 9688TIP3    H250480   5.303   5.513  12.689  0.9943  0.0621  0.3493
 9689TIP3   OH250481   1.132   4.770   3.744  0.3525 -0.0945 -0.1246
 9689TIP3    H150482   1.129   4.725   3.829  2.3744 -0.3943 -0.1677
 9689TIP3    H250483   1.115   4.700   3.680  0.0608 -0.1100 -0.0323
 9690TIP3   OH250484   5.505   2.365  12.735  0.0406 -0.4133 -0.1419
 9690TIP3    H150485   5.467   2.431  12.676 -2.5254 -0.0364  1.7323
 9690TIP3    H250486   5.549   2.416  12.803 -2.0919 -0.4712  1.4031
 9691TIP3   OH250487   3.284   0.917  15.104 -0.1764 -0.4473  0.1760
 9691TIP3    H150488   3.298   0.977  15.179 -1.4586  0.0953  0.0052
 9691TIP3    H250489   3.369   0.917  15.059  1.3619 -2.4467  2.7517
 9692TIP3   OH250490   5.841   0.180  14.342  0.2011  0.2624  0.0409
 9692TIP3    H150491   5.810   0.246  14.280  0.1131 -1.3685 -1.7569
 9692TIP3    H250492   5.761   0.139  14.375  0.2788 -0.8787 -1.1097
 9693TIP3   OH250493   1.172   2.695  17.198  0.4134  0.3082  0.0841
 9693TIP3    H150494   1.096   2.662  17.246  0.0136 -1.3531 -1.5931
 9693TIP3    H250495   1.141   2.708  17.109  1.3052  2.7030  0.0511
 9694TIP3   OH250496   6.622   2.771  13.515  0.4934 -0.4339  0.1435
 9694TIP3    H150497   6.602   2.706  13.581  0.3768 -0.5151  0.0294
 9694TIP3    H250498   6.717   2.779  13.516  0.3806  1.5820  2.2662
 9695TIP3   OH250499   4.712   0.580  13.495  0.0638 -0.5081 -0.1614
 9695TIP3    H150500   4.621   0.587  13.523 -0.0298 -0.7202 -0.4026
 9695TIP3    H250501   4.754   0.528  13.564  0.1691  0.1791  0.3062
 9696TIP3   OH250502   2.997   0.829  16.116 -0.3164  0.2661  0.1656
 9696TIP3    H150503   3.010   0.778  16.195  2.0251  0.9025  0.2557
 9696TIP3    H250504   3.074   0.811  16.062 -1.2906  0.7518 -1.4551
 9697TIP3   OH250505   1.073   2.248  15.547  0.5662 -0.5018  0.1344
 9697TIP3    H150506   1.114   2.282  15.468  0.5373  1.1493  0.8026
 9697TIP3    H250507   1.138   2.189  15.585  1.9807  1.3202  0.6644
 9698TIP3   OH250508   1.686   2.217  12.816  0.0493 -0.5209 -0.5724
 9698TIP3    H150509   1.777   2.199  12.840  0.4795 -0.7993 -2.2465
 9698TIP3    H250510   1.656   2.135  12.776 -0.8753 -0.3654 -0.2152
 9699TIP3   OH250511   2.272   3.566  14.084 -0.2921 -0.6687  0.1145
 9699TIP3    H150512   2.366   3.587  14.087 -0.2763 -0.8187  1.1772
 9699TIP3    H250513   2.239   3.612  14.007  1.1303 -2.6336 -1.8189
 9700TIP3   OH250514   5.008   3.420  14.635 -0.2026 -0.1948 -0.0941
 9700TIP3    H150515   5.037   3.415  14.544  0.5294  1.6633  0.0096
 9700TIP3    H250516   4.913   3.409  14.630 -0.2258  0.3471 -1.1353
 9701TIP3   OH250517   6.301   4.599   4.382  0.2289  0.4504  0.1371
 9701TIP3    H150518   6.292   4.675   4.326 -0.2029 -0.7714 -1.5332
 9701TIP3    H250519   6.367   4.545   4.339  0.0523 -0.4120  0.9164
 9702TIP3   OH250520   4.745   4.464   0.840  0.1414  0.0860 -0.2114
 9702TIP3    H150521   4.737   4.513   0.757  1.4407 -0.4291 -0.6672
 9702TIP3    H250522   4.829   4.418   0.832 -0.1449 -0.6774  1.0304
 9703TIP3   OH250523   0.777   6.403   4.188  0.3887 -0.4736  0.0696
 9703TIP3    H150524   0.723   6.337   4.231  0.9815 -1.0644 -0.0695
 9703TIP3    H250525   0.796   6.366   4.102 -1.3527  0.9952 -1.0175
 9704TIP3   OH250526   2.551   1.630  14.135  0.3186 -0.1761  0.2456
 9704TIP3    H150527   2.505   1.548  14.150  1.3177 -0.5513  1.4127
 9704TIP3    H250528   2.626   1.627  14.194  0.4809  1.4933  0.1817
 9705TIP3   OH250529   0.449   5.515  12.462  0.0852  0.4368 -0.1100
 9705TIP3    H150530   0.506   5.551  12.393 -0.5057 -0.6675 -1.2137
 9705TIP3    H250531   0.381   5.468  12.414 -0.6399  0.0735  1.2407
 9706TIP3   OH250532   2.052   6.430   1.904  0.3276  0.3113 -0.1072
 9706TIP3    H150533   2.066   6.391   1.818 -0.7912 -0.1078 -0.1184
 9706TIP3    H250534   2.018   6.359   1.958  0.0846  0.8078  0.4055
 9707TIP3   OH250535   6.215   6.217  15.732  0.2673  0.5456 -0.1020
 9707TIP3    H150536   6.293   6.239  15.681  1.6639 -2.2547  0.6120
 9707TIP3    H250537   6.160   6.166  15.671 -0.0007  0.7063  0.0047
 9708TIP3   OH250538   0.987   3.857  11.514 -0.0437 -0.4382 -0.3779
 9708TIP3    H150539   1.026   3.915  11.449 -0.4389  0.5028  0.2079
 9708TIP3    H250540   1.027   3.882  11.597 -0.4106 -0.8280 -0.0742
 9709TIP3   OH250541   5.819   6.322  11.395  0.0048  0.2063  0.5033
 9709TIP3    H150542   5.790   6.407  11.428 -1.4913  0.6777 -1.8273
 9709TIP3    H250543   5.743   6.265  11.406  0.4233 -0.3652  0.4706
 9710TIP3   OH250544   4.116   6.374  16.068  0.0080 -0.9246  0.1798
 9710TIP3    H150545   4.030   6.372  16.026  0.5039 -0.8850 -0.8765
 9710TIP3    H250546   4.167   6.435  16.016  0.5622 -0.6346  1.0396
 9711TIP3   OH250547   2.571   1.693  10.947  0.0878 -0.1524  0.2068
 9711TIP3    H150548   2.523   1.613  10.925  0.8890 -0.4370 -0.5391
 9711TIP3    H250549   2.663   1.671  10.930  0.2447  1.1628 -0.7374
 9712TIP3   OH250550   0.297   1.709  16.154 -0.0582  0.1359 -0.0792
 9712TIP3    H150551   0.250   1.657  16.088 -0.9760 -0.1063  0.7484
 9712TIP3    H250552   0.230   1.734  16.217  0.4550  1.9033 -0.1725
 9713TIP3   OH250553   5.710   6.327  11.830  0.5384  0.3527  0.4299
 9713TIP3    H150554   5.622   6.328  11.793  0.9179 -0.1091 -0.5221
 9713TIP3    H250555   5.702   6.374  11.913 -0.5522  0.5081  0.2495
 9714TIP3   OH250556   0.066   6.142  12.227 -0.3845 -0.0342 -0.1908
 9714TIP3    H150557   0.159   6.138  12.251 -0.2191  1.0928 -0.5680
 9714TIP3    H250558   0.041   6.051  12.211  0.2518 -0.5070  1.3706
 9715TIP3   OH250559   4.489   0.774   0.172  0.0149  0.2141 -0.1358
 9715TIP3    H150560   4.445   0.840   0.119 -0.6982 -0.6124 -0.6052
 9715TIP3    H250561   4.531   0.716   0.108  0.4057  0.0552  0.2611
 9716TIP3   OH250562   0.756   4.888  12.424  0.3598  0.3217 -0.0073
 9716TIP3    H150563   0.701   4.820  12.463  0.1391  0.6047  0.1707
 9716TIP3    H250564   0.844   4.850  12.425  0.0866 -0.3740 -0.8308
 9717TIP3   OH250565   4.024   3.623  14.273 -0.5200  0.1666 -0.9763
 9717TIP3    H150566   4.022   3.711  14.236 -0.8715  0.1320 -1.0468
 9717TIP3    H250567   3.942   3.617  14.323  0.5699  0.7156  0.9597
 9718TIP3   OH250568   1.060   3.814   0.233  0.7019 -0.1130 -0.3075
 9718TIP3    H150569   1.113   3.891   0.213  1.0878 -0.3680 -0.2637
 9718TIP3    H250570   1.118   3.757   0.282  0.1848 -0.0989  0.3422
 9719TIP3   OH250571   6.130   5.287  13.097  0.0506  0.3101 -0.0844
 9719TIP3    H150572   6.192   5.269  13.027 -0.0988 -0.5898  0.0099
 9719TIP3    H250573   6.057   5.331  13.054 -0.8075 -1.7263 -0.8190
 9720TIP3   OH250574   2.698   2.850   4.479  0.5978 -0.4368 -0.4297
 9720TIP3    H150575   2.749   2.902   4.417  0.5575 -0.8395 -0.8070
 9720TIP3    H250576   2.690   2.906   4.556 -1.0179  0.8499 -1.4819
 9721TIP3   OH250577   1.368   0.060   2.777  0.6225  0.0170  0.4046
 9721TIP3    H150578   1.428   0.120   2.732 -2.1301  2.2076 -0.6538
 9721TIP3    H250579   1.370  -0.020   2.724  0.0728  1.3075 -1.6790
 9722TIP3   OH250580   0.825   5.500  13.123  0.4091 -0.1579  0.0296
 9722TIP3    H150581   0.775   5.551  13.187  0.3536 -0.3480  0.1392
 9722TIP3    H250582   0.760   5.442  13.082 -0.0147  1.5549 -1.8467
 9723TIP3   OH250583   3.567   2.835  13.403  0.3004  0.4994 -0.1835
 9723TIP3    H150584   3.608   2.750  13.423 -2.4194 -0.4560  1.9726
 9723TIP3    H250585   3.534   2.825  13.314 -0.6047 -1.0305  0.2835
 9724TIP3   OH250586   3.687   2.438   2.526  1.1752  0.2507 -0.1953
 9724TIP3    H150587   3.762   2.394   2.565 -0.2137 -2.9768 -0.8123
 9724TIP3    H250588   3.618   2.430   2.591  0.2758 -0.5944 -1.2051
 9725TIP3   OH250589   4.423   3.497  15.847 -0.7229 -0.1509  0.1170
 9725TIP3    H150590   4.514   3.515  15.825 -0.1006 -0.1121  2.4805
 9725TIP3    H250591   4.397   3.571  15.902 -0.7210 -2.2086  3.1158
 9726TIP3   OH250592   4.948   4.323   2.927  0.3161 -0.1043 -0.3228
 9726TIP3    H150593   4.976   4.293   3.013  3.0946 -2.8532 -1.9651
 9726TIP3    H250594   4.890   4.254   2.895 -0.5758  0.8127 -0.7415
 9727TIP3   OH250595   1.080   1.492   2.616 -0.1389  0.4567 -0.4030
 9727TIP3    H150596   1.088   1.422   2.551 -0.1775 -1.0606  1.1450
 9727TIP3    H250597   1.166   1.533   2.618 -0.0214  0.2663 -1.1103
 9728TIP3   OH250598   1.184   4.755  15.969 -0.4666 -0.4783  0.0457
 9728TIP3    H150599   1.184   4.676  16.023  2.0376 -0.8675 -0.4235
 9728TIP3    H250600   1.196   4.827  16.031  0.8765 -0.8021  0.1900
 9729TIP3   OH250601   1.334   1.581  15.075  0.1140  0.4801  0.6666
 9729TIP3    H150602   1.427   1.587  15.096  0.2656  0.2862  0.0774
 9729TIP3    H250603   1.289   1.611  15.154  0.6221 -1.4725  1.7606
 9730TIP3   OH250604   1.060   3.795  11.206 -0.1118  0.4663 -0.1424
 9730TIP3    H150605   1.109   3.825  11.130  0.5827 -0.6417 -0.1613
 9730TIP3    H250606   0.997   3.865  11.225 -1.9426 -0.1944 -3.1619
 9731TIP3   OH250607   3.439   2.664   2.675  0.2027  0.5801 -0.0476
 9731TIP3    H150608   3.388   2.584   2.689  1.3239 -0.2423 -0.5333
 9731TIP3    H250609   3.513   2.657   2.735  0.2955  1.2767 -0.0713
 9732TIP3   OH250610   3.504   0.142   4.785  0.1355  0.2429 -0.1420
 9732TIP3    H150611   3.536   0.232   4.780 -1.1952  0.7531  0.1244
 9732TIP3    H250612   3.443   0.143   4.859  0.8017 -1.1067  0.4420
 9733TIP3   OH250613   1.919   0.376  11.529 -0.6412 -0.2799 -0.0967
 9733TIP3    H150614   1.843   0.428  11.554 -0.2126 -0.5479  1.9224
 9733TIP3    H250615   1.962   0.429  11.461 -1.9627  0.4212 -0.4229
 9734TIP3   OH250616   1.457   5.669  12.311  0.4066 -0.1831  0.1687
 9734TIP3    H150617   1.498   5.658  12.397  0.7434  1.9338  0.3426
 9734TIP3    H250618   1.367   5.696  12.330 -0.1309 -1.6707 -0.1831
 9735TIP3   OH250619   0.672   3.024  10.403  0.0514 -0.3879 -0.3772
 9735TIP3    H150620   0.680   3.068  10.319 -2.5381  0.2826 -0.3631
 9735TIP3    H250621   0.662   3.095  10.466 -0.6900 -0.9272  0.1244
 9736TIP3   OH250622   4.992   0.156  16.818  0.0464 -0.3498 -0.1188
 9736TIP3    H150623   4.971   0.196  16.734  0.6185 -0.3303 -0.2587
 9736TIP3    H250624   5.030   0.071  16.796  0.5820 -0.1713  0.0980
 9737TIP3   OH250625   5.728   6.022  14.308  0.4244 -0.4981 -0.1888
 9737TIP3    H150626   5.770   5.941  14.279 -1.4257 -1.7921  0.5229
 9737TIP3    H250627   5.635   6.000  14.314 -0.5839  2.4668 -2.5718
 9738TIP3   OH250628   4.355   3.512  12.550 -0.2459 -0.0148 -0.3070
 9738TIP3    H150629   4.268   3.531  12.513 -0.0179 -0.1780 -0.9399
 9738TIP3    H250630   4.405   3.592  12.534 -0.0585 -0.1948 -0.6203
 9739TIP3   OH250631   6.164   5.497  12.256 -0.2655 -0.8079 -0.2362
 9739TIP3    H150632   6.115   5.578  12.245  1.3855  0.0099 -2.3625
 9739TIP3    H250633   6.249   5.525  12.292 -0.2516 -1.8176  0.5646
 9740TIP3   OH250634   0.677   3.089  10.844  0.0062  0.4832 -0.5291
 9740TIP3    H150635   0.673   3.143  10.765  0.8216 -1.5348 -2.0314
 9740TIP3    H250636   0.609   3.023  10.831  1.0884 -0.7241 -0.2512
 9741TIP3   OH250637   6.414   3.463  16.759 -0.2035  0.2523 -0.5947
 9741TIP3    H150638   6.406   3.544  16.709 -0.1903 -0.1405 -1.2429
 9741TIP3    H250639   6.370   3.482  16.842 -0.4077  0.8452 -0.8309
 9742TIP3   OH250640   3.124   2.036  13.054 -0.3558 -0.1128 -0.1271
 9742TIP3    H150641   3.082   1.967  13.105  0.3119 -0.0394  0.5396
 9742TIP3    H250642   3.172   1.989  12.985 -0.9623 -0.2305 -0.4765
 9743TIP3   OH250643   5.513   2.135   2.901  0.5107 -1.1998 -0.0961
 9743TIP3    H150644   5.504   2.040   2.902 -2.4201 -1.0313  0.6090
 9743TIP3    H250645   5.563   2.154   2.822 -1.2287 -3.2171 -1.8095
 9744TIP3   OH250646   3.542   1.616   2.993  0.7807  0.1452  0.0497
 9744TIP3    H150647   3.461   1.567   3.010  0.5023  0.9760  1.1988
 9744TIP3    H250648   3.534   1.643   2.901  0.1108 -0.4041 -0.0649
 9745TIP3   OH250649   5.872   3.404  12.821 -0.3483  0.2678  0.6115
 9745TIP3    H150650   5.799   3.387  12.881 -0.8857 -1.0608 -0.3612
 9745TIP3    H250651   5.877   3.326  12.766  0.8969  0.9391 -0.2959
 9746TIP3   OH250652   1.288   6.446  16.192 -0.0587 -0.3552  0.4308
 9746TIP3    H150653   1.245   6.519  16.237 -0.8368  0.2515 -1.2112
 9746TIP3    H250654   1.216   6.388  16.167  0.2595 -0.3414 -0.5707
 9747TIP3   OH250655   1.733   0.642  10.480 -0.1553 -0.3059 -0.3339
 9747TIP3    H150656   1.677   0.689  10.541 -0.9630 -1.2317 -0.3417
 9747TIP3    H250657   1.709   0.675  10.394  2.2604  2.3682 -0.1393
 9748TIP3   OH250658   3.710   1.816   2.798 -0.0046  0.1614  0.5535
 9748TIP3    H150659   3.791   1.818   2.850  1.0693  0.8000 -1.0711
 9748TIP3    H250660   3.700   1.906   2.767  0.3096 -0.5343 -1.6865
 9749TIP3   OH250661   0.301   5.428  10.950 -0.1293 -0.2912  0.7411
 9749TIP3    H150662   0.389   5.449  10.982 -0.1849  0.6237  0.3115
 9749TIP3    H250663   0.246   5.498  10.985 -0.4371 -0.0722 -0.1565
 9750TIP3   OH250664   0.854   2.654  11.782 -0.0477 -0.2406 -0.3443
 9750TIP3    H150665   0.791   2.616  11.844  1.4410 -1.9524  0.2270
 9750TIP3    H250666   0.889   2.578  11.735  3.4428  0.2181  1.1909
 9751TIP3   OH250667   0.722   2.499  11.231 -0.1789 -0.1461  0.7440
 9751TIP3    H150668   0.686   2.570  11.178  0.1941 -0.0755  0.5823
 9751TIP3    H250669   0.759   2.541  11.308 -0.1778 -0.1897  0.7677
 9752TIP3   OH250670   6.120   5.581  13.130 -0.1903  0.1711 -0.0684
 9752TIP3    H150671   6.034   5.585  13.087 -1.3026  2.1963  2.1137
 9752TIP3    H250672   6.139   5.672  13.153  2.1574 -0.3647  0.2867
 9753TIP3   OH250673   3.578   6.677   1.717  0.0882 -0.0488  0.5037
 9753TIP3    H150674   3.609   6.621   1.646 -0.4315 -1.0261  1.0206
 9753TIP3    H250675   3.522   6.741   1.675 -1.4352 -1.5247  0.1687
 9754TIP3   OH250676   0.836   1.430  16.664 -0.2044 -0.4496  0.1227
 9754TIP3    H150677   0.799   1.515  16.639 -1.4816 -0.3728  2.0584
 9754TIP3    H250678   0.906   1.452  16.726  0.7178 -0.7624 -0.7808
 9755TIP3   OH250679   1.239   4.435   1.347 -0.1606  0.7314 -0.2626
 9755TIP3    H150680   1.205   4.345   1.347  0.4261  0.5038 -0.7673
 9755TIP3    H250681   1.215   4.469   1.433 -2.2100  0.7955 -0.8031
 9756TIP3   OH250682   2.790   3.277   5.696 -0.0031  0.1148 -0.2253
 9756TIP3    H150683   2.809   3.359   5.650 -0.3575 -0.3559 -1.2344
 9756TIP3    H250684   2.695   3.269   5.692 -0.0771  0.2579  0.9571
 9757TIP3   OH250685   4.894   1.792   5.467  0.2785  0.2752  0.5284
 9757TIP3    H150686   4.876   1.700   5.488  0.2045  0.2113  0.2038
 9757TIP3    H250687   4.832   1.812   5.396  0.5889  0.4474  0.3065
 9758TIP3   OH250688   0.107   4.319   4.667 -0.2311 -0.4740  0.5135
 9758TIP3    H150689   0.167   4.305   4.593 -0.8239 -1.6922  0.2426
 9758TIP3    H250690   0.091   4.414   4.667 -1.7821 -0.6217 -2.2022
 9759TIP3   OH250691   0.631   6.131   2.713  0.0343 -0.0631 -0.3284
 9759TIP3    H150692   0.588   6.151   2.796 -0.3005 -2.0376  0.0144
 9759TIP3    H250693   0.601   6.043   2.691 -0.2263  0.5606 -2.7787
 9760TIP3   OH250694   3.919   6.250   4.287 -0.3504  0.0158 -0.0921
 9760TIP3    H150695   3.951   6.297   4.211 -1.1746  0.9571  0.1199
 9760TIP3    H250696   3.984   6.267   4.355 -0.8059  1.1445  0.0758
 9761TIP3   OH250697   6.745   1.613   2.834  0.2819 -0.3914 -0.2713
 9761TIP3    H150698   6.828   1.570   2.817  0.5284 -0.1514  0.2759
 9761TIP3    H250699   6.714   1.641   2.748  0.6863 -0.6302 -0.4973
 9762TIP3   OH250700   3.259   1.365   1.332  0.1605 -0.4004 -0.5582
 9762TIP3    H150701   3.272   1.355   1.426 -2.2811 -0.0450 -0.1114
 9762TIP3    H250702   3.329   1.423   1.304  0.8594 -0.4068  1.0641
 9763TIP3   OH250703   4.434   5.032   3.467  0.1735  0.0003 -0.5314
 9763TIP3    H150704   4.417   5.111   3.517 -1.7924 -0.6474 -0.1091
 9763TIP3    H250705   4.455   5.064   3.379 -1.4603  0.9928 -0.6018
 9764TIP3   OH250706   3.151   5.947   4.213 -0.5163 -0.1704 -0.6798
 9764TIP3    H150707   3.245   5.946   4.233 -0.6479 -1.8890  0.0208
 9764TIP3    H250708   3.147   5.968   4.120  0.5434  0.0980 -0.6825
 9765TIP3   OH250709   6.473   2.161   5.553 -0.3507 -0.1964  0.0220
 9765TIP3    H150710   6.491   2.227   5.485  0.8714 -0.2780  0.2427
 9765TIP3    H250711   6.463   2.212   5.633  0.1307 -0.2366  0.1110
 9766TIP3   OH250712   4.585   3.928   1.558  0.4539  0.5403 -0.6541
 9766TIP3    H150713   4.637   3.989   1.506  1.0196 -0.7011 -1.5949
 9766TIP3    H250714   4.579   3.849   1.504  1.2610 -0.9050  1.2335
 9767TIP3   OH250715   6.583   6.499   0.055  0.0025 -0.0955 -0.2153
 9767TIP3    H150716   6.494   6.468   0.075  0.0436 -0.9952 -1.2973
 9767TIP3    H250717   6.576   6.534  -0.034  0.4730  0.9894  0.1639
 9768TIP3   OH250718   5.804   2.934  15.697  0.0741  0.1115  0.0009
 9768TIP3    H150719   5.884   2.984  15.679  0.0914  0.8835  1.9635
 9768TIP3    H250720   5.835   2.846  15.718  0.0965 -0.6256 -2.7452
 9769TIP3   OH250721   1.744   3.277  14.951  0.1267  0.9061  0.2221
 9769TIP3    H150722   1.782   3.350  15.000  2.3236  0.6313 -0.9630
 9769TIP3    H250723   1.774   3.199  14.997 -0.6836  0.6906  0.4063
 9770TIP3   OH250724   1.587   0.681   0.189  0.0624  0.2147  0.4206
 9770TIP3    H150725   1.606   0.738   0.264  1.8518 -0.2237  0.3420
 9770TIP3    H250726   1.668   0.631   0.175 -1.0569 -1.5242 -0.2439
 9771TIP3   OH250727   1.205   1.648  10.572  0.0733  0.2441  0.9313
 9771TIP3    H150728   1.234   1.726  10.526  1.2136 -0.8896 -0.3541
 9771TIP3    H250729   1.165   1.593  10.505 -0.1647 -0.5426  1.6911
 9772TIP3   OH250730   1.992   4.116   4.757  0.4641  0.0751  0.3653
 9772TIP3    H150731   1.978   4.174   4.832  0.8938 -0.8108  1.1536
 9772TIP3    H250732   1.924   4.050   4.765 -0.4502  0.8351 -0.9196
 9773TIP3   OH250733   5.837   4.835  14.725 -0.3057 -0.3686 -0.3647
 9773TIP3    H150734   5.806   4.775  14.793  1.5704 -0.5688  0.3918
 9773TIP3    H250735   5.878   4.907  14.773 -1.3349  0.8650 -1.2782
 9774TIP3   OH250736   1.653   6.688   1.063 -0.0077  0.3740  0.4036
 9774TIP3    H150737   1.724   6.737   1.020  0.5754  0.2075  1.1664
 9774TIP3    H250738   1.582   6.687   0.998  0.9962 -0.2158 -0.7170
 9775TIP3   OH250739   0.745   2.173  13.584 -0.3017 -0.7986  0.3214
 9775TIP3    H150740   0.706   2.165  13.671  0.2091 -2.3044  0.4416
 9775TIP3    H250741   0.745   2.267  13.566  1.5272 -0.2380  2.8296
 9776TIP3   OH250742   0.392   2.649   1.793 -0.2584 -0.0080  0.1024
 9776TIP3    H150743   0.300   2.649   1.819  0.8836 -1.6079  5.3841
 9776TIP3    H250744   0.427   2.731   1.827  0.5472  0.1163 -0.9514
 9777TIP3   OH250745   5.763   3.660   5.231  0.5807 -0.0230  0.6099
 9777TIP3    H150746   5.670   3.636   5.234  0.5523 -0.3982 -1.5476
 9777TIP3    H250747   5.763   3.755   5.240 -0.1122  0.0836 -0.3649
 9778TIP3   OH250748   0.708   3.229  11.378 -0.4549  0.6037  0.5994
 9778TIP3    H150749   0.778   3.166  11.358 -1.3450 -0.3901  0.5085
 9778TIP3    H250750   0.641   3.212  11.312 -1.3446  0.6335  1.4766
 9779TIP3   OH250751   2.156   0.704  14.383 -0.0875  0.0504 -0.4083
 9779TIP3    H150752   2.181   0.761  14.310 -2.5087  0.6960 -0.8223
 9779TIP3    H250753   2.178   0.755  14.462  0.6091  0.2250 -0.7076
 9780TIP3   OH250754   6.716   3.977   1.089 -0.4437 -0.2683 -0.1526
 9780TIP3    H150755   6.761   4.032   1.024  1.3361  0.0176  1.2408
 9780TIP3    H250756   6.627   4.012   1.093  0.3375  1.8638 -0.0782
 9781TIP3   OH250757   2.154   2.910   5.701 -0.4319  1.0484  0.0890
 9781TIP3    H150758   2.242   2.906   5.663  0.1851 -1.8280  1.5216
 9781TIP3    H250759   2.143   3.002   5.726  2.3169  1.4539  0.1764
 9782TIP3   OH250760   4.794   0.514   6.729 -0.3263  0.0102 -0.6281
 9782TIP3    H150761   4.792   0.566   6.648 -0.2100  0.4201 -0.3698
 9782TIP3    H250762   4.877   0.536   6.770 -0.0149 -0.8169 -0.7911
 9783TIP3   OH250763   6.527   3.540   0.534  0.0071  0.5847 -0.0020
 9783TIP3    H150764   6.559   3.594   0.462 -0.8982  1.5517  0.2945
 9783TIP3    H250765   6.435   3.565   0.544  0.3893  1.3402  2.2382
 9784TIP3   OH250766   1.103   0.097   3.542  0.5693  0.2601  0.2474
 9784TIP3    H150767   1.126   0.059   3.626  1.3253  1.5194  0.6505
 9784TIP3    H250768   1.174   0.071   3.483 -0.0001 -0.6861 -0.0281
 9785TIP3   OH250769   4.413   1.746   6.160  0.3586  0.4724 -0.6942
 9785TIP3    H150770   4.336   1.758   6.104  0.6662 -0.2162 -1.2808
 9785TIP3    H250771   4.413   1.822   6.218 -0.4924  0.7219 -1.0129
 9786TIP3   OH250772   1.411   6.292   3.480  0.1872 -0.1043  0.3009
 9786TIP3    H150773   1.486   6.278   3.539  0.9545 -3.7954 -1.2544
 9786TIP3    H250774   1.339   6.315   3.538  1.5840 -0.5989  2.3544
 9787TIP3   OH250775   6.118   6.065  13.183 -0.0338  0.3771  0.1170
 9787TIP3    H150776   6.148   6.151  13.213 -0.6453  1.2607 -1.6464
 9787TIP3    H250777   6.157   6.055  13.096 -1.9656  0.0240 -0.7659
 9788TIP3   OH250778   2.276   1.809   0.845  0.1220 -0.0007 -0.0291
 9788TIP3    H150779   2.269   1.860   0.764  0.4930  0.6413  0.3364
 9788TIP3    H250780   2.276   1.874   0.914  0.0188 -0.5369  0.4798
 9789TIP3   OH250781   0.429   6.588  16.861 -0.3154  0.1954  0.0616
 9789TIP3    H150782   0.480   6.529  16.806 -1.2406  0.4592 -1.1082
 9789TIP3    H250783   0.439   6.674  16.819  2.7180  1.4265  2.8453
 9790TIP3   OH250784   0.849   4.481   3.704 -0.4709  0.1831 -0.3006
 9790TIP3    H150785   0.781   4.543   3.678  0.0702  0.4627 -1.0928
 9790TIP3    H250786   0.810   4.395   3.688 -0.9933  0.3178  0.2010
 9791TIP3   OH250787   3.665   6.445   2.114  0.4356 -0.4896  0.1584
 9791TIP3    H150788   3.637   6.511   2.051  0.8181 -0.3213  0.1602
 9791TIP3    H250789   3.692   6.495   2.191 -1.3527 -0.7587  0.9922
 9792TIP3   OH250790   5.826   1.857  16.148  0.4087  0.2388  0.4342
 9792TIP3    H150791   5.876   1.840  16.228 -0.8018 -1.2320  0.9211
 9792TIP3    H250792   5.748   1.803  16.157  0.3594 -0.1571 -1.8763
 9793TIP3   OH250793   2.168   4.342   0.058  0.1123  0.4696  0.3260
 9793TIP3    H150794   2.163   4.382   0.144 -0.0316  0.8599  0.1396
 9793TIP3    H250795   2.262   4.345   0.036  0.0147  1.4223 -0.0136
 9794TIP3   OH250796   2.486   6.163  13.314  0.5831 -0.0616 -0.1986
 9794TIP3    H150797   2.447   6.080  13.286 -0.6406 -1.1735  3.9842
 9794TIP3    H250798   2.563   6.137  13.365  1.6071  1.5745 -0.8410
 9795TIP3   OH250799   4.953   0.045   3.267  0.0233 -0.0829  0.2351
 9795TIP3    H150800   5.048   0.051   3.274 -0.0074  0.5020  0.1893
 9795TIP3    H250801   4.934   0.064   3.175 -0.0981 -0.7505  0.1189
 9796TIP3   OH250802   1.155   6.746   2.383 -0.6786  0.1914  0.2986
 9796TIP3    H150803   1.220   6.718   2.448 -0.0179  2.1213  0.5390
 9796TIP3    H250804   1.199   6.816   2.334 -2.0799  0.5614 -0.4915
 9797TIP3   OH250805   5.881   3.239  15.752  0.2627  0.2928  0.2172
 9797TIP3    H150806   5.915   3.191  15.676 -1.0879 -1.4938  0.6568
 9797TIP3    H250807   5.818   3.301  15.715  0.5418  0.3177 -0.2227
 9798TIP3   OH250808   5.761   6.035  14.934  0.0403  0.3124 -0.5031
 9798TIP3    H150809   5.678   6.029  14.887 -0.2736  0.5813  0.0012
 9798TIP3    H250810   5.741   6.089  15.011  0.1797 -1.3169  0.7301
 9799TIP3   OH250811   3.627   0.863  13.096 -0.0285 -0.0609  0.1880
 9799TIP3    H150812   3.643   0.777  13.135 -0.7418  0.1099  0.8878
 9799TIP3    H250813   3.709   0.886  13.054  0.0825 -1.2213 -0.2689
 9800TIP3   OH250814   4.760   2.632   0.623 -0.1908 -0.1288 -0.0347
 9800TIP3    H150815   4.790   2.542   0.612 -1.4587 -0.6192  0.3445
 9800TIP3    H250816   4.840   2.684   0.626  0.5570 -1.2468 -0.2444
 9801TIP3   OH250817   5.666   6.266  15.052  0.1239  0.6425 -0.0867
 9801TIP3    H150818   5.713   6.345  15.028 -0.3256  0.7417 -0.6494
 9801TIP3    H250819   5.576   6.295  15.070  0.6177  0.7270  2.6184
 9802TIP3   OH250820   6.783   3.281   4.419 -0.6138  0.0476  0.0947
 9802TIP3    H150821   6.755   3.224   4.347 -1.1542  0.7774 -0.2848
 9802TIP3    H250822   6.866   3.243   4.449 -0.0587  0.1011 -1.3123
 9803TIP3   OH250823   2.159   4.890  14.270 -0.3858 -0.2668  0.4370
 9803TIP3    H150824   2.195   4.801  14.275 -1.9331 -0.9198  0.5852
 9803TIP3    H250825   2.096   4.894  14.342  0.1215  1.1937  0.8319
 9804TIP3   OH250826   5.386   0.359  10.496  0.4795 -0.4165 -0.2785
 9804TIP3    H150827   5.361   0.330  10.408 -0.5104  1.6797 -0.7399
 9804TIP3    H250828   5.320   0.320  10.553 -0.4515  0.3351 -0.8050
 9805TIP3   OH250829   1.872   6.362   6.143  0.0421 -0.4535 -0.5569
 9805TIP3    H150830   1.948   6.337   6.196  0.4450  1.5762 -0.0874
 9805TIP3    H250831   1.820   6.417   6.201 -0.9200 -0.4286 -1.4240
 9806TIP3   OH250832   5.742   5.059  15.324  0.2163  0.5862  0.0409
 9806TIP3    H150833   5.681   5.009  15.378 -0.4203  1.3273  0.0231
 9806TIP3    H250834   5.808   5.092  15.385 -1.0009  2.1918  0.5586
 9807TIP3   OH250835   6.372   1.660   1.976 -0.0939 -0.5362 -0.0021
 9807TIP3    H150836   6.310   1.715   2.025  0.1051 -1.7522  1.6942
 9807TIP3    H250837   6.434   1.629   2.042  0.3732 -2.0250 -1.0841
 9808TIP3   OH250838   1.189   3.121   4.016 -0.7436  0.0943 -0.7181
 9808TIP3    H150839   1.239   3.063   4.074 -0.0032  0.5632 -0.8676
 9808TIP3    H250840   1.132   3.170   4.075  1.6830  2.3111  0.0253
 9809TIP3   OH250841   1.443   4.707  14.598  0.0796  0.5840 -0.3110
 9809TIP3    H150842   1.353   4.705  14.631  0.1458 -1.7348 -0.1150
 9809TIP3    H250843   1.481   4.786  14.637 -0.9196 -0.1272  2.2873
 9810TIP3   OH250844   2.062   4.115   1.189  0.2956  0.5848  0.7795
 9810TIP3    H150845   2.049   4.125   1.094 -0.8190 -3.1188  0.3732
 9810TIP3    H250846   2.157   4.111   1.199  0.4216  0.2146 -0.3362
 9811TIP3   OH250847   2.913   5.094   0.510 -0.1813 -0.3949 -0.0083
 9811TIP3    H150848   2.961   5.088   0.427  0.2332 -0.9258  0.2710
 9811TIP3    H250849   2.953   5.029   0.567  0.2858  0.7266  1.0013
 9812TIP3   OH250850   1.097   2.127  12.500 -0.6396 -0.4005 -0.0256
 9812TIP3    H150851   1.183   2.088  12.511 -0.8875 -0.3358  3.1806
 9812TIP3    H250852   1.113   2.206  12.449  0.8778 -1.2712 -0.9878
 9813TIP3   OH250853   2.970   6.462   0.380 -0.1182 -0.4801 -0.0421
 9813TIP3    H150854   3.007   6.472   0.468  0.1114 -0.0070 -0.1885
 9813TIP3    H250855   3.046   6.455   0.322 -0.1777  1.8039 -0.4986
 9814TIP3   OH250856   1.266   5.458  16.115 -0.6814 -0.2600  0.0189
 9814TIP3    H150857   1.199   5.498  16.170 -0.4435  0.9734 -0.5564
 9814TIP3    H250858   1.285   5.523  16.048  0.6037 -0.8555 -0.2382
 9815TIP3   OH250859   3.931   5.610  13.082  0.2296  0.7495 -0.3478
 9815TIP3    H150860   3.958   5.603  12.990  0.7185  0.6126 -0.1934
 9815TIP3    H250861   3.842   5.645  13.077 -0.2037 -0.3724 -0.9228
 9816TIP3   OH250862   5.975   2.311  14.649  0.3649 -0.5479  0.2148
 9816TIP3    H150863   6.007   2.229  14.687 -0.6006 -1.3194 -0.5784
 9816TIP3    H250864   5.888   2.323  14.686  1.3201  1.3355  2.0537
 9817TIP3   OH250865   0.742   1.182   4.301 -0.2467 -0.4659 -0.0904
 9817TIP3    H150866   0.836   1.191   4.317  0.3328 -1.1339 -2.7128
 9817TIP3    H250867   0.710   1.272   4.291 -0.0175 -0.2146  1.2455
 9818TIP3   OH250868   0.478   2.034   1.911  0.1810 -0.2263 -0.1836
 9818TIP3    H150869   0.417   2.054   1.840 -0.5160 -0.4897  0.3296
 9818TIP3    H250870   0.518   1.951   1.884  1.5922  0.7955 -1.3412
 9819TIP3   OH250871   2.385   0.060  11.287 -0.1275 -0.4508 -0.3003
 9819TIP3    H150872   2.390   0.138  11.231 -0.8014  1.9488  2.7272
 9819TIP3    H250873   2.475   0.028  11.292  0.5936  1.4876  0.0780
 9820TIP3   OH250874   2.868   0.439  13.048 -0.3268 -0.0072  0.8332
 9820TIP3    H150875   2.827   0.524  13.065 -0.0575  0.2944  0.0071
 9820TIP3    H250876   2.961   0.454  13.062  0.0019  0.4499 -1.5215
 9821TIP3   OH250877   0.259   6.440   3.645 -0.3595 -0.2610 -0.3633
 9821TIP3    H150878   0.197   6.435   3.718  0.0637 -0.8257 -0.0392
 9821TIP3    H250879   0.345   6.434   3.686 -0.0569  0.9024 -0.7700
 9822TIP3   OH250880   5.515   2.358  11.498 -0.6224 -0.3488  0.6030
 9822TIP3    H150881   5.496   2.324  11.410  0.7618  0.3405  0.0064
 9822TIP3    H250882   5.495   2.451  11.493 -1.2752 -0.4494  1.2550
 9823TIP3   OH250883   5.738   2.746  16.472  0.1227  0.1141 -0.6523
 9823TIP3    H150884   5.664   2.779  16.420 -0.1397 -0.4239 -0.6283
 9823TIP3    H250885   5.710   2.659  16.501  0.2692  0.4058  0.3888
 9824TIP3   OH250886   5.234   6.376  12.936 -0.4753  0.5595 -0.8273
 9824TIP3    H150887   5.199   6.325  12.863 -0.9590  0.5288 -0.5757
 9824TIP3    H250888   5.258   6.310  13.002  2.3495  0.3702 -1.9269
 9825TIP3   OH250889   6.573   6.290   3.570  0.4276 -0.4267  0.5238
 9825TIP3    H150890   6.502   6.272   3.631  0.7922  0.3523  1.2136
 9825TIP3    H250891   6.637   6.221   3.587  0.0548 -0.8371  0.2569
 9826TIP3   OH250892   2.240   6.213   3.602  0.2638  0.0086  0.1780
 9826TIP3    H150893   2.237   6.128   3.559  0.5565  0.0109  0.1502
 9826TIP3    H250894   2.150   6.230   3.629 -0.2896  0.7833 -1.9247
 9827TIP3   OH250895   4.421   3.004   0.811  0.1170  0.2150 -0.4007
 9827TIP3    H150896   4.457   2.930   0.761  0.1353 -0.2432  0.2795
 9827TIP3    H250897   4.471   3.080   0.780 -0.9827  0.2392 -2.2920
 9828TIP3   OH250898   5.834   2.571   2.889  0.2566  0.2180 -0.0311
 9828TIP3    H150899   5.773   2.497   2.889  1.3414 -0.7108  0.0245
 9828TIP3    H250900   5.907   2.542   2.945  0.5181  1.4970  0.3268
 9829TIP3   OH250901   5.330   5.611   3.750 -0.3853  0.4622  0.0717
 9829TIP3    H150902   5.262   5.678   3.757  0.4697  1.2474  1.3028
 9829TIP3    H250903   5.336   5.574   3.838  1.0276  0.6861  0.0909
 9830TIP3   OH250904   3.405   2.471  11.555 -0.0460 -0.2913  0.3601
 9830TIP3    H150905   3.432   2.563  11.559  0.9853 -0.3277 -2.9112
 9830TIP3    H250906   3.467   2.426  11.613 -0.0978  0.9354  1.4298
 9831TIP3   OH250907   0.452   0.779   4.497  0.3641 -0.0230 -0.4399
 9831TIP3    H150908   0.407   0.724   4.561  0.3513 -0.7871 -1.0777
 9831TIP3    H250909   0.544   0.775   4.523  0.4390 -0.7973 -0.7798
 9832TIP3   OH250910   5.056   2.463   6.346 -0.1185 -0.1214  0.3770
 9832TIP3    H150911   5.107   2.386   6.373 -1.5892 -1.3866 -0.2568
 9832TIP3    H250912   5.055   2.458   6.250  0.2688  1.0500  0.3009
 9833TIP3   OH250913   2.052   2.564   4.659 -0.0157  0.5110 -0.2664
 9833TIP3    H150914   1.987   2.597   4.596 -0.1936 -1.0767 -0.9532
 9833TIP3    H250915   2.000   2.514   4.723  0.4286  0.0837 -0.2361
 9834TIP3   OH250916   1.881   4.633  12.130  0.1794  0.0812 -0.2454
 9834TIP3    H150917   1.883   4.675  12.044 -1.3195  0.5624 -0.0696
 9834TIP3    H250918   1.973   4.619  12.152  0.6374  1.2409 -1.3059
 9835TIP3   OH250919   2.357   4.815  13.366 -0.7400  0.6632 -0.5187
 9835TIP3    H150920   2.325   4.903  13.389  0.4496  0.3752  2.7523
 9835TIP3    H250921   2.294   4.756  13.407  0.2762  0.0450  0.1873
 9836TIP3   OH250922   1.470   2.235   4.443 -0.0041  0.0664  0.7348
 9836TIP3    H150923   1.490   2.183   4.520 -1.5747 -0.5729  0.7589
 9836TIP3    H250924   1.406   2.300   4.474 -2.2819 -1.4983 -0.3595
 9837TIP3   OH250925   5.998   1.963  10.812  0.0771  0.4055 -0.3675
 9837TIP3    H150926   6.013   2.046  10.767 -0.0913  0.5113 -0.2296
 9837TIP3    H250927   5.925   1.980  10.871 -0.1160  0.0959 -0.5118
 9838TIP3   OH250928   1.681   3.127   1.583 -0.2491 -0.3518 -0.4841
 9838TIP3    H150929   1.617   3.056   1.587  1.6798 -2.1313  1.3948
 9838TIP3    H250930   1.635   3.204   1.616 -2.3073 -0.7282 -2.2951
 9839TIP3   OH250931   2.226   3.428   3.250  0.0672  0.4594 -0.2272
 9839TIP3    H150932   2.239   3.496   3.316 -0.3227  1.1919 -0.8894
 9839TIP3    H250933   2.175   3.470   3.181 -1.6599 -0.9403  0.0860
 9840TIP3   OH250934   3.436   1.609  15.640  0.2606  0.2320 -0.3610
 9840TIP3    H150935   3.492   1.664  15.585 -0.0254  0.3385 -0.5517
 9840TIP3    H250936   3.481   1.525  15.643  1.4287  0.8588  1.0900
 9841TIP3   OH250937   5.092   2.046  12.031  0.1260 -0.2866  0.6665
 9841TIP3    H150938   5.174   1.997  12.039  1.1772  0.5506 -3.0718
 9841TIP3    H250939   5.109   2.128  12.076  1.3416 -0.1545 -0.0030
 9842TIP3   OH250940   6.014   1.715  12.937  0.1992 -0.3112 -0.2063
 9842TIP3    H150941   6.052   1.706  12.849 -0.6584  0.0646 -0.6257
 9842TIP3    H250942   5.979   1.805  12.938  0.0661 -0.3711  0.4618
 9843TIP3   OH250943   2.232   2.430   2.497  0.0486  0.0617 -0.4662
 9843TIP3    H150944   2.286   2.507   2.483  0.7357  0.1138  1.9524
 9843TIP3    H250945   2.292   2.356   2.484 -0.2338 -0.0310 -1.3062
 9844TIP3   OH250946   1.930   6.427  11.740  0.7004 -0.3477 -0.4955
 9844TIP3    H150947   1.958   6.510  11.702 -0.8678  0.1805 -0.5885
 9844TIP3    H250948   1.898   6.449  11.827  1.2290 -1.0351 -0.1125
 9845TIP3   OH250949   1.595   1.794  15.110  0.0608  0.7118 -0.0199
 9845TIP3    H150950   1.598   1.851  15.033  2.7335 -0.0842 -0.6195
 9845TIP3    H250951   1.599   1.855  15.184 -0.2718  1.4032 -0.5530
 9846TIP3   OH250952   2.030   5.481   5.766 -0.6420  0.1273  0.0554
 9846TIP3    H150953   2.113   5.463   5.721  0.3943  0.5831  1.6911
 9846TIP3    H250954   2.010   5.572   5.743  0.8073  0.9507  1.8064
 9847TIP3   OH250955   5.736   2.174  13.789 -0.0796 -0.5370  0.0600
 9847TIP3    H150956   5.686   2.221  13.856 -1.3004  1.2533 -1.9758
 9847TIP3    H250957   5.824   2.209  13.797 -0.0589 -0.7904  1.1014
 9848TIP3   OH250958   1.582   5.551  14.254  0.3554  0.5352  0.0759
 9848TIP3    H150959   1.658   5.499  14.228 -2.1292 -2.4736 -1.8324
 9848TIP3    H250960   1.571   5.532  14.347  1.5639  0.5814  0.2466
 9849TIP3   OH250961   6.217   6.312  13.328 -0.4859  0.3929  0.0810
 9849TIP3    H150962   6.308   6.337  13.347 -0.4632 -0.4862  1.1690
 9849TIP3    H250963   6.176   6.394  13.300  0.5127  0.9044  0.0616
 9850TIP3   OH250964   6.466   2.069   0.360 -0.2991 -0.4000  0.4728
 9850TIP3    H150965   6.375   2.071   0.329 -0.5023  1.6665  1.0859
 9850TIP3    H250966   6.460   2.090   0.453  0.7313 -1.4709  0.8002
 9851TIP3   OH250967   6.637   4.502  15.262  0.1433 -0.5681  0.4783
 9851TIP3    H150968   6.694   4.579  15.271 -0.8744  0.7396 -2.7025
 9851TIP3    H250969   6.697   4.428  15.258  1.4379  0.4672  0.0280
 9852TIP3   OH250970   6.263   6.545  15.634  0.0177  0.0277  0.0069
 9852TIP3    H150971   6.180   6.534  15.587 -0.6389 -1.4004  1.4048
 9852TIP3    H250972   6.324   6.486  15.589 -0.1485 -0.0705 -0.0912
 9853TIP3   OH250973   4.411   6.774  10.860  0.3097 -0.1812  0.6098
 9853TIP3    H150974   4.464   6.713  10.808 -0.5318 -1.6516  1.4108
 9853TIP3    H250975   4.321   6.754  10.836 -0.1546 -1.2973  2.9598
 9854TIP3   OH250976   2.211   2.601  10.858  0.0995  0.0450 -0.0403
 9854TIP3    H150977   2.229   2.627  10.949 -1.3680  0.7716  0.0770
 9854TIP3    H250978   2.122   2.633  10.841 -0.1253 -1.1660 -1.3431
 9855TIP3   OH250979   3.280   0.745   5.086 -0.8812  0.2289 -0.4366
 9855TIP3    H150980   3.320   0.751   4.999  0.5103 -1.5211  0.0085
 9855TIP3    H250981   3.321   0.815   5.136 -1.6655  1.2284 -1.1552
 9856TIP3   OH250982   5.448   5.360  11.980  0.1091 -0.5249  0.3139
 9856TIP3    H150983   5.495   5.308  11.916 -0.1184 -3.1909  2.1557
 9856TIP3    H250984   5.360   5.369  11.943  1.3078  2.7567 -2.1900
 9857TIP3   OH250985   4.112   6.525  11.215  0.3908  0.5528 -0.2587
 9857TIP3    H150986   4.181   6.470  11.253  0.4089  0.0344 -1.0250
 9857TIP3    H250987   4.155   6.608  11.196  0.8274  0.2043 -0.8075
 9858TIP3   OH250988   0.781   5.392   4.182  0.0635 -0.0965 -0.1598
 9858TIP3    H150989   0.710   5.456   4.193  0.6398  0.6597 -0.6766
 9858TIP3    H250990   0.810   5.373   4.271  1.2635  1.9868 -0.0334
 9859TIP3   OH250991   1.874   5.703  11.395 -0.1746 -0.1482  0.3618
 9859TIP3    H150992   1.863   5.764  11.468 -0.1414 -0.6935  0.8323
 9859TIP3    H250993   1.962   5.721  11.362 -1.3977  2.5109 -1.8232
 9860TIP3   OH250994   0.632   0.138   0.627 -0.6393  0.5410 -0.1846
 9860TIP3    H150995   0.685   0.097   0.558 -2.2614 -1.4982 -0.3287
 9860TIP3    H250996   0.598   0.218   0.587  0.3204  0.5946 -0.9295
 9861TIP3   OH250997   3.118   1.601  11.385 -0.2690 -0.3389 -0.3394
 9861TIP3    H150998   3.092   1.660  11.455 -1.9362 -1.9232  0.4355
 9861TIP3    H250999   3.039   1.586  11.334  0.6604 -0.1023 -1.9408
 9862TIP3   OH251000   4.829   6.257   1.042  0.2524 -0.5155 -0.0127
 9862TIP3    H151001   4.816   6.232   1.133  0.2783  1.4274  0.5726
 9862TIP3    H251002   4.827   6.175   0.994  1.6190 -1.7506  1.8774
 9863TIP3   OH251003   0.351   6.079   3.272 -0.1921  0.2445  0.2262
 9863TIP3    H151004   0.268   6.039   3.247 -0.4523 -0.7438  2.4320
 9863TIP3    H251005   0.327   6.155   3.325  0.3257  2.6626 -2.7477
 9864TIP3   OH251006   0.074   4.514   2.174  0.1832 -0.3864  0.0186
 9864TIP3    H151007   0.124   4.591   2.201 -0.1572 -0.5443  1.1218
 9864TIP3    H251008   0.139   4.457   2.133  0.0176  1.6468 -3.5717
 9865TIP3   OH251009   0.852   0.590  10.934 -0.1684 -0.6784 -0.8577
 9865TIP3    H151010   0.841   0.511  10.881 -0.0304 -0.9510 -0.4861
 9865TIP3    H251011   0.815   0.661  10.880  0.3684 -0.8781 -1.4998
 9866TIP3   OH251012   1.963   3.448  14.831  0.4292 -0.0258 -0.0856
 9866TIP3    H151013   1.941   3.514  14.765  1.1638  0.2182 -0.1017
 9866TIP3    H251014   1.964   3.365  14.783  3.1974  0.4062 -0.9389
 9867TIP3   OH251015   0.584   4.236   4.093 -0.3336  0.8757  0.1360
 9867TIP3    H151016   0.600   4.180   4.017 -1.6620 -2.4803  2.1125
 9867TIP3    H251017   0.557   4.320   4.056 -1.0233 -0.6202 -3.0803
 9868TIP3   OH251018   1.184   5.787  16.152 -0.5226 -0.3284 -0.1388
 9868TIP3    H151019   1.277   5.801  16.138 -0.0892 -0.9746  1.7943
 9868TIP3    H251020   1.152   5.750  16.070  1.0401 -0.6808 -0.6077
 9869TIP3   OH251021   4.100   6.325   5.309 -0.2272 -0.2246 -0.6348
 9869TIP3    H151022   4.173   6.325   5.246 -1.6907  0.3656 -2.4265
 9869TIP3    H251023   4.058   6.410   5.296 -1.1833 -0.5174  0.4279
 9870TIP3   OH251024   3.182   5.037   4.121  0.1639  0.0741  0.5008
 9870TIP3    H151025   3.275   5.050   4.138  0.4911  0.4705 -1.3521
 9870TIP3    H251026   3.179   4.983   4.043 -1.1889 -0.7171  1.0619
 9871TIP3   OH251027   6.157   6.741   0.379 -0.3630  0.1429  0.3434
 9871TIP3    H151028   6.233   6.693   0.345 -0.2048  0.4320  0.2891
 9871TIP3    H251029   6.109   6.768   0.302 -0.6232 -0.1981  0.3822
 9872TIP3   OH251030   3.158   6.144   5.576  0.0132  0.4640  0.7225
 9872TIP3    H151031   3.130   6.228   5.542  1.1655 -0.1070 -1.9111
 9872TIP3    H251032   3.247   6.132   5.541  0.9568 -0.7054  3.2122
 9873TIP3   OH251033   3.629   4.907   5.284 -0.2525  0.0759 -0.4548
 9873TIP3    H151034   3.611   5.001   5.290 -0.9793  0.0170 -1.4495
 9873TIP3    H251035   3.564   4.874   5.222  1.1003 -0.7813 -1.4747
 9874TIP3   OH251036   4.518   3.896  14.659  0.6770 -0.6668  0.3744
 9874TIP3    H151037   4.489   3.950  14.585 -0.2982  2.3584  2.7511
 9874TIP3    H251038   4.604   3.932  14.683 -0.3450  0.5407  2.5104
 9875TIP3   OH251039   5.953   0.036  15.829 -0.1256  0.8954 -0.3437
 9875TIP3    H151040   5.984  -0.006  15.748 -1.2250 -1.0489  0.1966
 9875TIP3    H251041   5.900   0.110  15.798  0.4381  0.8994 -1.3666
 9876TIP3   OH251042   4.469   5.237   1.688  0.4545  0.0300 -0.1182
 9876TIP3    H151043   4.475   5.270   1.777 -0.1711  2.0500 -0.7676
 9876TIP3    H251044   4.495   5.145   1.694 -2.6489 -0.8484  2.6761
 9877TIP3   OH251045   4.310   6.152  16.752  0.2217  0.0669  0.5084
 9877TIP3    H151046   4.266   6.235  16.770  0.7307  0.3375  0.5327
 9877TIP3    H251047   4.338   6.121  16.838  1.6832  0.8114  0.3296
 9878TIP3   OH251048   0.616   3.380  13.425 -0.1708  0.1984 -0.0182
 9878TIP3    H151049   0.604   3.289  13.398 -1.3547  0.3024  0.1217
 9878TIP3    H251050   0.711   3.389  13.436 -0.0949 -1.2322  0.7225
 9879TIP3   OH251051   6.577   3.761   2.693 -0.2875  0.8184  0.0780
 9879TIP3    H151052   6.529   3.842   2.710 -0.4719  0.2999  2.3851
 9879TIP3    H251053   6.584   3.719   2.779  1.1705 -0.8619 -0.7983
 9880TIP3   OH251054   1.862   5.710  17.125 -0.0086  0.0624 -0.1193
 9880TIP3    H151055   1.781   5.677  17.165  0.0312 -1.1412 -0.9980
 9880TIP3    H251056   1.918   5.633  17.118  0.2666  0.3815 -1.8018
 9881TIP3   OH251057   1.461   3.354   6.183  0.0268  0.4080 -0.7794
 9881TIP3    H151058   1.508   3.437   6.185 -1.4461  1.2489  0.3263
 9881TIP3    H251059   1.373   3.375   6.213 -0.7775 -1.3181 -1.7845
 9882TIP3   OH251060   6.645   5.161   3.178 -0.5717 -0.2290 -0.1509
 9882TIP3    H151061   6.693   5.079   3.172 -0.4463 -0.2321  0.8493
 9882TIP3    H251062   6.553   5.136   3.172 -0.5305 -0.4326  0.0579
 9883TIP3   OH251063   6.561   6.556   3.461  0.3602  0.4293  0.3747
 9883TIP3    H151064   6.626   6.553   3.532  0.9665  1.4747 -0.1146
 9883TIP3    H251065   6.488   6.503   3.493  1.2472 -0.3733  1.1433
 9884TIP3   OH251066   2.505   4.208  14.084 -0.4053 -0.4260  0.5515
 9884TIP3    H151067   2.491   4.242  14.173  0.2331  1.1369  0.0804
 9884TIP3    H251068   2.555   4.127  14.097 -0.2977 -0.2034  1.6166
 9885TIP3   OH251069   0.210   1.031   1.100  0.3732 -0.0949  0.2377
 9885TIP3    H151070   0.208   1.126   1.092  0.5242 -0.1069  0.0549
 9885TIP3    H251071   0.151   1.011   1.172 -2.0362 -0.0687 -1.5961
 9886TIP3   OH251072   1.074   6.219  10.617  0.0962  0.3899  0.0646
 9886TIP3    H151073   1.151   6.241  10.565 -0.7925  1.0482 -1.0060
 9886TIP3    H251074   1.072   6.286  10.685 -0.3785  1.3133 -0.8317
 9887TIP3   OH251075   0.366   4.754   2.779  0.1362  0.3065 -0.2089
 9887TIP3    H151076   0.356   4.713   2.693 -0.0212 -0.3442  0.1082
 9887TIP3    H251077   0.371   4.680   2.840  1.2775  0.7304  0.2434
 9888TIP3   OH251078   6.166   2.513  14.956  0.2360  0.9194 -0.3344
 9888TIP3    H151079   6.190   2.430  14.915 -1.3329 -0.2086  0.8822
 9888TIP3    H251080   6.155   2.574  14.883 -1.6551 -0.7885 -1.5941
 9889TIP3   OH251081   5.533   6.017   2.097 -0.3773  0.1116  0.0681
 9889TIP3    H151082   5.453   6.026   2.044 -0.1762 -1.4855 -0.5750
 9889TIP3    H251083   5.599   5.986   2.035  0.5269  0.5829  0.7722
 9890TIP3   OH251084   2.744   1.243  13.858  0.3631 -0.1039  0.2195
 9890TIP3    H151085   2.786   1.177  13.913  2.6514  1.3710  0.3827
 9890TIP3    H251086   2.676   1.281  13.914  0.1568 -1.1289  0.6966
 9891TIP3   OH251087   3.003   3.757   6.697 -0.2193  0.2785  0.0951
 9891TIP3    H151088   2.970   3.675   6.659 -1.2502  1.4672 -1.7552
 9891TIP3    H251089   3.094   3.763   6.667 -0.1510 -0.1511  0.2077
 9892TIP3   OH251090   0.915   0.802  17.130 -0.0962  0.1293  0.0605
 9892TIP3    H151091   0.921   0.795  17.035 -0.3089 -1.3486  0.1268
 9892TIP3    H251092   0.956   0.721  17.163  1.0952  1.1785  1.2760
 9893TIP3   OH251093   6.567   6.263  17.124  0.5929 -0.3697  0.0319
 9893TIP3    H151094   6.598   6.174  17.108  2.6672  0.5283 -1.3042
 9893TIP3    H251095   6.638   6.319  17.094 -1.1455  1.7825 -0.3050
 9894TIP3   OH251096   2.822   2.461  13.896 -0.3046  0.0712  0.2540
 9894TIP3    H151097   2.786   2.449  13.984 -0.5961 -1.1221 -0.0092
 9894TIP3    H251098   2.864   2.547  13.899  0.0584 -0.1237  1.6797
 9895TIP3   OH251099   4.678   3.452   3.125  0.3894 -0.0241 -0.5042
 9895TIP3    H151100   4.764   3.442   3.166  0.8270  0.4953 -1.2646
 9895TIP3    H251101   4.682   3.395   3.048 -0.0893 -0.2913 -0.3321
 9896TIP3   OH251102   1.165   2.116  15.026  0.1929 -0.0800  0.1384
 9896TIP3    H151103   1.180   2.022  15.021  1.9631  0.1763 -0.0644
 9896TIP3    H251104   1.252   2.154  15.037 -0.4647  1.5488  0.0662
 9897TIP3   OH251105   1.635   6.202  15.072 -0.3177  0.3254 -0.0937
 9897TIP3    H151106   1.672   6.186  14.985 -2.3648 -0.6663 -0.8542
 9897TIP3    H251107   1.661   6.126  15.124 -1.5495 -0.5560 -0.7328
 9898TIP3   OH251108   2.068   2.877   3.007  0.2171  0.0537  0.3789
 9898TIP3    H151109   2.067   2.783   2.990 -1.1596 -0.6915  3.6245
 9898TIP3    H251110   2.081   2.917   2.922 -1.9340 -2.9929 -1.5872
 9899TIP3   OH251111   4.812   5.586  12.633 -0.2443 -0.8032 -0.7076
 9899TIP3    H151112   4.735   5.552  12.678 -1.5864 -0.7580 -2.8197
 9899TIP3    H251113   4.776   5.630  12.555  1.9075 -0.6796 -1.6911
 9900TIP3   OH251114   2.383   3.084  16.292 -0.0883 -0.1505 -0.0634
 9900TIP3    H151115   2.339   3.028  16.356 -2.6386 -0.4007 -1.8720
 9900TIP3    H251116   2.312   3.129  16.246  1.6406  0.6044 -2.1886
 9901TIP3   OH251117   4.370   1.820   3.185 -0.8846  0.7767 -0.1446
 9901TIP3    H151118   4.355   1.895   3.127  1.7683  1.5747  0.0795
 9901TIP3    H251119   4.365   1.856   3.273  2.5584  1.3300 -0.0336
 9902TIP3   OH251120   4.597   3.039   2.271  0.7378  0.3532  0.3999
 9902TIP3    H151121   4.538   3.054   2.197  0.5911 -1.7234  0.0207
 9902TIP3    H251122   4.602   3.123   2.316 -0.9507  1.0850 -0.6947
 9903TIP3   OH251123   5.612   4.412   4.678 -0.2382 -0.0608  0.3830
 9903TIP3    H151124   5.639   4.441   4.591  2.1637 -0.1795  1.0211
 9903TIP3    H251125   5.527   4.455   4.692  0.5882  2.1795 -0.9331
 9904TIP3   OH251126   3.825   0.639   0.004 -0.0312 -0.0234  0.0874
 9904TIP3    H151127   3.870   0.614   0.084  0.8099  1.0468 -0.0296
 9904TIP3    H251128   3.873   0.716  -0.028 -3.1835  2.5819  1.1040
 9905TIP3   OH251129   3.906   6.293   2.250  0.1455 -0.1353 -0.3286
 9905TIP3    H151130   3.902   6.280   2.155 -0.6157 -2.0574 -0.0706
 9905TIP3    H251131   3.961   6.221   2.282  0.6225  0.6526  0.6775
 9906TIP3   OH251132   0.478   2.179   5.986  0.2371  0.0515  0.6214
 9906TIP3    H151133   0.517   2.116   5.926 -1.4808 -0.3834 -0.0994
 9906TIP3    H251134   0.550   2.238   6.009  1.3231 -0.7579 -0.5486
 9907TIP3   OH251135   4.740   3.551  12.586 -0.3994 -0.3037 -0.7201
 9907TIP3    H151136   4.745   3.485  12.517 -0.4526 -2.0510  0.8796
 9907TIP3    H251137   4.712   3.503  12.664 -0.8104  1.6868  0.4302
 9908TIP3   OH251138   1.572   6.113  11.897  0.6880  0.6473  0.3257
 9908TIP3    H151139   1.608   6.158  11.821  1.8653  0.8001  0.9547
 9908TIP3    H251140   1.538   6.031  11.862  2.9823 -0.1796 -0.1029
 9909TIP3   OH251141   1.816   2.283   0.311 -0.2495  0.6803  0.0508
 9909TIP3    H151142   1.850   2.361   0.268  0.9213  0.0380 -0.2276
 9909TIP3    H251143   1.775   2.232   0.241  1.4493 -0.2537 -0.3153
 9910TIP3   OH251144   4.861   3.271  12.954  1.1070  0.2664 -0.2725
 9910TIP3    H151145   4.868   3.366  12.946 -0.2601  0.6038  1.7825
 9910TIP3    H251146   4.940   3.246  13.001  0.2517  0.8009  1.5439
 9911TIP3   OH251147   5.856   1.565  16.053  0.0793  0.3207 -0.2657
 9911TIP3    H151148   5.847   1.650  16.094  0.5445 -0.6862  2.0525
 9911TIP3    H251149   5.811   1.505  16.112  3.4209 -1.6772  0.4915
 9912TIP3   OH251150   0.502   6.133   2.966 -0.3886 -0.3429  0.0050
 9912TIP3    H151151   0.435   6.177   3.018 -0.0889 -0.4509  0.4840
 9912TIP3    H251152   0.475   6.041   2.965 -1.0445 -0.1648 -1.0407
 9913TIP3   OH251153   1.920   3.608   2.932 -0.1531  0.3763  0.4316
 9913TIP3    H151154   2.015   3.614   2.949  0.0928 -0.7837 -0.4105
 9913TIP3    H251155   1.897   3.692   2.892  1.4308 -0.8188 -3.4220
 9914TIP3   OH251156   4.885   4.030   4.254 -0.9197  0.1641  0.1979
 9914TIP3    H151157   4.858   4.032   4.346 -2.1881 -0.4757 -0.1377
 9914TIP3    H251158   4.847   3.949   4.220 -2.8234  1.6939 -1.5585
 9915TIP3   OH251159   0.560   2.865   1.560  0.0831  0.6930 -0.0023
 9915TIP3    H151160   0.468   2.874   1.534  0.2376  1.7452 -0.2321
 9915TIP3    H251161   0.571   2.772   1.577 -1.0736  0.5760  0.1941
 9916TIP3   OH251162   6.267   4.471   5.150  0.1905 -0.5123  0.2078
 9916TIP3    H151163   6.267   4.567   5.145 -0.1276 -0.2751  2.8370
 9916TIP3    H251164   6.180   4.446   5.119  0.7841 -0.1112 -1.8837
 9917TIP3   OH251165   4.000   5.086  15.458  0.0553 -0.8075  0.1986
 9917TIP3    H151166   4.062   5.067  15.529  2.9962  1.5438 -1.4874
 9917TIP3    H251167   3.924   5.123  15.503  1.5337 -0.0073  2.2455
 9918TIP3   OH251168   4.264   6.146   1.405 -0.3888  0.2536  0.2966
 9918TIP3    H151169   4.282   6.173   1.495 -0.6418 -0.3182  0.5239
 9918TIP3    H251170   4.170   6.125   1.405 -0.1998 -0.6186  0.1348
 9919TIP3   OH251171   5.156   4.529   3.639 -0.7066  0.3479 -0.3314
 9919TIP3    H151172   5.205   4.579   3.573  1.0143  0.3785  0.9154
 9919TIP3    H251173   5.151   4.588   3.715 -1.8577 -0.0352 -0.0831
 9920TIP3   OH251174   6.149   1.911  12.722  0.6142  0.0151  0.7180
 9920TIP3    H151175   6.226   1.903  12.778  0.5068 -3.1782  0.5419
 9920TIP3    H251176   6.181   1.955  12.643  1.6364  1.0191  1.6623
 9921TIP3   OH251177   3.572   3.310   1.936  0.2484  0.1240  0.3299
 9921TIP3    H151178   3.636   3.240   1.942 -0.8192 -0.8004  1.6203
 9921TIP3    H251179   3.608   3.371   1.872  1.4643 -1.3195 -0.4026
 9922TIP3   OH251180   1.161   2.371   6.548 -0.4616  0.2319 -0.1559
 9922TIP3    H151181   1.113   2.354   6.629  1.1132  0.7807  0.9627
 9922TIP3    H251182   1.166   2.286   6.504  2.1516 -1.1084  2.3784
 9923TIP3   OH251183   1.714   1.388  11.954 -0.2083  0.1399 -0.1692
 9923TIP3    H151184   1.714   1.461  11.892 -1.0455  1.4315  1.2995
 9923TIP3    H251185   1.657   1.322  11.914 -1.4934  1.3323 -0.3681
 9924TIP3   OH251186   4.343   5.918  15.726 -0.0399  0.1283 -0.5168
 9924TIP3    H151187   4.379   5.984  15.668  0.3709 -0.1396 -0.5671
 9924TIP3    H251188   4.388   5.837  15.702 -0.4723 -0.1545 -0.3974
 9925TIP3   OH251189   3.147   2.776   4.855 -0.5328  0.1666  0.0725
 9925TIP3    H151190   3.215   2.844   4.864 -2.1124  2.0094 -1.0157
 9925TIP3    H251191   3.143   2.734   4.940  1.7859  0.1439  0.2457
 9926TIP3   OH251192   3.143   4.264  15.749  0.3899 -0.2290  0.5094
 9926TIP3    H151193   3.145   4.305  15.836  1.0081  1.6166 -0.3174
 9926TIP3    H251194   3.057   4.287  15.713 -1.3297 -3.8451  1.8193
 9927TIP3   OH251195   1.418   3.853  17.006  0.2612 -0.1737 -0.1818
 9927TIP3    H151196   1.391   3.931  17.053  0.2221  0.9906 -2.0441
 9927TIP3    H251197   1.360   3.848  16.930  1.8363 -0.5898 -1.4258
 9928TIP3   OH251198   0.304   5.727  11.246 -0.2650 -0.3161  0.3027
 9928TIP3    H151199   0.272   5.733  11.155  0.1742 -0.1342  0.1603
 9928TIP3    H251200   0.396   5.705  11.237  0.6877  3.0053  0.6031
 9929TIP3   OH251201   5.096   5.526  14.877  0.3661 -0.3960 -0.5943
 9929TIP3    H151202   5.093   5.484  14.791 -0.1597 -3.1514  0.6472
 9929TIP3    H251203   5.022   5.487  14.924 -0.0563  1.9026  0.7790
 9930TIP3   OH251204   2.819   3.833  11.831 -0.2082  0.1681 -0.1347
 9930TIP3    H151205   2.806   3.844  11.926  1.0451 -1.4992  0.2757
 9930TIP3    H251206   2.739   3.789  11.802 -0.1723 -0.2387  0.3533
 9931TIP3   OH251207   2.675   5.402  13.462  0.1312 -0.3131  0.2772
 9931TIP3    H151208   2.692   5.496  13.475  0.8322 -0.6176  1.7590
 9931TIP3    H251209   2.581   5.392  13.474 -0.0993  0.3103 -0.8000
 9932TIP3   OH251210   6.405   4.706   2.238 -0.0750  0.0614  0.5631
 9932TIP3    H151211   6.372   4.790   2.207 -1.4468 -1.0424 -1.2026
 9932TIP3    H251212   6.347   4.681   2.309  1.0163  1.0583  1.8636
 9933TIP3   OH251213   0.653   6.730  11.768 -0.6051 -0.4752 -0.0729
 9933TIP3    H151214   0.655   6.659  11.705 -0.3248 -0.3880 -0.1613
 9933TIP3    H251215   0.711   6.702  11.839 -0.5049 -0.3391 -0.1022
 9934TIP3   OH251216   3.516   5.938  11.165 -0.2553 -0.0997 -0.0898
 9934TIP3    H151217   3.566   5.968  11.089  0.2109 -1.2996 -0.2875
 9934TIP3    H251218   3.526   6.007  11.230  1.7236 -0.3102 -0.1154
 9935TIP3   OH251219   3.914   0.503   0.850  0.0436  0.0934  0.2732
 9935TIP3    H151220   3.941   0.477   0.938 -0.4044 -1.1189  0.0729
 9935TIP3    H251221   3.993   0.491   0.797  0.0800 -0.0169  0.3512
 9936TIP3   OH251222   5.593   2.640   5.322 -0.7548  0.0682  0.0973
 9936TIP3    H151223   5.611   2.552   5.355  0.4701 -0.1617 -1.1044
 9936TIP3    H251224   5.558   2.627   5.234  1.4409  0.8075 -0.9420
 9937TIP3   OH251225   1.927   6.495   0.407 -0.3815 -0.0200  0.3986
 9937TIP3    H151226   1.977   6.576   0.402 -0.3110  0.0540  1.8711
 9937TIP3    H251227   1.894   6.481   0.318  1.0181  0.7101 -0.2605
 9938TIP3   OH251228   5.926   0.424   2.910  0.3726  0.1579  0.5737
 9938TIP3    H151229   5.911   0.518   2.920  0.0957  0.0017  1.7065
 9938TIP3    H251230   5.845   0.383   2.943  1.2770 -0.5376  2.0152
 9939TIP3   OH251231   2.364   0.670  15.070  0.6053 -0.0179  0.0568
 9939TIP3    H151232   2.317   0.683  15.152 -0.6274 -1.0082 -0.4611
 9939TIP3    H251233   2.337   0.583  15.040  0.7108  0.4874 -1.5975
 9940TIP3   OH251234   0.657   5.338  10.671 -0.2736 -0.2032 -0.0123
 9940TIP3    H151235   0.636   5.333  10.578 -1.5112 -0.2110  0.2590
 9940TIP3    H251236   0.736   5.393  10.674 -0.6749  0.4649 -1.0094
 9941TIP3   OH251237   4.782   2.894   2.896 -0.1580  0.6361 -0.1515
 9941TIP3    H151238   4.700   2.899   2.847 -0.4603  0.5195  0.3425
 9941TIP3    H251239   4.756   2.901   2.988  0.2850 -0.3645  0.0635
 9942TIP3   OH251240   6.177   2.096   1.406  0.0142  0.5966 -0.5850
 9942TIP3    H151241   6.178   2.151   1.328  0.4815  0.2605 -0.8242
 9942TIP3    H251242   6.095   2.118   1.451 -1.1983 -0.5395 -2.1232
 9943TIP3   OH251243   2.603   5.447   4.322  0.2447  0.2933  0.6846
 9943TIP3    H151244   2.660   5.525   4.321 -0.7116  1.0085 -0.7660
 9943TIP3    H251245   2.613   5.412   4.411  2.8827  0.4136  0.5238
 9944TIP3   OH251246   5.567   3.173   0.075  0.5684 -0.4094 -0.2064
 9944TIP3    H151247   5.544   3.249   0.020  0.8457  0.1913  0.4874
 9944TIP3    H251248   5.548   3.097   0.020 -0.3597  0.1427 -0.6793
 9945TIP3   OH251249   0.555   5.676   1.705  0.0466 -0.6774  0.1433
 9945TIP3    H151250   0.640   5.702   1.740  0.4651  0.0304 -1.2996
 9945TIP3    H251251   0.551   5.717   1.618 -1.3079 -1.5791 -0.2646
 9946TIP3   OH251252   6.705   0.168  16.054  0.0413 -0.2782 -0.2464
 9946TIP3    H151253   6.695   0.253  16.012 -0.2476  1.8312  3.6297
 9946TIP3    H251254   6.618   0.146  16.086  0.5940 -0.6599  1.0893
 9947TIP3   OH251255   4.494   3.492   3.510  0.1592 -0.3146  0.6611
 9947TIP3    H151256   4.583   3.506   3.543  0.1844  3.3379 -0.5559
 9947TIP3    H251257   4.439   3.547   3.565 -0.6222  1.1062 -1.4189
 9948TIP3   OH251258   4.112   6.657   0.809  0.3653  0.0143  0.0487
 9948TIP3    H151259   4.081   6.737   0.852 -0.4142  0.2264 -0.8690
 9948TIP3    H251260   4.035   6.600   0.808  1.0802 -1.0083  1.2492
 9949TIP3   OH251261   3.170   3.372   1.526  0.1575 -0.8528 -0.8585
 9949TIP3    H151262   3.247   3.403   1.574 -1.7682  2.2648  0.5661
 9949TIP3    H251263   3.153   3.441   1.462 -2.7645 -0.1307  0.5311
 9950TIP3   OH251264   4.720   3.513  14.451 -0.3845 -0.2487  0.4433
 9950TIP3    H151265   4.733   3.602  14.483 -2.8707 -0.2200  1.5708
 9950TIP3    H251266   4.745   3.457  14.524  1.6309 -0.5679 -0.4227
 9951TIP3   OH251267   3.876   2.915  17.054 -0.0853  0.4225 -0.4427
 9951TIP3    H151268   3.864   2.988  17.115 -0.1353 -0.0717  0.1488
 9951TIP3    H251269   3.787   2.895  17.023 -0.5036 -1.2442  1.6033
 9952TIP3   OH251270   2.892   4.430  16.755  0.0873 -0.0288  0.1888
 9952TIP3    H151271   2.803   4.446  16.787  0.4606 -1.6854  2.2911
 9952TIP3    H251272   2.891   4.340  16.723  0.5309  0.6083 -1.7525
 9953TIP3   OH251273   6.341   1.043  15.523 -0.0734 -0.1154 -0.3800
 9953TIP3    H151274   6.323   1.041  15.617 -0.1266  0.1305 -0.3854
 9953TIP3    H251275   6.386   0.960  15.506  1.8358  0.7116  0.2529
 9954TIP3   OH251276   2.467   1.486  15.479  0.0786  0.8192  0.0172
 9954TIP3    H151277   2.474   1.574  15.442 -0.3086 -0.1271 -2.5209
 9954TIP3    H251278   2.443   1.431  15.405 -2.5952 -1.0227  2.0506
 9955TIP3   OH251279   6.332   0.271   1.799  0.2285 -0.1795 -0.5204
 9955TIP3    H151280   6.378   0.338   1.851 -0.2947 -0.8224  0.8347
 9955TIP3    H251281   6.280   0.321   1.737  0.1797  0.6720  0.1834
 9956TIP3   OH251282   0.347   1.525   4.560 -0.0753  0.1862 -0.0028
 9956TIP3    H151283   0.264   1.564   4.533 -0.2286 -0.3438 -0.3137
 9956TIP3    H251284   0.373   1.469   4.487  0.2205 -0.1698  0.3648
 9957TIP3   OH251285   5.996   5.756   0.550  0.2091  0.3039 -0.2072
 9957TIP3    H151286   6.053   5.714   0.614  0.9404 -0.3666 -1.2793
 9957TIP3    H251287   5.922   5.695   0.540  0.3470  0.1652 -0.3803
 9958TIP3   OH251288   2.216   4.637  11.593 -0.4188 -0.5534  0.2973
 9958TIP3    H151289   2.261   4.624  11.677 -1.1231 -3.0707  0.3886
 9958TIP3    H251290   2.138   4.687  11.615  0.8383  1.3626  0.6072
 9959TIP3   OH251291   0.727   0.749  16.650 -0.3731 -0.5593 -0.5364
 9959TIP3    H151292   0.720   0.832  16.603 -0.4331 -0.2652 -0.0206
 9959TIP3    H251293   0.821   0.728  16.646 -0.7666 -2.3148 -3.7478
 9960TIP3   OH251294   0.288   4.359  15.549  0.9034  0.1756 -0.3417
 9960TIP3    H151295   0.360   4.375  15.610 -0.5683 -0.4859  1.7045
 9960TIP3    H251296   0.223   4.425  15.571  0.0241 -0.5572 -0.6597
 9961TIP3   OH251297   1.740   3.215  12.664 -0.6774 -0.1814  0.8753
 9961TIP3    H151298   1.747   3.167  12.581 -1.5667  2.3958 -0.8294
 9961TIP3    H251299   1.823   3.260  12.672 -0.5252 -0.5679  1.5170
 9962TIP3   OH251300   3.684   0.344   0.799  0.1530 -0.0710  0.3327
 9962TIP3    H151301   3.717   0.255   0.784  1.2946 -0.5740  4.4933
 9962TIP3    H251302   3.762   0.399   0.799 -0.2793  0.5414  0.0036
 9963TIP3   OH251303   1.631   0.029  11.247  0.2726 -0.1636  0.0966
 9963TIP3    H151304   1.573   0.100  11.220  1.5488 -0.2594 -3.4958
 9963TIP3    H251305   1.713   0.072  11.270  0.1572 -0.3088  0.7934
 9964TIP3   OH251306   5.494   1.214   0.007 -0.4771 -0.5038  0.3595
 9964TIP3    H151307   5.417   1.198  -0.047  0.3090  0.6383 -1.1674
 9964TIP3    H251308   5.502   1.135   0.062 -1.6318 -1.4523 -0.7795
 9965TIP3   OH251309   4.027   2.860  16.217  0.0588  0.3473 -0.3686
 9965TIP3    H151310   4.050   2.948  16.188  0.4746  0.2809 -0.2505
 9965TIP3    H251311   3.983   2.873  16.301  0.9435  0.3861  0.0963
 9966TIP3   OH251312   1.667   4.862  16.570 -0.3104 -0.0640  0.4151
 9966TIP3    H151313   1.694   4.891  16.482 -0.3729 -0.3061  0.3144
 9966TIP3    H251314   1.613   4.784  16.554 -1.4951  0.7051  0.5790
 9967TIP3   OH251315   1.876   6.065  15.583 -0.5100 -0.6813  0.0194
 9967TIP3    H151316   1.970   6.082  15.593 -0.7491 -0.5267  2.6264
 9967TIP3    H251317   1.838   6.152  15.568 -0.6484  0.0252  3.5640
 9968TIP3   OH251318   6.138   2.353   3.273 -0.1882 -0.0666 -0.4944
 9968TIP3    H151319   6.056   2.307   3.257 -1.6773  2.6285 -1.1329
 9968TIP3    H251320   6.113   2.433   3.319  1.9040  1.4205 -1.7692
 9969TIP3   OH251321   4.425   6.675   1.999  0.4245 -0.4215 -0.6787
 9969TIP3    H151322   4.466   6.741   1.944  2.7356  0.0087  1.3645
 9969TIP3    H251323   4.350   6.719   2.039  1.6967  0.9106  0.3341
 9970TIP3   OH251324   5.763   0.749  17.185  0.0476 -0.3603 -0.3987
 9970TIP3    H151325   5.698   0.745  17.255  1.8358 -0.8379  1.3343
 9970TIP3    H251326   5.769   0.842  17.163 -2.3288 -0.4607 -1.7696
 9971TIP3   OH251327   3.875   3.085   1.329  0.5257  0.2585 -0.3728
 9971TIP3    H151328   3.860   3.066   1.422 -1.7840 -1.3351 -0.9625
 9971TIP3    H251329   3.926   3.011   1.297 -0.8276 -0.5379 -0.8187
 9972TIP3   OH251330   6.290   0.415  17.015 -0.1435  0.0433 -0.1658
 9972TIP3    H151331   6.223   0.368  17.064  1.0321 -0.1292  1.3314
 9972TIP3    H251332   6.314   0.489  17.071 -0.2977  1.1049 -1.4494
 9973TIP3   OH251333   4.865   1.143   5.723  0.3321  0.7154  0.3510
 9973TIP3    H151334   4.792   1.149   5.662  0.6281  0.7749  0.0023
 9973TIP3    H251335   4.942   1.129   5.668  0.6893  1.4126  0.6695
 9974TIP3   OH251336   3.076   4.341   5.273 -0.4404 -0.2450 -0.3850
 9974TIP3    H151337   2.984   4.324   5.254 -1.1924  1.3059  1.4602
 9974TIP3    H251338   3.091   4.299   5.358  0.6320 -0.7094 -0.7923
 9975TIP3   OH251339   0.479   3.196  15.714  0.4071  0.0014  0.1660
 9975TIP3    H151340   0.385   3.199  15.731  0.2924 -1.1827 -0.1465
 9975TIP3    H251341   0.514   3.138  15.782  0.8402  0.0969  0.0251
 9976TIP3   OH251342   5.363   6.439  13.948 -0.7763  0.4335  0.2465
 9976TIP3    H151343   5.306   6.398  13.883 -0.0495  1.4132 -1.0553
 9976TIP3    H251344   5.397   6.366  13.999 -0.6918 -0.4685 -1.0380
 9977TIP3   OH251345   1.234   1.414  11.534  0.4176  1.0651 -0.0400
 9977TIP3    H151346   1.148   1.453  11.552  1.3189  3.0122  0.2549
 9977TIP3    H251347   1.291   1.489  11.517  2.3828 -0.1081  1.1236
 9978TIP3   OH251348   2.539   4.166  16.064  0.5829  0.4702 -0.1973
 9978TIP3    H151349   2.477   4.239  16.072 -1.9345 -1.6263  0.9596
 9978TIP3    H251350   2.514   4.122  15.983  0.9274 -0.0896 -0.0060
 9979TIP3   OH251351   3.476   6.622  14.779 -0.3255 -0.0234 -0.8080
 9979TIP3    H151352   3.398   6.648  14.828 -0.0653  1.0416 -0.9397
 9979TIP3    H251353   3.454   6.640  14.688  0.2603  0.8154 -0.7974
 9980TIP3   OH251354   3.018   3.801   2.246  0.3554 -0.1414  0.1538
 9980TIP3    H151355   2.970   3.733   2.198  0.9822  0.2500 -1.0630
 9980TIP3    H251356   3.086   3.753   2.293  0.7958 -0.3951 -0.7015
 9981TIP3   OH251357   2.355   1.984  15.934  0.1201 -0.3068 -0.3846
 9981TIP3    H151358   2.301   1.906  15.946  0.4945 -0.6637 -1.0063
 9981TIP3    H251359   2.404   1.968  15.853  0.4230  0.4406 -0.3598
 9982TIP3   OH251360   2.482   2.171   1.237 -0.0861 -0.6136  0.0356
 9982TIP3    H151361   2.402   2.186   1.288 -0.0803  0.9958 -0.3882
 9982TIP3    H251362   2.464   2.091   1.188 -0.5389 -1.5558  1.6579
 9983TIP3   OH251363   6.248   2.525  11.405  0.6367 -0.0947 -0.1609
 9983TIP3    H151364   6.198   2.606  11.400  0.4882 -0.2466 -2.3048
 9983TIP3    H251365   6.306   2.537  11.480 -2.7918 -0.0912  2.7750
 9984TIP3   OH251366   2.768   5.802   0.720  0.5795  0.0213  0.0780
 9984TIP3    H151367   2.761   5.789   0.814  0.3234 -0.6096 -0.0258
 9984TIP3    H251368   2.862   5.812   0.704  0.8390 -2.0184  0.1332
 9985TIP3   OH251369   1.662   0.301   5.440 -0.2895  0.2767 -0.1933
 9985TIP3    H151370   1.740   0.245   5.436 -1.6298 -1.6705 -0.4504
 9985TIP3    H251371   1.669   0.346   5.524 -0.4148 -2.2827  1.3074
 9986TIP3   OH251372   5.958   5.576   5.703  0.7773 -0.0491 -0.1430
 9986TIP3    H151373   5.864   5.574   5.719  0.3455  3.5724 -1.3698
 9986TIP3    H251374   5.997   5.568   5.790 -0.6881 -0.4852  0.5071
 9987TIP3   OH251375   3.329   1.122   2.354  0.1528 -0.2968  0.1791
 9987TIP3    H151376   3.341   1.089   2.265  2.9737 -0.7713  0.6196
 9987TIP3    H251377   3.238   1.101   2.376 -0.5282 -0.4477 -2.4416
 9988TIP3   OH251378   3.170   3.656  17.211  0.1636  0.2256  0.1774
 9988TIP3    H151379   3.160   3.745  17.176 -0.7012  0.1517  0.2204
 9988TIP3    H251380   3.146   3.664  17.303 -1.0264 -0.2606 -0.0772
 9989TIP3   OH251381   6.000   6.375  15.795  0.3922  0.2285  0.7848
 9989TIP3    H151382   5.997   6.449  15.856  0.8928  0.9179  0.0065
 9989TIP3    H251383   6.093   6.357  15.783  0.3648  0.8794 -0.6482
 9990TIP3   OH251384   4.829   2.390  16.930  0.1427  0.0535 -0.4381
 9990TIP3    H151385   4.885   2.463  16.904 -0.6331  0.8012 -0.0400
 9990TIP3    H251386   4.741   2.416  16.903 -0.3913 -0.0121  1.1478
 9991TIP3   OH251387   2.625   5.321   5.241  0.1022  0.2608 -0.4725
 9991TIP3    H151388   2.551   5.373   5.271 -0.0512  0.5630 -1.3350
 9991TIP3    H251389   2.701   5.377   5.258  0.1970 -0.2647  0.8963
 9992TIP3   OH251390   1.396   2.223   1.739  1.3355  0.6207  0.1114
 9992TIP3    H151391   1.330   2.292   1.747  0.7412 -0.0912  1.8944
 9992TIP3    H251392   1.364   2.168   1.667  0.8609  1.1936 -0.1274
 9993TIP3   OH251393   1.816   2.904   2.769 -0.2358 -0.0917 -0.6366
 9993TIP3    H151394   1.802   2.925   2.862 -0.0472  0.7291 -0.7932
 9993TIP3    H251395   1.770   2.973   2.721 -0.7202 -0.7631 -1.1644
 9994TIP3   OH251396   6.164   2.845   3.410 -0.0712 -0.2280 -0.0220
 9994TIP3    H151397   6.100   2.831   3.340 -1.8952 -0.3746  1.5778
 9994TIP3    H251398   6.113   2.882   3.483  1.5884 -0.7327  1.4867
 9995TIP3   OH251399   0.943   0.759  15.538  0.4598 -0.0901  0.7290
 9995TIP3    H151400   1.009   0.717  15.594 -0.7706 -2.5628  0.4804
 9995TIP3    H251401   0.961   0.726  15.450 -1.4350 -1.4092  0.7586
 9996TIP3   OH251402   4.930   1.103  12.568 -0.1097 -0.0525  0.1486
 9996TIP3    H151403   4.973   1.144  12.643  2.5713 -0.1405 -1.2216
 9996TIP3    H251404   4.929   1.009  12.590 -0.2336  0.0266  0.4852
 9997TIP3   OH251405   1.656   5.966  15.190 -0.0659 -0.0399  0.9150
 9997TIP3    H151406   1.594   5.946  15.260  0.0949 -0.4661  0.9384
 9997TIP3    H251407   1.741   5.940  15.225  0.0492 -0.0165  0.6567
 9998TIP3   OH251408   5.707   5.257  13.460  0.0225 -0.2417 -0.3774
 9998TIP3    H151409   5.715   5.348  13.488 -0.7364  0.5269 -2.4325
 9998TIP3    H251410   5.771   5.248  13.389  1.3983 -1.8925  0.9540
 9999TIP3   OH251411   1.585   3.325   1.078  0.2215 -0.0042  0.2788
 9999TIP3    H151412   1.538   3.272   1.013  0.8590  1.0828 -1.1035
 9999TIP3    H251413   1.546   3.299   1.162 -1.4939 -0.5299 -0.6317
10000TIP3   OH251414   2.479   1.971  15.682  0.3859 -0.3175  0.1078
10000TIP3    H151415   2.527   2.034  15.628 -1.0934  1.4441  0.7257
10000TIP3    H251416   2.420   1.927  15.621  1.0374 -0.7318 -0.2356
10001TIP3   OH251417   2.797   2.382  16.100 -0.7311 -0.0248  0.1469
10001TIP3    H151418   2.730   2.409  16.162 -0.3579  1.7899 -0.1821
10001TIP3    H251419   2.755   2.387  16.015 -0.5544 -0.1509  0.0523
10002TIP3   OH251420   1.271   4.367  14.658  0.0115  0.3495 -0.1059
10002TIP3    H151421   1.207   4.302  14.688 -1.2529  1.0518 -1.1590
10002TIP3    H251422   1.278   4.352  14.564  1.9430 -0.1393  0.0873
10003TIP3   OH251423   3.840   3.522   4.691  0.1553 -0.2358  0.7636
10003TIP3    H151424   3.758   3.523   4.739  0.5926 -2.8051  1.7365
10003TIP3    H251425   3.816   3.542   4.600 -1.7041 -1.8939  0.8431
10004TIP3   OH251426   0.095   5.192   0.398  0.0221  0.3606  0.2230
10004TIP3    H151427   0.155   5.194   0.473  1.0609 -0.6797 -0.5384
10004TIP3    H251428   0.050   5.276   0.400  1.4370  1.1247  0.8838
10005TIP3   OH251429   3.405   2.002  12.891  0.1458 -0.2783  0.0444
10005TIP3    H151430   3.459   1.996  12.970 -1.8878  1.1248  1.6378
10005TIP3    H251431   3.457   2.057  12.832  1.3077 -0.5838  0.7379
10006TIP3   OH251432   4.903   4.223   0.493 -0.1194  0.2219  0.3582
10006TIP3    H151433   4.884   4.142   0.445  1.7083 -1.2866  2.0229
10006TIP3    H251434   4.829   4.234   0.552  0.6840 -1.6210  1.7900
10007TIP3   OH251435   2.543   2.709   6.039 -0.1325  0.1895  0.2115
10007TIP3    H151436   2.548   2.731   5.946  2.1707 -0.3309  0.1612
10007TIP3    H251437   2.463   2.753   6.069 -1.5156 -0.4783 -2.1920
10008TIP3   OH251438   2.847   5.515  15.306  0.0895 -0.6693  0.1609
10008TIP3    H151439   2.933   5.499  15.267 -0.3684  1.2451 -1.8074
10008TIP3    H251440   2.864   5.521  15.400  1.8050 -1.9966 -0.0183
10009TIP3   OH251441   4.976   2.434   4.344  0.6290  0.0958  0.6893
10009TIP3    H151442   4.908   2.497   4.320  0.6497  0.4755  1.6248
10009TIP3    H251443   4.971   2.367   4.275  0.0092  0.6534  0.1808
10010TIP3   OH251444   5.727   4.762   2.176  0.6300 -0.1338 -0.6563
10010TIP3    H151445   5.700   4.852   2.159 -0.0037 -0.4905 -1.6463
10010TIP3    H251446   5.680   4.710   2.110  0.9593 -1.1897 -0.0852
10011TIP3   OH251447   2.046   3.578   0.489 -0.1285  0.0977 -0.1037
10011TIP3    H151448   1.962   3.590   0.534  0.0357 -0.1032  0.2652
10011TIP3    H251449   2.078   3.666   0.474  0.1672  0.1612  0.8525
10012TIP3   OH251450   5.683   3.308   0.971 -0.5317 -0.2211 -0.8362
10012TIP3    H151451   5.604   3.312   1.026  0.0497 -0.5822  0.0424
10012TIP3    H251452   5.739   3.244   1.015  1.8998  2.7761  0.8019
10013TIP3   OH251453   5.064   3.278   1.798 -0.2250 -0.0328 -0.3496
10013TIP3    H151454   5.130   3.262   1.731  0.4394 -0.5872  0.4222
10013TIP3    H251455   5.092   3.358   1.841 -0.0018 -0.3069  0.0257
10014TIP3   OH251456   1.217   3.333   4.739 -1.2304  0.3621 -0.3256
10014TIP3    H151457   1.158   3.376   4.677 -1.7824 -1.1913 -0.9358
10014TIP3    H251458   1.176   3.347   4.824 -1.9567  0.1863 -0.6342
10015TIP3   OH251459   4.991   5.508  16.163  0.0168 -0.6626  0.3925
10015TIP3    H151460   5.066   5.448  16.164 -0.3338 -1.1240 -0.3982
10015TIP3    H251461   5.005   5.564  16.239  0.7662 -1.2353  0.6936
10016TIP3   OH251462   6.184   2.788   2.804  0.1755 -0.3691  0.2674
10016TIP3    H151463   6.128   2.865   2.793  1.4941  0.4386 -1.0734
10016TIP3    H251464   6.172   2.762   2.895  0.0445  1.6970  0.8693
10017TIP3   OH251465   3.193   2.428   4.423 -0.5965  0.0441  0.0399
10017TIP3    H151466   3.192   2.342   4.466  1.7346  0.6136  1.3758
10017TIP3    H251467   3.160   2.488   4.489  2.0857  0.7838  0.8244
10018TIP3   OH251468   4.044   6.172  16.609  0.0994 -0.0269 -0.0514
10018TIP3    H151469   4.066   6.224  16.532  1.2615 -1.3066 -0.6091
10018TIP3    H251470   4.052   6.233  16.682  0.5699  0.7991 -0.7774
10019TIP3   OH251471   5.747   4.299   4.382  0.3811 -0.2332  0.4200
10019TIP3    H151472   5.705   4.378   4.348 -1.1789 -0.3324  1.9731
10019TIP3    H251473   5.840   4.312   4.366  0.4464  2.9295  2.4733
10020TIP3   OH251474   3.593   3.909   5.782  0.2101  0.4206 -0.0917
10020TIP3    H151475   3.687   3.921   5.793  0.2542 -0.2293  0.2871
10020TIP3    H251476   3.566   3.863   5.861 -0.1780 -0.7030 -0.8684
10021TIP3   OH251477   5.875   3.290   0.765 -0.7180  0.9299 -0.0092
10021TIP3    H151478   5.898   3.381   0.749 -0.1541  0.3563 -3.2168
10021TIP3    H251479   5.830   3.291   0.849  2.3419  3.5943  1.8171
10022TIP3   OH251480   2.463   3.148   1.571 -0.3249  0.3668  0.0428
10022TIP3    H151481   2.406   3.215   1.534 -1.2516 -0.7419 -0.5904
10022TIP3    H251482   2.533   3.198   1.614  0.0649  1.7537 -2.0102
10023TIP3   OH251483   5.735   6.486  12.043 -0.4316 -0.0240  0.3462
10023TIP3    H151484   5.824   6.474  12.075 -0.1510 -1.0306 -0.7386
10023TIP3    H251485   5.722   6.581  12.041  0.7240  0.1394  0.2208
10024TIP3   OH251486   4.998   0.579   3.528  0.3114 -0.4121 -0.5306
10024TIP3    H151487   5.037   0.536   3.451 -2.9603  0.0699 -2.6776
10024TIP3    H251488   4.930   0.517   3.557  1.8900 -0.8870  2.5316
10025TIP3   OH251489   0.922   2.626   5.130  0.2487  0.0177  0.4582
10025TIP3    H151490   0.890   2.572   5.202  0.6680  0.6239  1.1006
10025TIP3    H251491   0.885   2.585   5.052 -2.2013  0.7301  1.1502
10026TIP3   OH251492   3.680   2.246  16.574 -0.0467 -0.3776 -0.1077
10026TIP3    H151493   3.652   2.186  16.505 -1.4129 -0.3112  0.3498
10026TIP3    H251494   3.609   2.243  16.639 -0.2815  1.8667 -0.1623
10027TIP3   OH251495   2.536   0.933   5.843  0.4983  0.6931  0.2443
10027TIP3    H151496   2.508   1.022   5.819  0.5244  0.4507 -0.7248
10027TIP3    H251497   2.591   0.945   5.920 -0.3232  1.4180  0.7356
10028TIP3   OH251498   1.739   6.294  13.160 -1.1441  0.2372  0.2662
10028TIP3    H151499   1.689   6.216  13.137  0.5931 -0.8820  0.0529
10028TIP3    H251500   1.830   6.264  13.164 -0.0347  2.7686 -2.3522
10029TIP3   OH251501   5.443   4.536   3.533  0.4130 -0.1950 -0.5203
10029TIP3    H151502   5.378   4.567   3.471  1.3713  0.0120 -1.4508
10029TIP3    H251503   5.430   4.590   3.611 -1.6246 -1.2938 -0.0393
10030TIP3   OH251504   3.547   3.598  14.167 -0.2998  0.3013  0.0620
10030TIP3    H151505   3.527   3.592  14.261  2.1346 -1.4025  0.5656
10030TIP3    H251506   3.506   3.681  14.140 -2.2396  0.1930  2.2734
10031TIP3   OH251507   0.151   6.241  15.190 -0.2128 -0.0013 -0.1314
10031TIP3    H151508   0.075   6.203  15.145  0.7463 -2.0027 -0.1719
10031TIP3    H251509   0.140   6.335  15.179 -2.4842 -0.2371 -0.4611
10032TIP3   OH251510   6.381   5.760  14.688  0.0168  0.5099 -0.7883
10032TIP3    H151511   6.329   5.818  14.743  0.4057 -0.5282  0.7482
10032TIP3    H251512   6.418   5.818  14.621 -1.9957  1.4899 -1.1398
10033TIP3   OH251513   2.889   6.711   5.071  0.5775 -0.7356  0.3540
10033TIP3    H151514   2.899   6.806   5.072 -2.5095 -0.2533 -1.6363
10033TIP3    H251515   2.842   6.691   5.152  1.0361 -0.5244  0.6715
10034TIP3   OH251516   3.601   2.394  13.315  0.0719 -0.3120  0.2221
10034TIP3    H151517   3.693   2.389  13.343  0.0518 -0.2536  0.3004
10034TIP3    H251518   3.582   2.488  13.314  0.0082 -0.3249  0.2229
10035TIP3   OH251519   6.637   6.785  13.904  0.2180  0.5115  0.6126
10035TIP3    H151520   6.658   6.816  13.993  0.7374  0.2122  0.5998
10035TIP3    H251521   6.720   6.789  13.857  0.3978 -1.2558  0.7191
10036TIP3   OH251522   5.926   3.250   0.374  0.1055 -0.1726 -0.6515
10036TIP3    H151523   5.974   3.263   0.292  1.3411  1.1193  0.2165
10036TIP3    H251524   5.983   3.289   0.441 -1.2301 -0.4892  0.7200
10037TIP3   OH251525   0.850   1.889   5.015 -0.0489  0.3016 -0.3535
10037TIP3    H151526   0.850   1.799   4.983 -0.6114 -0.9950  2.9590
10037TIP3    H251527   0.848   1.942   4.935 -0.0913 -2.5742 -2.4260
10038TIP3   OH251528   0.816   1.469  14.355  0.7756 -0.3537 -0.4834
10038TIP3    H151529   0.725   1.499  14.350  0.6235 -0.7083  0.0979
10038TIP3    H251530   0.811   1.376  14.333  0.8623 -0.6049  0.5416
10039TIP3   OH251531   4.625   1.053   0.632 -0.2520  0.3592 -0.1161
10039TIP3    H151532   4.687   1.125   0.624 -0.3499  0.3500 -1.0987
10039TIP3    H251533   4.651   0.991   0.563 -1.3061  0.3371 -0.5194
10040TIP3   OH251534   6.700   5.934   5.397  0.2298  0.1366 -0.3553
10040TIP3    H151535   6.721   5.841   5.394  0.5275  0.1836  0.0482
10040TIP3    H251536   6.752   5.967   5.471  0.6506  0.7490 -0.9194
10041TIP3   OH251537   1.583   5.721  11.333  0.1180  0.5683 -0.1314
10041TIP3    H151538   1.677   5.705  11.337  0.1208  0.7486  0.8227
10041TIP3    H251539   1.552   5.701  11.421 -1.0870 -1.5651 -0.9590
10042TIP3   OH251540   1.227   2.474  14.371 -0.2941  0.1726 -0.4113
10042TIP3    H151541   1.213   2.429  14.454  0.1931  0.3936 -0.1998
10042TIP3    H251542   1.311   2.441  14.340 -0.4262  0.1656 -0.7671
10043TIP3   OH251543   2.301   1.946  15.124  0.0496  0.2336 -0.0396
10043TIP3    H151544   2.352   1.997  15.188  1.4488  0.9014 -1.5965
10043TIP3    H251545   2.243   2.010  15.083 -2.7646 -0.6724  2.2794
10044TIP3   OH251546   4.157   0.698   2.512 -0.2831 -0.8913  0.0516
10044TIP3    H151547   4.222   0.757   2.548  0.4766 -1.2553 -0.7022
10044TIP3    H251548   4.186   0.611   2.539 -1.6589 -0.9268  1.5806
10045TIP3   OH251549   0.136   3.332  15.237  0.2923  0.3732  0.4557
10045TIP3    H151550   0.221   3.287  15.239  0.1911  0.1635  0.0764
10045TIP3    H251551   0.106   3.322  15.147 -0.2574  0.2160  0.6540
10046TIP3   OH251552   1.238   3.383   3.645 -0.1466 -0.4532  0.0187
10046TIP3    H151553   1.210   3.426   3.726  0.3809  0.8529 -0.4672
10046TIP3    H251554   1.162   3.388   3.587 -0.1146 -0.2494 -0.0057
10047TIP3   OH251555   4.251   1.630  14.126 -0.1996  0.0466 -0.0678
10047TIP3    H151556   4.264   1.539  14.150  0.2570  0.0412 -0.3282
10047TIP3    H251557   4.287   1.680  14.199 -0.9751  0.0209  0.3419
10048TIP3   OH251558   2.838   4.345  14.709  0.0757 -0.6988  0.3814
10048TIP3    H151559   2.751   4.305  14.710 -0.6483  0.7545 -0.7927
10048TIP3    H251560   2.822   4.437  14.690  1.8473 -0.2800  0.7146
10049TIP3   OH251561   4.901   2.936   6.131  0.0215 -0.2079 -0.7520
10049TIP3    H151562   4.878   2.906   6.043 -0.3417 -1.4190 -0.2681
10049TIP3    H251563   4.986   2.979   6.120 -0.3949  0.3953 -1.8179
10050TIP3   OH251564   0.343   3.885  17.052 -0.1537  0.8152  0.5164
10050TIP3    H151565   0.395   3.894  17.132 -1.1681  0.9413  1.1784
10050TIP3    H251566   0.408   3.883  16.982  0.9339 -1.6813  1.4758
10051TIP3   OH251567   5.515   1.519  12.215  0.6149  0.4497 -0.2233
10051TIP3    H151568   5.424   1.530  12.189  0.8349  1.3235 -0.6404
10051TIP3    H251569   5.557   1.602  12.193  1.4327  0.1913  0.3073
10052TIP3   OH251570   1.429   5.283  11.647  0.2928  0.4929 -0.2834
10052TIP3    H151571   1.520   5.275  11.620  0.1556 -2.4403 -0.1987
10052TIP3    H251572   1.433   5.294  11.742  0.5469  0.7259 -0.3193
10053TIP3   OH251573   6.025   4.671  10.488 -0.0160 -0.4327  0.2216
10053TIP3    H151574   5.983   4.733  10.548  0.6927  1.0180 -0.7364
10053TIP3    H251575   5.968   4.593  10.491 -0.5683 -0.0237  1.9471
10054TIP3   OH251576   1.836   1.513   4.722 -0.1512 -0.1106  0.0624
10054TIP3    H151577   1.883   1.524   4.640 -0.3624  0.5509  0.0268
10054TIP3    H251578   1.786   1.594   4.732 -1.4041 -0.8467  0.0126
10055TIP3   OH251579   4.647   0.103  14.392  0.3599  0.6325 -0.3447
10055TIP3    H151580   4.611   0.113  14.304 -1.1942  0.3498  0.2367
10055TIP3    H251581   4.708   0.029  14.385 -1.7104 -1.1603 -0.6588
10056TIP3   OH251582   3.446   5.668  12.341  0.8058 -0.0135 -0.2215
10056TIP3    H151583   3.449   5.573  12.329  0.6560  0.0279 -0.5946
10056TIP3    H251584   3.451   5.680  12.436 -2.2646 -0.5345  0.1212
10057TIP3   OH251585   6.314   2.328  13.748 -0.4707 -0.2394 -0.2022
10057TIP3    H151586   6.295   2.306  13.656 -1.3712 -1.9952  0.3637
10057TIP3    H251587   6.402   2.293  13.763 -1.3744 -2.3972  0.3163
10058TIP3   OH251588   2.801   0.680  13.207  0.0199 -0.4111 -0.7436
10058TIP3    H151589   2.741   0.736  13.257  0.6188 -0.1941 -0.2464
10058TIP3    H251590   2.875   0.666  13.266  1.0483  0.3766 -1.7932
10059TIP3   OH251591   5.522   0.034  10.411  0.1990 -0.3608 -0.1337
10059TIP3    H151592   5.463  -0.022  10.460  0.3681  1.5834  2.4881
10059TIP3    H251593   5.466   0.083  10.351 -0.7899  0.7486  1.6285
10060TIP3   OH251594   4.950   6.390  13.588  0.2595  0.0330  0.3769
10060TIP3    H151595   5.024   6.428  13.541  0.6939 -0.5476  0.5760
10060TIP3    H251596   4.926   6.313  13.536  0.5980 -0.4841  0.9700
10061TIP3   OH251597   1.865   0.785  12.015 -0.3499  0.3278 -0.5523
10061TIP3    H151598   1.924   0.710  12.009 -1.4269 -0.4936 -1.3892
10061TIP3    H251599   1.905   0.851  11.958  0.3358  0.1976 -0.2296
10062TIP3   OH251600   2.776   3.104  15.747 -0.1642 -0.5879  0.0540
10062TIP3    H151601   2.746   3.170  15.809  1.0836 -0.9624  1.1119
10062TIP3    H251602   2.711   3.035  15.752  0.3119 -0.9754  1.5897
10063TIP3   OH251603   2.357   6.092   2.592  0.0654  0.9919 -0.0787
10063TIP3    H151604   2.292   6.026   2.569 -0.0223  0.0479  2.5619
10063TIP3    H251605   2.335   6.168   2.537 -2.7101  0.4183  0.0983
10064TIP3   OH251606   2.403   1.911  14.573 -0.0860  0.0892  0.7409
10064TIP3    H151607   2.412   1.982  14.509  0.4662 -0.6103  0.0178
10064TIP3    H251608   2.460   1.936  14.645  2.3043 -0.8648 -0.6911
10065TIP3   OH251609   2.706   4.470  15.034  0.2635  0.1641  0.4018
10065TIP3    H151610   2.691   4.562  15.017  0.9550  0.7061  2.4087
10065TIP3    H251611   2.801   4.459  15.027  0.2908 -0.1580  1.1127
10066TIP3   OH251612   1.732   2.460   2.623  0.2562  0.8232  0.2522
10066TIP3    H151613   1.823   2.468   2.593  0.6403 -0.6197  0.9405
10066TIP3    H251614   1.730   2.507   2.706  0.6677  0.0000  0.7489
10067TIP3   OH251615   5.668   2.176   1.357 -0.2476  0.0521 -0.3567
10067TIP3    H151616   5.649   2.137   1.272 -0.1496  0.1950 -0.4442
10067TIP3    H251617   5.611   2.129   1.418 -1.5812  1.0980 -0.7414
10068TIP3   OH251618   4.249   1.589   3.465 -1.0347 -0.1661 -0.2262
10068TIP3    H151619   4.262   1.544   3.548  0.9302 -0.7583 -0.8167
10068TIP3    H251620   4.199   1.667   3.489  0.2858  0.1792  1.6851
10069TIP3   OH251621   3.098   2.511  13.423  0.4996 -0.3461 -0.3812
10069TIP3    H151622   3.066   2.421  13.411  1.1560 -0.7896  1.0277
10069TIP3    H251623   3.182   2.501  13.467  1.7089  0.8836 -2.2621
10070TIP3   OH251624   4.440   5.069   5.113  0.3836  0.0887 -0.3065
10070TIP3    H151625   4.451   4.974   5.106  0.3279 -0.0712  1.4566
10070TIP3    H251626   4.516   5.099   5.163  0.6072  1.0524 -1.1796
10071TIP3   OH251627   5.602   3.912   5.761  0.0241  0.1891 -0.3046
10071TIP3    H151628   5.522   3.943   5.803  0.0990 -0.4202  0.2966
10071TIP3    H251629   5.591   3.935   5.669 -1.2923 -0.7592 -0.4160
10072TIP3   OH251630   5.322   5.543  15.071 -0.2870 -0.0598  0.2162
10072TIP3    H151631   5.294   5.489  15.145 -0.8075 -2.2846 -1.4860
10072TIP3    H251632   5.256   5.526  15.004 -0.6071  2.9658 -0.3572
10073TIP3   OH251633   1.193   0.297  15.430  0.4459 -0.3028 -0.2534
10073TIP3    H151634   1.150   0.216  15.459 -0.3319  0.4744  0.8525
10073TIP3    H251635   1.202   0.287  15.336 -1.3119 -0.9093 -0.3873
10074TIP3   OH251636   5.959   1.308   5.779 -0.3510  0.0071 -0.0659
10074TIP3    H151637   5.929   1.313   5.688 -0.1036  1.6930 -0.1004
10074TIP3    H251638   5.884   1.273   5.828 -0.9735  0.3763 -0.7316
10075TIP3   OH251639   1.770   0.783   6.258  0.0412 -0.6857 -0.5310
10075TIP3    H151640   1.838   0.850   6.267  0.0760 -0.7836 -0.0391
10075TIP3    H251641   1.730   0.777   6.345  0.1290 -1.4009 -0.5310
10076TIP3   OH251642   0.021   2.505  13.602 -0.7734  0.5690  0.5047
10076TIP3    H151643   0.066   2.423  13.580 -0.4704  1.3042 -1.9285
10076TIP3    H251644  -0.072   2.485  13.592 -0.8396  0.0572  1.8469
10077TIP3   OH251645   3.947   2.804   4.725  0.2355 -0.3817  0.1932
10077TIP3    H151646   3.904   2.720   4.705  0.0506  0.0822 -1.4758
10077TIP3    H251647   3.952   2.849   4.641  1.0260  0.9768  0.9394
10078TIP3   OH251648   2.155   3.727  12.551 -0.2997  0.0806 -0.0623
10078TIP3    H151649   2.119   3.806  12.591  0.3901 -0.1077  0.9629
10078TIP3    H251650   2.149   3.660  12.619  1.3840 -0.1109 -0.0558
10079TIP3   OH251651   3.417   1.601   0.596 -0.2898  0.2307 -0.6445
10079TIP3    H151652   3.448   1.668   0.535 -0.0305  0.9593  0.2766
10079TIP3    H251653   3.473   1.610   0.673 -2.7965  1.6992  1.1404
10080TIP3   OH251654   6.381   6.460  14.220 -0.2451 -0.4712  0.0733
10080TIP3    H151655   6.349   6.403  14.150 -0.8460 -2.5309  1.9161
10080TIP3    H251656   6.476   6.455  14.215 -0.2764 -0.3058 -0.7935
10081TIP3   OH251657   2.040   6.745   0.367  0.4260 -0.1537 -0.3634
10081TIP3    H151658   2.062   6.805   0.296 -2.9882  1.4931 -0.2140
10081TIP3    H251659   1.998   6.800   0.433 -0.7382 -2.3318  0.8464
10082TIP3   OH251660   3.632   2.964  15.951 -0.0430 -0.6507  0.0198
10082TIP3    H151661   3.608   2.951  15.859  1.4288 -3.1513 -0.0797
10082TIP3    H251662   3.721   2.998  15.948 -1.0636  2.4030  0.5447
10083TIP3   OH251663   4.695   2.932  13.612  0.0577  0.2422 -0.4543
10083TIP3    H151664   4.703   2.909  13.704  0.0193  0.8599 -0.2904
10083TIP3    H251665   4.739   3.017  13.604  2.9518 -1.2391 -1.6598
10084TIP3   OH251666   2.183   3.796   1.182  0.0929 -0.3141  0.0622
10084TIP3    H151667   2.267   3.758   1.208  0.2010  0.0719  0.2836
10084TIP3    H251668   2.124   3.721   1.177  0.7367 -0.7555 -1.2866
10085TIP3   OH251669   2.719   3.220   3.046  0.6962 -0.3133  0.4506
10085TIP3    H151670   2.675   3.269   2.976  0.6225 -0.7920  0.1603
10085TIP3    H251671   2.788   3.171   3.001 -0.1583 -1.6185  0.5041
10086TIP3   OH251672   3.636   1.252  14.385  0.2080 -0.0821  0.5065
10086TIP3    H151673   3.543   1.273  14.395  0.4328  0.9805  0.5459
10086TIP3    H251674   3.652   1.183  14.449 -0.4300  0.1261  0.9009
10087TIP3   OH251675   0.026   3.027   1.353 -0.3780  0.2534 -0.3762
10087TIP3    H151676  -0.065   3.016   1.382 -0.8511 -0.1362 -1.9179
10087TIP3    H251677   0.030   2.983   1.268  0.9552  1.2987 -0.8973
10088TIP3   OH251678   4.898   2.909  13.346  0.9051 -0.1401  0.2865
10088TIP3    H151679   4.962   2.891  13.277 -0.8639 -1.3476 -1.1418
10088TIP3    H251680   4.947   2.899  13.428  3.0109  1.0866 -0.7471
10089TIP3   OH251681   5.766   0.332  16.027  0.3384  0.4521 -0.2250
10089TIP3    H151682   5.740   0.403  16.087 -0.8935 -0.4870  0.4007
10089TIP3    H251683   5.736   0.252  16.071 -0.5944 -0.2734 -2.1073
10090TIP3   OH251684   5.773   4.182  12.467  0.2084 -0.7487  0.1420
10090TIP3    H151685   5.732   4.252  12.417  0.2609  0.2300  1.4244
10090TIP3    H251686   5.866   4.191  12.449  0.2791 -0.0602  0.8003
10091TIP3   OH251687   3.432   1.774  12.298 -0.1508 -0.1402 -0.6842
10091TIP3    H151688   3.437   1.693  12.247 -0.9791 -1.3128  0.9721
10091TIP3    H251689   3.345   1.809  12.278 -3.1082 -3.5881  3.7797
10092TIP3   OH251690   5.008   5.141  15.735  0.1857  0.2503 -0.1340
10092TIP3    H151691   5.101   5.132  15.712 -0.2221 -0.0867 -1.8145
10092TIP3    H251692   5.005   5.218  15.792  1.7763 -1.1658  2.0094
10093TIP3   OH251693   0.095   5.210   6.227  0.9741  0.2014 -0.1241
10093TIP3    H151694   0.035   5.242   6.160  0.1999 -0.6725  0.1395
10093TIP3    H251695   0.079   5.116   6.232  3.1178 -0.2770 -0.8026
10094TIP3   OH251696   1.956   4.739  16.743 -0.3660 -0.2925 -0.3164
10094TIP3    H151697   1.893   4.714  16.674 -1.4253 -0.5880  0.7249
10094TIP3    H251698   1.960   4.834  16.739  1.9961 -0.3616 -2.8345
10095TIP3   OH251699   0.375   5.158   2.363  0.0372 -0.1168  0.6163
10095TIP3    H151700   0.385   5.068   2.394  1.9224 -0.6392 -1.2821
10095TIP3    H251701   0.363   5.210   2.442  0.9666 -1.8029  1.9092
10096TIP3   OH251702   6.474   6.618  16.126  0.1894  0.4971 -0.2461
10096TIP3    H151703   6.544   6.682  16.137 -0.4841  1.0546  0.9672
10096TIP3    H251704   6.505   6.561  16.055  1.2588  1.5291 -0.6443
10097TIP3   OH251705   2.441   4.577  12.725  0.1061 -0.6983 -0.1806
10097TIP3    H151706   2.371   4.574  12.661  1.2239  0.1699 -1.4947
10097TIP3    H251707   2.473   4.487  12.731 -0.4446 -0.9049 -0.3168
10098TIP3   OH251708   1.348   4.821   0.817 -0.5567 -0.0144 -0.4874
10098TIP3    H151709   1.263   4.863   0.805 -1.9461 -2.3999  0.3057
10098TIP3    H251710   1.337   4.734   0.779  1.3945 -0.5538  0.0858
10099TIP3   OH251711   2.450   2.114  16.390  0.1142  0.2721  0.1456
10099TIP3    H151712   2.423   2.205  16.382  0.8135  0.5111  0.5157
10099TIP3    H251713   2.538   2.117  16.426  0.6717 -0.5031 -1.0819
10100TIP3   OH251714   1.891   4.958   0.266 -0.0728 -0.6315  0.3274
10100TIP3    H151715   1.978   4.919   0.277 -0.3066 -0.7221  2.2110
10100TIP3    H251716   1.831   4.884   0.278 -0.4479 -0.2825  0.5796
10101TIP3   OH251717   1.621   1.629  10.739  0.1620 -0.3385 -0.2948
10101TIP3    H151718   1.603   1.572  10.664  0.1644  0.9656 -1.3123
10101TIP3    H251719   1.712   1.657  10.727 -0.0769  0.4893 -0.2349
10102TIP3   OH251720   6.747   3.189   6.481  0.2391  0.4637 -0.1740
10102TIP3    H151721   6.765   3.103   6.520  0.9495  0.9451  0.6005
10102TIP3    H251722   6.674   3.174   6.422  0.1749 -0.6210  0.1611
10103TIP3   OH251723   5.682   6.156  13.936 -0.1271  0.2850 -0.1479
10103TIP3    H151724   5.648   6.192  13.854  0.6305  0.6681 -0.3100
10103TIP3    H251725   5.776   6.146  13.920  0.3973  2.2516  1.3213
10104TIP3   OH251726   0.846   2.847  13.418 -0.0555 -0.1478  0.4122
10104TIP3    H151727   0.908   2.783  13.382  0.7501 -0.1377  1.7429
10104TIP3    H251728   0.844   2.829  13.512 -3.1603 -1.0751  0.2929
10105TIP3   OH251729   2.268   0.514  13.899  0.0251  0.1766  0.0672
10105TIP3    H151730   2.283   0.433  13.948 -1.0838 -0.5196 -0.6969
10105TIP3    H251731   2.355   0.550  13.884  0.5246 -0.7825  0.5738
10106TIP3   OH251732   5.697   4.180   3.603 -0.0833 -0.5987 -0.4959
10106TIP3    H151733   5.663   4.223   3.525 -1.3886 -1.6811 -0.5581
10106TIP3    H251734   5.632   4.198   3.671  1.7071  1.5152  0.7860
10107TIP3   OH251735   2.033   3.387   0.784  1.0283  0.1462 -0.2195
10107TIP3    H151736   2.115   3.379   0.736  0.2849  0.1051 -1.5096
10107TIP3    H251737   2.012   3.480   0.780 -0.4563 -0.2162 -2.4681
10108TIP3   OH251738   0.808   2.241  11.322 -0.0245 -0.1149  0.1194
10108TIP3    H151739   0.751   2.231  11.399  0.2917 -0.2662  0.3375
10108TIP3    H251740   0.791   2.331  11.292 -0.7251 -0.3146 -0.1054
10109TIP3   OH251741   6.661   4.128   1.448  0.0482 -0.1768 -0.2080
10109TIP3    H151742   6.636   4.195   1.385 -0.1021 -1.3996 -1.5025
10109TIP3    H251743   6.594   4.131   1.516 -0.2278  0.6311 -0.5102
10110TIP3   OH251744   4.520   2.773  14.295 -0.1424  0.3074  0.7854
10110TIP3    H151745   4.577   2.766  14.371  0.8104  1.8940  0.2654
10110TIP3    H251746   4.576   2.811  14.227 -1.0643 -0.7087 -0.6096
10111TIP3   OH251747   1.317   6.360   5.527 -0.2041 -0.1823 -0.1312
10111TIP3    H151748   1.377   6.435   5.527 -0.4612  0.0298  0.1572
10111TIP3    H251749   1.249   6.385   5.590  0.8734 -1.5869  1.6833
10112TIP3   OH251750   3.324   2.588  16.718  0.5609  0.5359  0.2162
10112TIP3    H151751   3.275   2.665  16.746  0.1335 -0.1199  1.3396
10112TIP3    H251752   3.259   2.519  16.711  1.1617 -0.0890  0.6651
10113TIP3   OH251753   5.330   0.448   5.573  1.0970 -0.1139  0.2913
10113TIP3    H151754   5.319   0.540   5.547  2.1162 -0.0399  0.0758
10113TIP3    H251755   5.255   0.430   5.630  0.6963  0.7444  0.0526
10114TIP3   OH251756   4.788   5.296   0.207 -0.3484  0.3328 -0.0757
10114TIP3    H151757   4.774   5.352   0.130  1.2585  3.4422  1.6694
10114TIP3    H251758   4.710   5.309   0.261 -0.5506 -0.1683 -0.2469
10115TIP3   OH251759   5.936   1.425  12.072 -0.8975 -0.6364 -0.0067
10115TIP3    H151760   5.943   1.433  11.977 -0.2257 -0.7250  0.0349
10115TIP3    H251761   5.947   1.332  12.090  1.2206 -0.3596  0.3342
10116TIP3   OH251762   3.191   1.410  12.831  0.2687  0.2512  0.3460
10116TIP3    H151763   3.176   1.494  12.788  0.0690  0.2116  0.3374
10116TIP3    H251764   3.274   1.421  12.877  0.9483  0.0100 -0.7782
10117TIP3   OH251765   4.129   3.379   0.274  0.2553  0.1951 -0.6746
10117TIP3    H151766   4.077   3.299   0.273 -0.9688  0.6815  3.4243
10117TIP3    H251767   4.219   3.348   0.286 -0.0646 -0.5995 -0.2375
10118TIP3   OH251768   4.531   6.215   4.906  0.1180  0.4097 -0.7517
10118TIP3    H151769   4.524   6.286   4.843  0.4279  1.0486 -0.0888
10118TIP3    H251770   4.612   6.234   4.954 -0.7324  0.6151  0.6469
10119TIP3   OH251771   0.968   3.055   2.556  0.2398 -0.5444 -0.6184
10119TIP3    H151772   0.899   3.022   2.614 -0.8280  0.4745 -1.2591
10119TIP3    H251773   1.048   3.047   2.607 -0.6779  0.4065  1.0671
10120TIP3   OH251774   6.374   4.439   4.789  0.2510  0.5132 -0.4571
10120TIP3    H151775   6.378   4.416   4.696 -1.6837 -1.3499 -0.1565
10120TIP3    H251776   6.301   4.500   4.795  0.3327  0.5806 -0.1528
10121TIP3   OH251777   0.467   5.280  16.365  0.2901  0.5584 -0.0404
10121TIP3    H151778   0.509   5.194  16.373 -0.3111  0.3324  0.7585
10121TIP3    H251779   0.516   5.336  16.425 -0.9713  0.1113  1.4831
10122TIP3   OH251780   3.080   1.554   0.660 -0.3320  0.3359 -0.3245
10122TIP3    H151781   3.056   1.642   0.691  0.7173  0.8037 -0.7695
10122TIP3    H251782   3.027   1.542   0.581 -1.1827  0.1686  0.2675
10123TIP3   OH251783   2.844   3.771  11.043 -0.8093 -0.6083  0.0581
10123TIP3    H151784   2.788   3.841  11.078  1.4340  1.2644  0.0920
10123TIP3    H251785   2.870   3.801  10.957 -0.0823 -1.5791 -0.0842
10124TIP3   OH251786   3.316   4.366  14.428 -0.0797 -0.2952 -0.2950
10124TIP3    H151787   3.408   4.357  14.449 -0.1591  0.2338  0.2802
10124TIP3    H251788   3.305   4.458  14.405 -0.5398 -0.2705  0.0120
10125TIP3   OH251789   0.035   1.496  14.481  0.4552  0.0341  0.4187
10125TIP3    H151790   0.026   1.499  14.385 -0.0669  1.3716  0.4921
10125TIP3    H251791   0.129   1.501  14.497  0.5192  0.2201 -0.0066
10126TIP3   OH251792   6.621   5.152  11.003 -0.2362 -0.2408  0.1790
10126TIP3    H151793   6.714   5.169  10.986 -0.4613  0.6204 -0.2405
10126TIP3    H251794   6.610   5.175  11.096 -0.1516  0.1707  0.0865
10127TIP3   OH251795   4.700   2.840  14.828  1.1170  0.1112 -0.1315
10127TIP3    H151796   4.646   2.776  14.781  1.5818 -1.6610  1.6073
10127TIP3    H251797   4.789   2.806  14.819  1.4228  0.7429  0.4868
10128TIP3   OH251798   6.213   3.694   5.399 -0.7510  0.3658  0.1115
10128TIP3    H151799   6.150   3.740   5.453 -1.3243 -0.3973  0.1111
10128TIP3    H251800   6.165   3.674   5.318 -1.3251 -2.3159  1.0210
10129TIP3   OH251801   3.165   3.211   2.535  0.3629  0.0445  0.4851
10129TIP3    H151802   3.195   3.125   2.507 -2.6414 -0.7893 -0.6134
10129TIP3    H251803   3.115   3.245   2.461 -1.5388  1.1009  2.1381
10130TIP3   OH251804   4.726   3.382   1.469  0.2603  0.0035 -0.5891
10130TIP3    H151805   4.785   3.457   1.466  0.7517 -0.3957 -2.1803
10130TIP3    H251806   4.653   3.408   1.412  0.3609 -0.6561 -1.0241
10131TIP3   OH251807   2.799   1.712   0.087  0.4899  0.2328 -0.3077
10131TIP3    H151808   2.886   1.674   0.099 -0.1792 -1.0597  0.6768
10131TIP3    H251809   2.766   1.725   0.176 -0.6511 -0.0630 -0.6806
10132TIP3   OH251810   6.242   4.759   2.682  0.0299  0.4836  0.2336
10132TIP3    H151811   6.181   4.689   2.705 -1.0265  0.9417 -1.0485
10132TIP3    H251812   6.283   4.784   2.765 -1.5975  0.2252  1.1518
10133TIP3   OH251813   4.335   6.338   5.113  0.7201 -0.1634  0.0827
10133TIP3    H151814   4.295   6.276   5.052 -2.7883  1.1674  0.7890
10133TIP3    H251815   4.417   6.365   5.070  0.3325 -2.1581 -2.1170
10134TIP3   OH251816   0.510   1.036  11.696 -0.1453  0.2245  0.5034
10134TIP3    H151817   0.487   1.129  11.701  1.6682  0.7727 -0.3280
10134TIP3    H251818   0.475   1.008  11.611  1.7725  0.9681 -0.6063
10135TIP3   OH251819   2.151   1.658   3.142  0.2570 -0.1147 -0.0241
10135TIP3    H151820   2.076   1.704   3.105 -0.7378 -0.4509  1.4843
10135TIP3    H251821   2.177   1.710   3.217 -0.8828 -1.8996  1.7076
10136TIP3   OH251822   1.142   2.475   1.019 -0.2777  0.4030 -0.2030
10136TIP3    H151823   1.063   2.493   0.968 -0.0359 -0.2087 -0.8171
10136TIP3    H251824   1.185   2.560   1.026 -0.8221  0.6793 -0.1499
10137TIP3   OH251825   4.763   3.636  10.769  0.1409  0.5845 -0.1204
10137TIP3    H151826   4.739   3.561  10.824  2.5447  0.2010  0.5014
10137TIP3    H251827   4.686   3.648  10.712 -0.2066 -2.6447 -0.5771
10138TIP3   OH251828   6.568   0.761  14.123 -0.9032 -0.2063  0.4179
10138TIP3    H151829   6.602   0.686  14.074  0.3865 -0.2122  1.2773
10138TIP3    H251830   6.482   0.778  14.084 -1.2786 -2.1882  0.2728
10139TIP3   OH251831   5.981   5.336   2.903  0.0654 -0.0201  0.1185
10139TIP3    H151832   6.063   5.385   2.908 -0.9178  1.7217 -0.1466
10139TIP3    H251833   5.933   5.362   2.982 -0.3249 -0.8693  0.1688
10140TIP3   OH251834   3.853   3.519   6.514  0.9438 -0.0861  0.1344
10140TIP3    H151835   3.847   3.435   6.469 -1.2928  0.3932 -0.5919
10140TIP3    H251836   3.835   3.498   6.606 -3.7507 -0.0895 -0.5437
10141TIP3   OH251837   3.407   4.067  13.498  0.0491 -0.6814  0.2012
10141TIP3    H151838   3.379   4.065  13.407 -0.4131 -2.4973  0.3602
10141TIP3    H251839   3.496   4.033  13.496 -0.1344 -1.1786  0.4827
10142TIP3   OH251840   4.140   6.518   1.218 -0.3975 -0.2522 -0.3952
10142TIP3    H151841   4.216   6.487   1.269  0.1417  0.3594 -0.8104
10142TIP3    H251842   4.065   6.479   1.262  0.0529  0.2370  0.8772
10143TIP3   OH251843   5.613   5.833  15.189 -0.3039  0.7225 -0.1017
10143TIP3    H151844   5.604   5.918  15.145  1.4868  1.1814  0.3402
10143TIP3    H251845   5.641   5.855  15.278  0.2373 -0.3250 -0.0014
10144TIP3   OH251846   3.247   6.276  11.597  0.3005 -0.2268  0.2859
10144TIP3    H151847   3.269   6.366  11.622  0.0664 -0.3974  1.1591
10144TIP3    H251848   3.162   6.284  11.553  0.1365 -0.0446  0.6232
10145TIP3   OH251849   5.970   5.415  14.224  0.1792 -0.1503  0.1602
10145TIP3    H151850   5.925   5.350  14.170  0.7597 -0.6336  0.2458
10145TIP3    H251851   5.939   5.499  14.191  0.1344 -0.4459 -0.5800
10146TIP3   OH251852   6.461   6.611   3.227 -0.0347  0.2370 -0.0437
10146TIP3    H151853   6.513   6.598   3.306 -0.5378 -2.0260 -0.0067
10146TIP3    H251854   6.489   6.541   3.168  0.3791  1.9031 -1.9406
10147TIP3   OH251855   0.328   4.380   5.015  0.0588  0.3695  0.2338
10147TIP3    H151856   0.266   4.320   4.974 -2.1374  2.4178  0.3240
10147TIP3    H251857   0.413   4.354   4.981 -1.0970 -1.1533 -1.7037
10148TIP3   OH251858   0.624   2.577   5.499  0.5227  0.0346 -0.3009
10148TIP3    H151859   0.646   2.502   5.444 -2.5371 -1.4337  0.2819
10148TIP3    H251860   0.615   2.540   5.587 -1.2336  1.0144 -0.0405
10149TIP3   OH251861   2.370   4.032   3.968 -0.2344  0.0815  0.7242
10149TIP3    H151862   2.281   4.067   3.972 -0.1750  0.1930  1.0967
10149TIP3    H251863   2.400   4.032   4.059 -0.2673 -1.0187  0.7490
10150TIP3   OH251864   3.744   6.054  15.437  0.1971  0.0603  0.4365
10150TIP3    H151865   3.690   5.976  15.449  1.4200 -0.8195  0.3931
10150TIP3    H251866   3.682   6.123  15.412 -0.7382 -1.2226 -0.9080
10151TIP3   OH251867   6.345   6.781   4.864  0.0188  0.4832  0.0696
10151TIP3    H151868   6.311   6.707   4.814 -0.2677  0.9212 -0.3911
10151TIP3    H251869   6.391   6.740   4.937  0.2638 -0.1588 -0.4283
10152TIP3   OH251870   3.084   1.297   5.793  0.0605 -0.5373 -0.3301
10152TIP3    H151871   3.021   1.287   5.865  0.5916  0.2003  0.2592
10152TIP3    H251872   3.132   1.214   5.790  0.3275 -0.4180  0.4636
10153TIP3   OH251873   3.061   1.496   4.786  0.5886 -0.1609  0.8606
10153TIP3    H151874   2.980   1.522   4.740  0.2503 -2.3868  0.0891
10153TIP3    H251875   3.046   1.521   4.877 -0.5613  0.3721  0.5436
10154TIP3   OH251876   3.799   2.167  16.244 -0.1355 -0.6732 -0.0458
10154TIP3    H151877   3.883   2.211  16.233  0.2938 -1.8117 -1.6162
10154TIP3    H251878   3.820   2.074  16.242 -1.4187 -0.9764 -0.4191
10155TIP3   OH251879   0.080   4.321   1.502 -0.4508 -0.2522 -0.1113
10155TIP3    H151880   0.017   4.260   1.463  0.3180 -1.9431  1.1387
10155TIP3    H251881   0.080   4.396   1.443 -0.2705 -2.1217 -2.6950
10156TIP3   OH251882   2.687   1.639  17.121 -0.3046 -0.9169  0.6673
10156TIP3    H151883   2.593   1.643  17.142 -0.0806 -0.3975  1.6618
10156TIP3    H251884   2.728   1.695  17.188  0.6624 -0.7354 -0.0625
10157TIP3   OH251885   1.348   2.235   2.605 -0.2410  0.5061 -0.1583
10157TIP3    H151886   1.367   2.326   2.582 -3.0010  1.1175 -0.3563
10157TIP3    H251887   1.263   2.238   2.649 -0.4560 -1.9964 -0.2313
10158TIP3   OH251888   0.138   3.320   0.176  0.0624  0.7227  0.2212
10158TIP3    H151889   0.140   3.325   0.271 -0.8332 -1.4088  0.4097
10158TIP3    H251890   0.113   3.408   0.148  0.1005  1.3212  1.9479
10159TIP3   OH251891   3.775   5.728   5.343 -0.5951 -0.4091  0.1680
10159TIP3    H151892   3.845   5.669   5.372  0.3712 -0.1857 -1.5709
10159TIP3    H251893   3.749   5.694   5.258 -0.8713  0.9534 -0.3202
10160TIP3   OH251894   1.392   1.794   3.691  0.4430  0.0837 -0.3288
10160TIP3    H151895   1.327   1.768   3.625 -1.4697  1.6256  0.8076
10160TIP3    H251896   1.415   1.884   3.668  0.0554  0.5001  0.8343
10161TIP3   OH251897   0.398   1.396   5.859 -0.4285  0.0432  0.4350
10161TIP3    H151898   0.492   1.378   5.867 -0.6315 -1.2433  0.1170
10161TIP3    H251899   0.389   1.441   5.775 -0.3106 -1.7060 -0.5747
10162TIP3   OH251900   0.974   5.712   3.495  0.0016  0.2054 -0.6902
10162TIP3    H151901   1.033   5.705   3.570  0.5596  0.9480 -1.0399
10162TIP3    H251902   1.007   5.648   3.432  1.0531  1.2637 -1.2645
10163TIP3   OH251903   3.396   4.034  13.229  0.1376 -0.7781 -0.0766
10163TIP3    H151904   3.480   3.999  13.198  0.4460  0.6816 -0.9918
10163TIP3    H251905   3.398   4.127  13.205 -1.8769 -0.7669 -0.4267
10164TIP3   OH251906   5.083   2.814  10.809  0.1751 -0.4558 -0.5264
10164TIP3    H151907   5.034   2.852  10.736  0.8070 -2.1333 -1.9018
10164TIP3    H251908   5.172   2.848  10.799 -0.5481  2.7286  2.0709
10165TIP3   OH251909   1.936   1.222  14.237  0.2372 -0.5787 -0.7539
10165TIP3    H151910   2.012   1.210  14.180  0.9051 -0.4696  0.0857
10165TIP3    H251911   1.956   1.302  14.287  0.0884 -1.1695  0.2770
10166TIP3   OH251912   4.179   3.111   0.634 -0.1702 -0.1709  0.7035
10166TIP3    H151913   4.239   3.185   0.645  0.8280 -1.0181  1.0987
10166TIP3    H251914   4.210   3.067   0.554 -0.3696 -0.5258  0.8196
10167TIP3   OH251915   5.080   2.429  12.559  0.0373  0.5960  0.4362
10167TIP3    H151916   5.016   2.500  12.559 -0.0475  0.5572 -1.0119
10167TIP3    H251917   5.049   2.369  12.626 -1.4943  0.5482 -0.2665
10168TIP3   OH251918   5.951   1.568   1.554 -1.1869  0.1317 -0.0731
10168TIP3    H151919   6.021   1.620   1.514 -2.2666  1.6732 -0.0591
10168TIP3    H251920   5.970   1.572   1.648 -1.5652  1.0177 -0.0207
10169TIP3   OH251921   3.204   4.314  13.295 -0.5538  0.0523 -0.2111
10169TIP3    H151922   3.210   4.273  13.382 -1.5139  1.7089  0.6787
10169TIP3    H251923   3.290   4.355  13.282 -0.1143 -0.9019 -0.4461
10170TIP3   OH251924   2.084   5.246  11.709  0.1046 -0.0932 -0.2354
10170TIP3    H151925   2.179   5.257  11.696  0.1677  0.4142  0.5719
10170TIP3    H251926   2.077   5.162  11.754  0.2271  0.1440  0.2364
10171TIP3   OH251927   3.262   2.659  16.199  0.1688 -0.5362 -0.2128
10171TIP3    H151928   3.295   2.739  16.159 -1.1497  0.6639  0.9377
10171TIP3    H251929   3.170   2.655  16.172 -0.2332 -0.7155  1.0968
10172TIP3   OH251930   6.594   1.066  13.396 -0.5887 -0.0645 -0.2775
10172TIP3    H151931   6.532   0.993  13.404  0.3363 -0.7231  1.4926
10172TIP3    H251932   6.627   1.060  13.307 -2.5356 -0.1147 -1.0459
10173TIP3   OH251933   5.450   3.348  14.596 -0.0242  0.1274 -0.2989
10173TIP3    H151934   5.490   3.327  14.511  0.4717  0.5214 -0.1638
10173TIP3    H251935   5.423   3.439  14.588  1.1805  0.5725  0.3972
10174TIP3   OH251936   2.899   1.559   3.367 -0.2106  0.9087 -0.0664
10174TIP3    H151937   2.836   1.514   3.424 -0.5139  0.3022 -0.8621
10174TIP3    H251938   2.970   1.585   3.426 -0.8338  0.8960  0.7048
10175TIP3   OH251939   6.638   5.594   2.245  0.1267 -0.0430  0.5090
10175TIP3    H151940   6.613   5.636   2.163 -2.3865 -1.4879  0.4299
10175TIP3    H251941   6.688   5.517   2.219  0.7446  0.3839  0.4246
10176TIP3   OH251942   5.578   5.065  15.649 -0.1065 -0.1210  0.5018
10176TIP3    H151943   5.529   5.001  15.598  0.6219  0.1450 -0.5524
10176TIP3    H251944   5.569   5.147  15.601 -0.7696  0.5195  1.6715
10177TIP3   OH251945   2.080   5.559   0.737  0.1829 -0.4444 -0.6673
10177TIP3    H151946   2.134   5.495   0.693 -0.6634 -2.4642  1.0374
10177TIP3    H251947   1.997   5.513   0.754 -0.8372  1.4373 -0.2767
10178TIP3   OH251948   4.606   0.818   2.983 -0.8926 -0.1819 -0.2164
10178TIP3    H151949   4.629   0.891   3.041 -0.8018 -1.5074  1.4658
10178TIP3    H251950   4.527   0.848   2.938 -0.4361  1.2439 -0.1469
10179TIP3   OH251951   4.733   1.601   6.520  0.3074 -0.2985 -0.4408
10179TIP3    H151952   4.661   1.570   6.464  0.8408  0.1801 -1.4046
10179TIP3    H251953   4.689   1.633   6.599 -0.3901 -1.8846 -0.1400
10180TIP3   OH251954   5.656   2.590   1.091 -0.5494  0.4848 -0.0214
10180TIP3    H151955   5.657   2.501   1.054 -0.2748 -0.7491  2.7208
10180TIP3    H251956   5.747   2.608   1.112 -0.6500  1.3220 -0.2567
10181TIP3   OH251957   4.421   3.568   3.216  0.4797  0.2467  0.5240
10181TIP3    H151958   4.436   3.579   3.310 -1.3988  0.4806  0.8379
10181TIP3    H251959   4.504   3.591   3.176  1.7018 -0.9758  2.1783
10182TIP3   OH251960   4.553   0.306  14.612  0.6051 -0.3003 -0.6046
10182TIP3    H151961   4.480   0.277  14.556  0.8508  0.0922 -1.1372
10182TIP3    H251962   4.627   0.314  14.552  0.6188  1.1442 -0.4337
10183TIP3   OH251963   1.464   6.486   2.905 -0.3321 -0.5942 -0.1557
10183TIP3    H151964   1.482   6.580   2.902 -1.1484 -0.3139  2.0531
10183TIP3    H251965   1.551   6.445   2.910  0.0187  0.0490 -0.9847
10184TIP3   OH251966   2.899   4.901   4.794 -0.1634 -0.2825 -0.0740
10184TIP3    H151967   2.941   4.951   4.724  0.6563  1.3746  1.5138
10184TIP3    H251968   2.828   4.853   4.751 -0.7435  1.9625 -1.7803
10185TIP3   OH251969   2.184   5.834  16.193  0.8409  0.0186  0.0230
10185TIP3    H151970   2.152   5.916  16.156  0.9270 -0.4918 -1.2221
10185TIP3    H251971   2.256   5.860  16.251  1.9121  0.7071 -1.5496
10186TIP3   OH251972   2.119   0.421   1.716 -0.1081 -0.1793  0.3377
10186TIP3    H151973   2.078   0.482   1.655  1.4706 -1.8790 -2.6698
10186TIP3    H251974   2.109   0.335   1.674  3.0964 -1.1437  1.2776
10187TIP3   OH251975   1.979   2.757   0.891  0.4127  0.3400  0.6094
10187TIP3    H151976   1.962   2.747   0.797  1.7446 -1.5827  0.5154
10187TIP3    H251977   1.985   2.667   0.924  0.1424  0.9770  2.5169
10188TIP3   OH251978   4.096   0.410   0.283 -0.5610 -0.7215  0.2820
10188TIP3    H151979   4.027   0.419   0.349 -0.4501 -0.5237  0.3715
10188TIP3    H251980   4.084   0.486   0.225  1.6554  1.2873  2.2226
10189TIP3   OH251981   1.269   0.282   5.673 -0.6095  0.3137  0.2393
10189TIP3    H151982   1.267   0.270   5.578  0.2753 -0.9407  0.3615
10189TIP3    H251983   1.288   0.195   5.708  0.0075  0.9410  1.5308
10190TIP3   OH251984   4.441   0.332  17.263 -0.1564  0.5668  0.3538
10190TIP3    H151985   4.521   0.355  17.310 -1.7818  0.7299  3.2080
10190TIP3    H251986   4.456   0.242  17.234  2.0908  1.4665 -1.7222
10191TIP3   OH251987   2.218   6.005  15.064  0.0694 -0.1222 -0.5272
10191TIP3    H151988   2.234   5.988  14.971  0.6125 -1.5850 -0.1930
10191TIP3    H251989   2.186   5.921  15.098  0.0490  0.3478  0.6477
10192TIP3   OH251990   0.549   4.304   3.282 -0.3040  0.3602  0.0134
10192TIP3    H151991   0.554   4.235   3.215  0.5455 -1.4088  1.8057
10192TIP3    H251992   0.638   4.339   3.286 -0.8250  1.9824 -1.2048
10193TIP3   OH251993   1.010   1.095   0.660  0.1564  0.0339  0.5940
10193TIP3    H151994   1.071   1.046   0.714 -0.7927 -1.8809  0.0155
10193TIP3    H251995   0.942   1.032   0.637 -1.5699  1.8377  0.4554
10194TIP3   OH251996   0.687   5.813  11.473  0.2994 -0.1696  0.9327
10194TIP3    H151997   0.732   5.897  11.470 -1.5356  0.8407 -0.4640
10194TIP3    H251998   0.712   5.769  11.392 -3.0942  1.5682 -1.3043
10195TIP3   OH251999   2.004   2.908   0.144  0.6039 -0.3137 -1.0198
10195TIP3    H152000   1.917   2.933   0.176  0.3992 -1.0661 -0.9742
10195TIP3    H252001   2.062   2.926   0.217  0.4376 -0.1197 -0.9336
10196TIP3   OH252002   3.159   0.787   2.072 -0.1423  0.1333 -0.0804
10196TIP3    H152003   3.077   0.767   2.027  0.4878 -0.3301 -1.0818
10196TIP3    H252004   3.163   0.724   2.143 -0.1591 -0.5717 -0.6864
10197TIP3   OH252005   1.003   5.972   4.558  0.0251  0.1593 -0.1636
10197TIP3    H152006   0.957   5.888   4.565 -0.7992  0.7524  2.8704
10197TIP3    H252007   0.935   6.038   4.570  0.9282  1.2325 -0.7504
10198TIP3   OH252008   1.180   2.004  14.012 -0.1252 -0.0849 -0.0425
10198TIP3    H152009   1.131   2.085  14.022  0.3632  0.5750 -2.3263
10198TIP3    H252010   1.257   2.014  14.067 -0.1123  0.9900 -0.2497
10199TIP3   OH252011   0.455   0.903  16.170 -0.4092 -0.3710 -0.1253
10199TIP3    H152012   0.460   0.819  16.215  1.5601  0.3189  1.0728
10199TIP3    H252013   0.469   0.881  16.078  2.0282 -1.2358  0.3750
10200TIP3   OH252014   0.873   5.583  16.136 -0.2101  0.1776  0.7211
10200TIP3    H152015   0.844   5.660  16.087 -2.5870 -2.0281 -1.6564
10200TIP3    H252016   0.834   5.594  16.223 -0.2022  1.7949  0.5475
10201TIP3   OH252017   3.202   4.132   0.178  0.2720  0.2068  0.2591
10201TIP3    H152018   3.181   4.124   0.085  0.7833  0.8332  0.0875
10201TIP3    H252019   3.259   4.209   0.184  0.7390 -0.1848  1.0099
10202TIP3   OH252020   0.460   0.958   5.930 -0.9606  0.0091  0.0167
10202TIP3    H152021   0.426   1.013   6.000  1.1496  2.1843 -0.5446
10202TIP3    H252022   0.438   1.004   5.849  0.7991  0.0663 -0.4771
10203TIP3   OH252023   6.480   1.241  16.232  0.4182  0.0181 -0.4353
10203TIP3    H152024   6.454   1.332  16.221  0.0416  0.3763  2.5149
10203TIP3    H252025   6.554   1.245  16.294 -0.6049 -1.7129  0.9891
10204TIP3   OH252026   4.494   5.598   5.782  0.1119  0.1934 -0.2872
10204TIP3    H152027   4.516   5.535   5.851 -2.4040 -0.7614 -0.2521
10204TIP3    H252028   4.503   5.683   5.824 -1.4824 -0.3713  1.3620
10205TIP3   OH252029   2.907   6.322  13.600 -0.1250 -0.4304 -0.0323
10205TIP3    H152030   2.988   6.367  13.623  0.4064 -0.4349 -1.7655
10205TIP3    H252031   2.838   6.383  13.627  0.4817  0.1325  0.2957
10206TIP3   OH252032   5.666   0.629  14.927  0.4526 -0.2232 -0.4954
10206TIP3    H152033   5.757   0.656  14.915  1.5284 -2.5540  1.4941
10206TIP3    H252034   5.653   0.557  14.865 -0.0466  0.1146 -0.7895
10207TIP3   OH252035   3.432   0.064  15.039 -0.0733  0.5639 -0.3392
10207TIP3    H152036   3.453  -0.000  15.107 -0.7320  0.1946 -0.4856
10207TIP3    H252037   3.516   0.106  15.019  0.0755  0.9424  0.9718
10208TIP3   OH252038   1.458   1.386   1.116 -0.3806  0.0307 -0.1314
10208TIP3    H152039   1.456   1.399   1.210 -0.6302 -0.3077 -0.0874
10208TIP3    H252040   1.501   1.301   1.104 -1.5326 -0.5585 -0.2468
10209TIP3   OH252041   0.325   3.509  13.404 -0.8397 -0.2037  0.3085
10209TIP3    H152042   0.311   3.532  13.496 -3.2450  1.7879 -0.4481
10209TIP3    H252043   0.319   3.414  13.401 -0.5948 -0.3094  2.2164
10210TIP3   OH252044   5.593   4.777   2.674 -0.0287 -0.9756 -0.2496
10210TIP3    H152045   5.500   4.762   2.691  0.1373 -1.8176 -0.0634
10210TIP3    H252046   5.630   4.690   2.664  1.2173 -0.7924  2.1114
10211TIP3   OH252047   0.916   5.439  15.446 -0.0227  0.2323  0.1158
10211TIP3    H152048   0.893   5.348  15.465  0.9612 -0.6179 -2.3459
10211TIP3    H252049   0.881   5.455  15.359  0.6046  1.9371  0.1351
10212TIP3   OH252050   3.074   5.266  14.681 -0.1564  0.2033  0.1836
10212TIP3    H152051   3.013   5.334  14.653  1.0339  1.1404 -0.2425
10212TIP3    H252052   3.087   5.282  14.775  0.0627  0.5369  0.0997
10213TIP3   OH252053   1.626   0.725  12.349 -0.3539  0.8495 -0.1560
10213TIP3    H152054   1.670   0.647  12.385 -0.3297  1.2733  0.7534
10213TIP3    H252055   1.691   0.795  12.358 -0.7678  1.2122  0.0394
10214TIP3   OH252056   1.923   4.304  17.203  0.0478  0.6390  0.2291
10214TIP3    H152057   2.009   4.315  17.244 -0.0461 -0.6853  0.8519
10214TIP3    H252058   1.925   4.361  17.126  1.9015 -0.1834 -0.3914
10215TIP3   OH252059   4.802   4.519   4.318 -0.3998 -0.3562  0.0054
10215TIP3    H152060   4.763   4.432   4.314  0.5040 -0.7323 -1.2249
10215TIP3    H252061   4.853   4.519   4.398 -2.7454  0.1069  1.6011
10216TIP3   OH252062   4.333   4.563   0.458 -0.2480 -0.5052 -0.2621
10216TIP3    H152063   4.408   4.506   0.440 -0.3289 -0.7194  0.0563
10216TIP3    H252064   4.330   4.624   0.385 -0.9286 -1.7066 -1.2709
10217TIP3   OH252065   0.909   0.170  15.589 -0.1086  0.1832 -0.3028
10217TIP3    H152066   0.814   0.158  15.590 -0.3754  1.7997 -1.9465
10217TIP3    H252067   0.938   0.126  15.509  0.0593  2.3926 -1.5163
10218TIP3   OH252068   1.133   1.944  16.950 -0.2916  0.0040  0.6780
10218TIP3    H152069   1.044   1.915  16.930  0.2046 -1.1709  0.1011
10218TIP3    H252070   1.148   1.913  17.040  0.2125 -1.5637  0.0895
10219TIP3   OH252071   3.158   3.172  14.276  0.0275  0.6447  0.0499
10219TIP3    H152072   3.211   3.215  14.209  0.2547  1.0882  0.5083
10219TIP3    H252073   3.158   3.080  14.251  1.0370  0.6334  0.0528
10220TIP3   OH252074   3.445   1.799  11.487  0.2228 -0.4500  0.1857
10220TIP3    H152075   3.478   1.741  11.419 -1.8048  0.4957 -1.7199
10220TIP3    H252076   3.370   1.844  11.447  1.1741  2.9159  1.7922
10221TIP3   OH252077   3.521   2.199  16.275 -0.4721 -0.4541  0.0377
10221TIP3    H152078   3.496   2.132  16.339  0.2703 -2.7288 -1.9186
10221TIP3    H252079   3.616   2.206  16.284 -0.6145  0.9783  0.7489
10222TIP3   OH252080   1.953   5.982  13.896 -0.1394 -0.1342 -0.2232
10222TIP3    H152081   2.001   5.912  13.851 -0.3125  0.0833 -0.7543
10222TIP3    H252082   1.867   5.983  13.853 -0.7279 -0.7148  0.9094
10223TIP3   OH252083   0.676   5.356   0.449 -0.1592 -0.5185 -0.1479
10223TIP3    H152084   0.630   5.405   0.381  0.7192  0.2153 -0.2205
10223TIP3    H252085   0.699   5.421   0.515 -0.7019 -1.1638  0.7111
10224TIP3   OH252086   2.848   0.530  16.090  0.1132 -0.0953  0.0176
10224TIP3    H152087   2.894   0.558  16.169 -1.8492  0.5788  0.9920
10224TIP3    H252088   2.757   0.521  16.118 -0.6692  0.3615 -2.2213
10225TIP3   OH252089   0.403   0.753   4.182 -0.0359 -0.0306 -0.6322
10225TIP3    H152090   0.478   0.807   4.155 -1.2823  1.2265 -1.6920
10225TIP3    H252091   0.418   0.669   4.140  1.6032 -0.3690  0.5082
10226TIP3   OH252092   5.189   6.242   4.023 -0.6706 -0.2931 -0.2699
10226TIP3    H152093   5.202   6.294   3.944  0.1161 -0.5380 -0.3098
10226TIP3    H252094   5.278   6.223   4.054 -0.9648  0.4731  1.1086
10227TIP3   OH252095   4.908   6.225  13.996  0.3146 -0.0468  0.2866
10227TIP3    H152096   4.887   6.177  13.916 -0.7625 -1.9144  1.6147
10227TIP3    H252097   4.990   6.187  14.026  0.6284  0.5330  0.1864
10228TIP3   OH252098   6.032   1.061  11.620  0.0165 -0.2148  0.1968
10228TIP3    H152099   5.975   0.989  11.592 -0.3834  0.6381 -1.2762
10228TIP3    H252100   6.118   1.020  11.630 -0.3861 -1.0746  0.2215
10229TIP3   OH252101   0.446   0.865  15.878 -0.1992 -0.3140  0.0045
10229TIP3    H152102   0.454   0.901  15.790 -0.1429 -1.4507 -0.4672
10229TIP3    H252103   0.368   0.809  15.874 -0.2432 -0.3077  0.6966
10230TIP3   OH252104   3.756   2.706  11.161  0.2230 -0.4389  0.4039
10230TIP3    H152105   3.709   2.628  11.132  0.3493 -0.5409  0.4719
10230TIP3    H252106   3.835   2.709  11.107 -0.3483  0.3036 -0.4341
10231TIP3   OH252107   5.649   1.314   4.887 -0.4140  0.4233 -0.1785
10231TIP3    H152108   5.586   1.277   4.825  0.7355  0.4519 -1.3925
10231TIP3    H252109   5.677   1.396   4.848 -0.6252  1.0805  1.0112
10232TIP3   OH252110   4.754   3.541   3.575 -0.2168  0.7629  0.4788
10232TIP3    H152111   4.804   3.477   3.524 -1.1418  0.3936  0.0224
10232TIP3    H252112   4.800   3.624   3.560 -0.6644  0.7347 -1.2667
10233TIP3   OH252113   2.580   2.325  11.402  0.1094 -0.1337 -0.4625
10233TIP3    H152114   2.502   2.338  11.347 -0.0994  1.9598  0.2371
10233TIP3    H252115   2.586   2.230  11.412 -2.4606 -0.3742 -0.4270
10234TIP3   OH252116   4.875   5.412  15.710 -0.3071 -0.7730  0.1972
10234TIP3    H152117   4.871   5.488  15.768  0.7108 -1.2681  0.9582
10234TIP3    H252118   4.882   5.449  15.622 -1.0076 -0.0001  0.4564
10235TIP3   OH252119   5.383   0.444  16.720 -0.1320  0.6280  0.5270
10235TIP3    H152120   5.351   0.445  16.810  0.8413  0.5646  0.8914
10235TIP3    H252121   5.472   0.479  16.727 -0.1089  0.7807 -0.4389
10236TIP3   OH252122   0.098   5.908   0.945 -0.0137 -0.1212  0.9989
10236TIP3    H152123   0.050   5.831   0.972 -0.0368  0.2362  2.0203
10236TIP3    H252124   0.181   5.904   0.994  1.5703 -1.3375 -1.5629
10237TIP3   OH252125   1.928   0.125   4.403 -0.5374  0.4454  0.4956
10237TIP3    H152126   1.952   0.121   4.496 -2.1815  1.2137  0.9873
10237TIP3    H252127   1.837   0.155   4.403 -0.1096  1.9420 -1.4069
10238TIP3   OH252128   5.667   3.454   3.050  0.2161  0.4474 -0.0704
10238TIP3    H152129   5.672   3.360   3.031  0.2770  0.1108  1.4624
10238TIP3    H252130   5.716   3.496   2.979 -0.8041 -0.5769 -1.4301
10239TIP3   OH252131   1.923   3.244   2.922  0.2103  0.2478 -0.1708
10239TIP3    H152132   1.848   3.225   2.978 -0.3225 -1.1367 -1.2630
10239TIP3    H252133   1.900   3.324   2.875 -1.3130 -0.9273 -1.5726
10240TIP3   OH252134   4.108   0.144   1.964  0.1356 -0.5304 -0.3749
10240TIP3    H152135   4.046   0.133   1.893 -0.0737  0.6283 -0.3890
10240TIP3    H252136   4.184   0.187   1.924 -0.4980  1.3476  0.3027
10241TIP3   OH252137   2.183   0.836  13.505  0.0184 -0.0961 -0.2705
10241TIP3    H152138   2.239   0.827  13.582 -1.1467  0.4733  0.6962
10241TIP3    H252139   2.238   0.812  13.431  2.0985  2.1454  0.4090
10242TIP3   OH252140   4.708   4.512  11.978 -0.1512  0.0043  0.4823
10242TIP3    H152141   4.719   4.425  12.017  4.0366 -0.0873 -0.4827
10242TIP3    H252142   4.656   4.497  11.900 -0.9940 -1.2933  1.2611
10243TIP3   OH252143   5.721   6.759  11.986  0.2440  0.2360 -0.5331
10243TIP3    H152144   5.678   6.842  11.964 -1.5656 -0.5476 -0.1972
10243TIP3    H252145   5.804   6.761  11.938 -0.5600  1.4824 -1.9724
10244TIP3   OH252146   4.090   3.244  11.497  1.0887  0.6944  0.1782
10244TIP3    H152147   4.154   3.191  11.450  0.6377  0.1042  0.2197
10244TIP3    H252148   4.006   3.221  11.457  0.5435 -0.6178  1.9622
10245TIP3   OH252149   5.859   4.781  13.830  0.0439  0.6225 -0.2416
10245TIP3    H152150   5.906   4.729  13.765  1.1711  1.8803 -0.4716
10245TIP3    H252151   5.907   4.769  13.911 -0.5053  0.2177  0.0311
10246TIP3   OH252152   4.505   0.344  12.131  0.3851 -0.2219  0.0090
10246TIP3    H152153   4.506   0.318  12.039 -0.2469  0.5217 -0.2198
10246TIP3    H252154   4.489   0.438  12.129 -3.1037 -0.6745  0.9659
10247TIP3   OH252155   2.972   1.946   2.914  0.1785 -0.2362  0.0428
10247TIP3    H152156   2.882   1.934   2.943 -0.1776  1.3729 -0.2595
10247TIP3    H252157   2.966   2.010   2.842  1.3766 -1.4786 -1.2424
10248TIP3   OH252158   4.245   0.299  13.705  0.3436 -0.0530  0.5263
10248TIP3    H152159   4.230   0.204  13.707 -3.1763  0.3708  0.9085
10248TIP3    H252160   4.172   0.333  13.654  1.6538  2.4877  0.2178
10249TIP3   OH252161   0.997   3.460  14.665  0.5270  0.1687  0.0054
10249TIP3    H152162   1.065   3.513  14.707  1.2535 -0.8249  0.1207
10249TIP3    H252163   0.987   3.384  14.722  0.6414 -0.5941 -0.9601
10250TIP3   OH252164   1.807   6.246   4.260 -0.5532  0.0800  0.3705
10250TIP3    H152165   1.853   6.261   4.343 -0.1876  2.0016 -0.1447
10250TIP3    H252166   1.721   6.285   4.273 -0.3819  0.6893 -0.2385
10251TIP3   OH252167   3.887   2.706   0.677 -0.0421 -0.3585  0.0156
10251TIP3    H152168   3.971   2.678   0.714  1.1817 -0.9402 -2.9634
10251TIP3    H252169   3.905   2.792   0.639 -1.0570 -0.0985  0.0993
10252TIP3   OH252170   6.586   4.144   3.025 -0.1273 -0.5868 -0.2681
10252TIP3    H152171   6.509   4.100   2.989 -1.2572  0.5739  0.6235
10252TIP3    H252172   6.585   4.230   2.984 -0.8076  0.3656  1.6233
10253TIP3   OH252173   3.962   2.943   5.542 -0.1785 -0.1186 -0.2925
10253TIP3    H152174   3.903   3.018   5.554  0.0129  0.2462 -1.4538
10253TIP3    H252175   4.038   2.964   5.596 -0.5440  0.0545  0.1612
10254TIP3   OH252176   1.644   1.993  12.518  0.5621 -0.5320 -0.1911
10254TIP3    H152177   1.614   1.921  12.574  1.3484 -0.1659  0.7170
10254TIP3    H252178   1.739   1.991  12.525  0.6583 -0.2345 -1.2352
10255TIP3   OH252179   1.807   3.292   0.603  0.1390 -0.2615  0.3270
10255TIP3    H152180   1.853   3.333   0.530  0.3061 -1.9803 -0.6022
10255TIP3    H252181   1.857   3.316   0.681  1.2578 -0.2034 -0.3997
10256TIP3   OH252182   5.442   3.650   1.186 -0.8979  0.0067 -0.0665
10256TIP3    H152183   5.374   3.672   1.250 -1.0311 -0.9219  0.1244
10256TIP3    H252184   5.505   3.597   1.235 -0.9543 -0.6400 -0.6771
10257TIP3   OH252185   2.975   1.785   1.784 -0.0800 -0.2941 -0.7671
10257TIP3    H152186   3.054   1.749   1.823 -0.9987 -2.2185 -0.5336
10257TIP3    H252187   2.931   1.829   1.857  1.3124  1.8657 -1.1725
10258TIP3   OH252188   0.096   0.439   5.679 -0.1723  0.0996  0.5669
10258TIP3    H152189   0.188   0.416   5.689 -0.4001 -1.3224 -0.3015
10258TIP3    H252190   0.072   0.404   5.593 -1.1099  1.9057  0.0435
10259TIP3   OH252191   4.453   4.790   2.677 -0.3052  0.8069  0.0338
10259TIP3    H152192   4.372   4.830   2.646 -0.1311  1.1083 -0.0363
10259TIP3    H252193   4.515   4.863   2.685  0.5228  0.3679 -1.6964
10260TIP3   OH252194   0.997   4.616  15.554 -0.0089  0.2301 -0.1023
10260TIP3    H152195   1.032   4.704  15.557 -0.5170  0.5978 -2.5806
10260TIP3    H252196   1.062   4.562  15.600  0.5205  1.8005  1.0523
10261TIP3   OH252197   2.590   4.655   0.160  0.0612 -0.2611  0.0000
10261TIP3    H152198   2.685   4.665   0.170  0.1060 -0.0458 -0.6042
10261TIP3    H252199   2.556   4.666   0.249  0.7827 -2.6416  0.6623
10262TIP3   OH252200   6.159   2.566   6.509 -0.0388  0.0558 -0.0211
10262TIP3    H152201   6.067   2.554   6.532  0.0403 -2.0761 -0.7006
10262TIP3    H252202   6.205   2.500   6.560  0.9479  0.0669 -0.8771
10263TIP3   OH252203   0.465   3.445   0.140  0.3611  0.1508  0.6078
10263TIP3    H152204   0.419   3.503   0.080  0.2998  0.4310  0.9271
10263TIP3    H252205   0.425   3.462   0.225 -0.3790 -1.0962  0.5388
10264TIP3   OH252206   1.380   3.963   0.829  0.4298 -0.1945  0.2450
10264TIP3    H152207   1.313   3.974   0.897 -1.0984  0.7531 -1.3311
10264TIP3    H252208   1.362   3.877   0.792 -1.6975  1.0366 -1.8812
10265TIP3   OH252209   6.210   5.301  11.265  0.5366  0.3037 -0.4219
10265TIP3    H152210   6.230   5.212  11.236 -1.0101 -0.2931  0.2033
10265TIP3    H252211   6.261   5.312  11.346 -0.6826 -0.7434  0.5238
10266TIP3   OH252212   0.463   3.323   1.138 -0.0161 -0.2550 -0.7094
10266TIP3    H152213   0.468   3.289   1.228  1.6220 -1.1765 -1.1097
10266TIP3    H252214   0.451   3.417   1.149 -1.0508 -0.4906  0.4588
10267TIP3   OH252215   5.019   2.963  14.871  0.5882 -0.2963 -1.0918
10267TIP3    H152216   5.113   2.969  14.892  0.3520 -0.5516  0.1413
10267TIP3    H252217   5.015   2.905  14.794  1.3020 -2.4028  0.3508
10268TIP3   OH252218   4.350   2.921   2.500 -0.3213 -0.9139 -0.2569
10268TIP3    H152219   4.423   2.931   2.561 -0.3021 -1.0170 -0.2622
10268TIP3    H252220   4.345   2.827   2.484 -1.0249 -1.0103  0.4384
10269TIP3   OH252221   0.857   1.628   2.493 -0.4026 -0.4346 -0.3978
10269TIP3    H152222   0.907   1.555   2.530  0.0265  1.2602  2.6815
10269TIP3    H252223   0.923   1.688   2.459 -0.3338  0.9839  2.0657
10270TIP3   OH252224   5.795   0.292  15.197  0.6731 -0.2125  0.4558
10270TIP3    H152225   5.784   0.347  15.274 -3.3599 -0.2364  0.1426
10270TIP3    H252226   5.803   0.354  15.124  1.8526 -0.1650  0.6114
10271TIP3   OH252227   2.621   2.394   1.440 -0.3055 -0.4823  0.1292
10271TIP3    H152228   2.580   2.429   1.520  0.5365  0.0582  0.3266
10271TIP3    H252229   2.635   2.301   1.460 -0.2404 -0.3836  0.5460
10272TIP3   OH252230   0.423   1.820   6.021 -0.0427 -0.1043  0.5212
10272TIP3    H152231   0.463   1.733   6.025  1.2673  0.3582 -1.1081
10272TIP3    H252232   0.396   1.839   6.111  0.0205 -2.0136  0.9747
10273TIP3   OH252233   4.145   2.546   3.277 -0.0659 -0.1002  0.4495
10273TIP3    H152234   4.183   2.514   3.359  0.0473 -0.5291  0.2376
10273TIP3    H252235   4.067   2.492   3.265 -0.8396  0.8834  0.9634
10274TIP3   OH252236   5.847   3.205   3.153  0.0015 -0.2684 -0.1925
10274TIP3    H152237   5.931   3.248   3.136 -0.3124  0.3952 -0.1208
10274TIP3    H252238   5.813   3.250   3.230 -2.1558  2.1892 -2.3592
10275TIP3   OH252239   2.127   4.145  13.216  0.4328  0.3202  0.4822
10275TIP3    H152240   2.114   4.081  13.286 -0.3135  1.3771  1.3375
10275TIP3    H252241   2.058   4.124  13.152  0.9127 -0.4386  0.1934
10276TIP3   OH252242   4.874   1.963  16.924  0.1357  0.1150  0.4238
10276TIP3    H152243   4.851   1.911  17.001  0.6835 -0.1963  0.3766
10276TIP3    H252244   4.790   1.979  16.881 -0.4368  1.7282  1.9776
10277TIP3   OH252245   0.713   3.091   2.721  0.6305 -0.0410  0.4850
10277TIP3    H152246   0.697   3.185   2.726  3.0135  0.3794  1.2782
10277TIP3    H252247   0.691   3.058   2.808  0.0010 -0.1867  0.2722
10278TIP3   OH252248   0.099   5.169  10.989 -0.1066 -0.3635 -0.6692
10278TIP3    H152249   0.177   5.151  10.936  1.3002 -1.2035  1.5211
10278TIP3    H252250   0.132   5.175  11.078 -2.2115  2.0330  0.0546
10279TIP3   OH252251   1.091   5.033  16.107  0.1700  0.0181 -0.3498
10279TIP3    H152252   1.060   5.079  16.185 -1.5437 -0.2826 -0.7956
10279TIP3    H252253   1.111   5.103  16.044  1.0864  0.2429  0.1735
10280TIP3   OH252254   5.997   6.583   5.589  0.0029  0.3806 -0.3531
10280TIP3    H152255   6.067   6.556   5.529 -0.8196 -3.2547  0.1248
10280TIP3    H252256   5.927   6.613   5.531  0.4743  0.1723 -1.0462
10281TIP3   OH252257   1.204   2.929   2.975 -0.0326  0.7491  0.4806
10281TIP3    H152258   1.145   2.855   2.991 -0.3699  1.1062  0.9130
10281TIP3    H252259   1.290   2.889   2.967 -0.3711  0.1778 -0.5196
10282TIP3   OH252260   2.747   5.548  10.511 -0.5618 -0.0520  0.0378
10282TIP3    H152261   2.836   5.574  10.486 -0.5258 -1.0527 -0.9825
10282TIP3    H252262   2.692   5.575  10.437 -1.3269  1.6627  1.1884
10283TIP3   OH252263   4.731   3.770   2.045  0.1744 -0.4400  0.3083
10283TIP3    H152264   4.761   3.680   2.054 -0.6277 -0.6783  0.7768
10283TIP3    H252265   4.753   3.795   1.955  0.8885 -0.9106  0.3499
10284TIP3   OH252266   1.826   1.933  16.298  0.0029  0.3016  0.0886
10284TIP3    H152267   1.803   1.875  16.371 -0.6396 -0.7124 -0.8939
10284TIP3    H252268   1.886   1.881  16.245 -0.3389  0.6502 -0.6428
10285TIP3   OH252269   4.510   6.530   5.391 -0.1822 -0.4996  0.0761
10285TIP3    H152270   4.533   6.564   5.478 -1.0347 -3.9772  1.8652
10285TIP3    H252271   4.422   6.562   5.376 -0.4744 -0.7808  1.0747
10286TIP3   OH252272   2.849   3.822  11.548  0.0253  0.2308  0.1265
10286TIP3    H152273   2.777   3.760  11.551 -1.1067  1.4333 -0.8301
10286TIP3    H252274   2.855   3.856  11.638 -0.5185  0.0190  0.2453
10287TIP3   OH252275   4.718   1.281  13.148  0.1955  0.0601 -0.4223
10287TIP3    H152276   4.747   1.274  13.239 -0.9573 -3.2199 -0.1951
10287TIP3    H252277   4.623   1.269  13.153  0.4319 -4.0459 -2.2307
10288TIP3   OH252278   4.487   0.584  12.486 -0.4266 -0.0907 -0.4326
10288TIP3    H152279   4.501   0.642  12.412 -1.0413 -0.4043 -0.8067
10288TIP3    H252280   4.480   0.642  12.561  3.0032  0.0919 -0.1175
10289TIP3   OH252281   2.270   1.355   3.510  0.6194  0.0515 -0.3169
10289TIP3    H152282   2.204   1.300   3.467  1.2838 -1.7485  0.8182
10289TIP3    H252283   2.351   1.339   3.461  0.5511  1.0492 -0.7677
10290TIP3   OH252284   5.522   6.034   6.010  0.4138  0.1421 -0.0767
10290TIP3    H152285   5.509   5.977   6.086 -0.4167  0.9430  0.3970
10290TIP3    H252286   5.454   6.101   6.019  0.0517  0.0309 -1.7238
10291TIP3   OH252287   3.642   1.620  12.404 -0.1580 -0.1628 -0.2943
10291TIP3    H152288   3.568   1.680  12.420 -0.1420 -0.2196 -0.0153
10291TIP3    H252289   3.674   1.645  12.317  0.7843  1.2247  0.4197
10292TIP3   OH252290   5.116   3.487  15.207 -0.2125 -0.2631  0.0770
10292TIP3    H152291   5.185   3.425  15.229 -0.6398 -0.6439  0.3389
10292TIP3    H252292   5.129   3.504  15.113  3.6008  3.7532  0.9568
10293TIP3   OH252293   4.560   5.515   1.475  0.0516  0.0180 -0.1383
10293TIP3    H152294   4.523   5.515   1.387 -2.1852 -2.8499  0.6730
10293TIP3    H252295   4.486   5.537   1.532  1.2797  1.0428  1.1377
10294TIP3   OH252296   1.695   6.246  13.900 -0.2997  0.6865  0.5503
10294TIP3    H152297   1.694   6.233  13.805  0.2995  1.1960  0.4711
10294TIP3    H252298   1.605   6.270  13.922 -0.3146  1.1041  0.0334
10295TIP3   OH252299   5.817   6.088   2.682 -0.1061  0.4049 -0.8622
10295TIP3    H152300   5.831   6.183   2.691  1.9367  0.1486 -0.6946
10295TIP3    H252301   5.897   6.049   2.718 -0.6541 -1.3702 -1.4602
10296TIP3   OH252302   5.275   4.314   2.305 -0.1013  0.1550  0.2452
10296TIP3    H152303   5.299   4.234   2.351 -1.9856 -1.0312 -0.7442
10296TIP3    H252304   5.221   4.363   2.368 -0.7165 -0.3627  0.1273
10297TIP3   OH252305   3.906   1.694   1.388  0.1840  0.4992  0.5279
10297TIP3    H152306   3.819   1.725   1.411 -0.6959 -1.1878 -0.3361
10297TIP3    H252307   3.965   1.739   1.450 -1.3594  1.1586  1.5715
10298TIP3   OH252308   2.600   2.965   2.344  0.3213 -0.2656  0.0978
10298TIP3    H152309   2.519   2.914   2.340  0.7776 -0.9629 -0.4039
10298TIP3    H252310   2.653   2.932   2.271  0.3083  1.4868 -0.7367
10299TIP3   OH252311   5.376   4.826   0.869  0.1075  0.1204  0.2399
10299TIP3    H152312   5.315   4.899   0.857 -0.0917 -0.2089 -0.9056
10299TIP3    H252313   5.376   4.781   0.785  0.3826 -1.0839  0.8603
10300TIP3   OH252314   1.731   3.454  16.798  0.5762 -0.7159 -0.5285
10300TIP3    H152315   1.692   3.528  16.845  1.2159 -0.0307 -1.0300
10300TIP3    H252316   1.786   3.410  16.863 -0.6276 -1.4039  0.0534
10301TIP3   OH252317   6.266   5.811  12.366  0.0688 -0.5330  0.6109
10301TIP3    H152318   6.350   5.775  12.392 -0.4252 -0.9197  1.7411
10301TIP3    H252319   6.287   5.887  12.313  1.1226 -0.8952  0.4926
10302TIP3   OH252320   5.284   3.299   3.212 -0.7015  0.0385 -0.4921
10302TIP3    H152321   5.232   3.284   3.291 -2.2204  1.0422 -1.2465
10302TIP3    H252322   5.221   3.333   3.148  0.8560  1.1157 -1.5214
10303TIP3   OH252323   1.262   4.991   2.714  0.6702 -0.6684  0.4524
10303TIP3    H152324   1.298   5.060   2.770 -3.1393 -1.0635  3.9486
10303TIP3    H252325   1.202   5.037   2.655 -0.7651 -0.6843  1.8022
10304TIP3   OH252326   3.681   4.430   5.567 -0.1287 -0.2218 -0.5216
10304TIP3    H152327   3.755   4.397   5.618 -0.7985 -2.2361 -0.7839
10304TIP3    H252328   3.704   4.521   5.548  1.3668 -0.2215  1.0622
10305TIP3   OH252329   1.855   2.745  17.051  0.4153  0.2004  0.5460
10305TIP3    H152330   1.866   2.811  16.983 -0.0608 -1.1055 -0.8700
10305TIP3    H252331   1.813   2.791  17.123 -1.0885  1.1971 -0.8715
10306TIP3   OH252332   5.179   2.680   1.970  0.1323 -0.1871  0.7735
10306TIP3    H152333   5.191   2.611   2.035 -0.6947  0.0425  1.1805
10306TIP3    H252334   5.085   2.692   1.965 -0.1501 -2.3561 -2.7586
10307TIP3   OH252335   1.459   5.255  16.135 -0.5485 -0.0325  0.4781
10307TIP3    H152336   1.406   5.329  16.108  1.2715  0.9742 -0.4821
10307TIP3    H252337   1.396   5.190  16.166 -2.3707  0.8180 -1.2796
10308TIP3   OH252338   2.311   6.619  11.957  0.3925 -0.1104 -0.5554
10308TIP3    H152339   2.380   6.605  12.022  0.3119 -0.2132 -0.4918
10308TIP3    H252340   2.233   6.581  11.997  0.0620  0.9109 -0.1769
10309TIP3   OH252341   6.413   3.138  11.973 -0.1965  0.0131 -0.6582
10309TIP3    H152342   6.445   3.212  12.024 -0.5213 -0.0572 -0.3501
10309TIP3    H252343   6.381   3.076  12.039 -0.2300 -0.2595 -0.9297
10310TIP3   OH252344   3.188   2.150  14.584  0.2971  0.2633  0.0541
10310TIP3    H152345   3.115   2.133  14.525  0.9848 -2.0049 -0.2717
10310TIP3    H252346   3.266   2.134  14.531  0.9828  0.4099  0.9867
10311TIP3   OH252347   6.164   5.989  12.595  0.3552  0.2428  0.3276
10311TIP3    H152348   6.222   5.988  12.519  0.2764 -0.5096  0.2772
10311TIP3    H252349   6.117   6.072  12.587  1.5024  0.9281  0.4404
10312TIP3   OH252350   4.784   2.376   0.133 -0.2485 -0.0293 -0.0772
10312TIP3    H152351   4.808   2.377   0.226 -0.8309 -0.1170  0.0762
10312TIP3    H252352   4.741   2.292   0.121  0.2449 -0.2184 -0.5381
10313TIP3   OH252353   5.443   0.849   3.357  0.2144 -0.3301  0.5414
10313TIP3    H152354   5.532   0.862   3.387  0.0113  1.3744  0.4807
10313TIP3    H252355   5.441   0.884   3.269 -0.1546 -1.7932 -0.0730
10314TIP3   OH252356   5.413   0.184   4.541  1.0032 -0.4225  0.3089
10314TIP3    H152357   5.370   0.225   4.466  0.5844  1.1711  1.3639
10314TIP3    H252358   5.478   0.248   4.570  2.2458 -1.6741  0.3797
10315TIP3   OH252359   3.411   4.748   0.980  0.3180 -0.0860 -0.0054
10315TIP3    H152360   3.408   4.788   0.893  1.8121  1.7736  0.7332
10315TIP3    H252361   3.466   4.670   0.968  3.5482  2.0005 -0.1851
10316TIP3   OH252362   1.992   1.759   2.611 -0.1760 -0.5773 -0.4318
10316TIP3    H152363   1.946   1.678   2.590 -1.2460 -0.1709  0.2880
10316TIP3    H252364   1.955   1.787   2.695 -0.5730  1.1956 -1.1506
10317TIP3   OH252365   4.745   4.291  14.427  0.2272  0.1017 -0.0041
10317TIP3    H152366   4.794   4.209  14.416 -1.1011 -0.6923 -0.1731
10317TIP3    H252367   4.696   4.301  14.345  2.0313  2.2675 -0.9468
10318TIP3   OH252368   4.308   2.082  14.359 -0.7545  0.1028  0.6275
10318TIP3    H152369   4.323   1.997  14.317 -1.8988  0.1708  0.0297
10318TIP3    H252370   4.278   2.060  14.447 -0.1845 -0.0904  0.7753
10319TIP3   OH252371   4.791   4.982   5.017  0.3864 -0.0512  0.1240
10319TIP3    H152372   4.766   4.895   5.046 -1.6527 -0.8981 -3.5565
10319TIP3    H252373   4.732   5.041   5.064 -0.1143 -0.9172  0.6057
10320TIP3   OH252374   5.126   4.650  16.950 -0.0346 -0.0443  0.5427
10320TIP3    H152375   5.186   4.594  16.999 -0.8425 -0.2357  1.3453
10320TIP3    H252376   5.176   4.730  16.935  1.2700 -1.0790 -0.9460
10321TIP3   OH252377   0.399   3.190  16.171 -0.6784 -0.4106 -0.3672
10321TIP3    H152378   0.329   3.230  16.223  0.1946  0.1046  0.4397
10321TIP3    H252379   0.435   3.263  16.120 -0.0213 -0.4539  0.0319
10322TIP3   OH252380   4.923   5.619   1.498 -0.5185 -0.6161  0.2256
10322TIP3    H152381   4.883   5.630   1.585 -1.0837  0.1412 -0.1220
10322TIP3    H252382   4.908   5.526   1.477 -1.4014 -0.5306  0.4481
10323TIP3   OH252383   3.977   5.107  12.160  0.6398 -0.0742 -0.2034
10323TIP3    H152384   3.929   5.179  12.120  0.5026 -0.8061 -1.4099
10323TIP3    H252385   4.039   5.079  12.093  2.4820  0.5515  1.1626
10324TIP3   OH252386   3.219   1.616  15.070 -0.0884  1.0230  0.1167
10324TIP3    H152387   3.161   1.578  15.136  1.2421  0.3333  0.9353
10324TIP3    H252388   3.257   1.692  15.112 -1.6798  2.5330 -1.0381
10325TIP3   OH252389   3.468   5.428  12.640 -0.6541  0.7072  0.1579
10325TIP3    H152390   3.385   5.397  12.604 -1.6590  1.8345  1.3666
10325TIP3    H252391   3.450   5.442  12.733  0.3754  2.5905  0.1283
10326TIP3   OH252392   0.417   6.597   5.106 -0.1212  0.2242 -0.5459
10326TIP3    H152393   0.397   6.662   5.039  0.6227 -0.8851 -1.8896
10326TIP3    H252394   0.475   6.642   5.167 -1.9617  1.6897  0.2114
10327TIP3   OH252395   2.245   2.725   1.861  0.6274 -0.2370  0.6046
10327TIP3    H152396   2.151   2.704   1.868 -0.1116  2.2537 -0.7351
10327TIP3    H252397   2.257   2.749   1.769  3.1630 -2.7134  0.1640
10328TIP3   OH252398   4.229   1.446  15.382  0.2553 -0.1164 -0.1812
10328TIP3    H152399   4.226   1.541  15.392  1.6405 -0.2119  1.6444
10328TIP3    H252400   4.312   1.429  15.338  1.7982 -0.5792  2.6365
10329TIP3   OH252401   6.349   3.117  12.374  0.2065 -0.0088  0.2993
10329TIP3    H152402   6.419   3.083  12.319  0.4813  1.2793 -0.2029
10329TIP3    H252403   6.381   3.109  12.464  1.0957  0.7230  0.0650
10330TIP3   OH252404   0.116   6.200   5.024 -0.3222 -0.4648  0.1989
10330TIP3    H152405   0.058   6.207   4.948 -1.4678 -1.4105  0.9427
10330TIP3    H252406   0.178   6.272   5.014 -0.7849 -0.2508 -1.3407
10331TIP3   OH252407   1.273   4.020   0.460 -0.2484 -0.1050  0.4509
10331TIP3    H152408   1.316   3.935   0.449  1.9635  0.6412  2.4639
10331TIP3    H252409   1.242   4.020   0.550  1.4499  1.8408  1.1216
10332TIP3   OH252410   1.335   3.635  12.217  0.1295  0.1589  0.0502
10332TIP3    H152411   1.304   3.719  12.182  0.9342  0.0100 -1.0493
10332TIP3    H252412   1.256   3.583  12.227 -0.5112  1.3282  1.6036
10333TIP3   OH252413   1.401   0.532  12.797 -0.6044 -0.2286 -0.4110
10333TIP3    H152414   1.352   0.558  12.719 -0.6648  0.8132 -0.0474
10333TIP3    H252415   1.480   0.586  12.794  0.5325 -1.8607 -0.9754
10334TIP3   OH252416   2.079   6.516  12.049 -0.2749 -0.5239 -0.0321
10334TIP3    H152417   1.996   6.495  12.007 -1.0798 -0.1774  1.3219
10334TIP3    H252418   2.055   6.550  12.135  1.1587  1.8130 -0.4646
10335TIP3   OH252419   6.064   2.171   2.896  0.1855  0.2787  0.1462
10335TIP3    H152420   6.157   2.193   2.900  0.2586  0.0058  0.0227
10335TIP3    H252421   6.062   2.077   2.876 -0.1174  0.1762  0.6498
10336TIP3   OH252422   1.986   3.701  15.717 -0.3701 -0.1565 -0.2162
10336TIP3    H152423   1.926   3.685  15.644 -0.4643 -0.2011 -0.1283
10336TIP3    H252424   2.056   3.755  15.679 -0.7340  0.3319 -0.1973
10337TIP3   OH252425   1.882   2.915  16.688 -0.0674  0.6366 -0.5600
10337TIP3    H152426   1.912   2.860  16.616  0.8036  1.1037 -0.5677
10337TIP3    H252427   1.960   2.931  16.740 -1.0698 -1.5667  1.8166
10338TIP3   OH252428   3.831   0.856   4.691 -0.4203 -0.0968 -0.3027
10338TIP3    H152429   3.914   0.850   4.643 -1.2121  0.8987 -1.8567
10338TIP3    H252430   3.794   0.767   4.686 -0.3116 -0.1028 -1.2280
10339TIP3   OH252431   4.802   3.023   5.105 -0.6170  0.1740 -0.1173
10339TIP3    H152432   4.875   2.977   5.147 -0.8183  0.4473  0.5476
10339TIP3    H252433   4.738   3.035   5.175 -0.2215  2.2140 -0.0333
10340TIP3   OH252434   4.594   3.125  16.325 -0.2499 -0.4271  0.5462
10340TIP3    H152435   4.614   3.136  16.232  0.5624 -0.1200  0.7502
10340TIP3    H252436   4.500   3.106  16.327 -0.6136  1.1202 -0.2322
10341TIP3   OH252437   2.915   6.301  11.276  0.4359  0.0943  0.3742
10341TIP3    H152438   2.895   6.391  11.251  0.2500 -0.2536 -0.8061
10341TIP3    H252439   2.980   6.272  11.212 -0.1822 -0.8917  0.1718
10342TIP3   OH252440   6.292   3.028   2.511 -0.0324 -0.4078  0.2789
10342TIP3    H152441   6.357   3.078   2.560  0.0006 -0.2087  0.0334
10342TIP3    H252442   6.209   3.073   2.527 -0.0581 -0.4769  0.3382
10343TIP3   OH252443   6.652   4.533   0.948 -0.1308  0.4707  0.2032
10343TIP3    H152444   6.615   4.561   0.865  0.8585  2.3902  0.3682
10343TIP3    H252445   6.654   4.437   0.943 -1.3717  0.5093 -1.3918
10344TIP3   OH252446   4.210   4.323   4.639 -0.3153 -0.2833  0.2392
10344TIP3    H152447   4.265   4.272   4.578 -0.5258 -0.6579  0.3579
10344TIP3    H252448   4.267   4.340   4.714 -0.6296 -1.4738  0.7712
10345TIP3   OH252449   1.254   4.887  12.451 -0.3637 -0.4144  0.2530
10345TIP3    H152450   1.172   4.837  12.455 -0.5110 -0.2558 -0.5452
10345TIP3    H252451   1.321   4.825  12.479 -0.8096 -0.4146  1.3482
10346TIP3   OH252452   0.725   3.545   1.192  0.2466 -0.0332 -0.7733
10346TIP3    H152453   0.707   3.600   1.268 -1.6991  0.4933 -1.5389
10346TIP3    H252454   0.742   3.458   1.228  1.6969  0.6913  0.3635
10347TIP3   OH252455   1.657   3.362  16.226 -0.1702  0.1755  0.5918
10347TIP3    H152456   1.568   3.329  16.215 -0.3860  0.5901  1.0614
10347TIP3    H252457   1.675   3.353  16.320  0.7690 -1.1156  0.3223
10348TIP3   OH252458   3.548   2.219   4.977  0.0208  0.5060 -0.1995
10348TIP3    H152459   3.512   2.306   4.963  1.0531  1.4415  2.3809
10348TIP3    H252460   3.632   2.219   4.930 -0.9616  0.0809 -2.0215
10349TIP3   OH252461   3.158   2.973   0.399  0.1934 -0.0429  0.2037
10349TIP3    H152462   3.182   2.958   0.491  1.4565  2.4496  0.3518
10349TIP3    H252463   3.087   3.037   0.403  0.7964  0.6891 -0.5684
10350TIP3   OH252464   0.071   5.938  16.579 -0.6330  0.1921  0.0371
10350TIP3    H152465   0.046   5.938  16.671  0.4241  0.4968  0.3381
10350TIP3    H252466   0.068   5.846  16.553 -2.3712  0.2279 -0.0593
10351TIP3   OH252467   2.818   5.176  16.051 -0.1938 -0.5748 -0.2403
10351TIP3    H152468   2.896   5.170  16.106 -0.1545 -2.4497 -0.4397
10351TIP3    H252469   2.776   5.090  16.059 -0.6147 -0.6370 -2.4668
10352TIP3   OH252470   0.225   6.778  11.350  0.0638  0.8335  0.4662
10352TIP3    H152471   0.188   6.865  11.366 -1.8426  0.2091 -0.3592
10352TIP3    H252472   0.221   6.767  11.255 -2.4846 -1.2712  0.7162
10353TIP3   OH252473   2.419   1.399  11.017 -0.9520  0.1589 -0.2451
10353TIP3    H152474   2.512   1.396  10.999 -1.1567 -2.5815 -1.3974
10353TIP3    H252475   2.378   1.416  10.932 -1.5429  2.1182  0.3721
10354TIP3   OH252476   2.011   6.615  16.330  0.0118  0.5983 -0.3396
10354TIP3    H152477   2.060   6.622  16.412 -1.3632  0.1486  0.5519
10354TIP3    H252478   2.008   6.521  16.311  0.6094  0.7279 -1.0890
10355TIP3   OH252479   5.461   5.561  16.278 -0.4211  0.3617  0.6461
10355TIP3    H152480   5.451   5.651  16.309 -0.1417  0.7652 -0.4034
10355TIP3    H252481   5.541   5.562  16.226 -1.2529 -0.1169 -0.6920
10356TIP3   OH252482   0.946   5.141  16.369 -0.0030 -0.3140 -0.0177
10356TIP3    H152483   0.938   5.210  16.434 -1.5746  2.2969 -2.7353
10356TIP3    H252484   0.863   5.094  16.374  0.6581 -1.4398  1.1110
10357TIP3   OH252485   0.711   0.689  13.598 -0.1052 -0.0891  0.5176
10357TIP3    H152486   0.766   0.666  13.523 -0.0873 -1.2853  0.8858
10357TIP3    H252487   0.747   0.638  13.671  0.3145  1.5710  1.5305
10358TIP3   OH252488   0.394   3.649  13.160 -0.3463 -0.1539 -0.2880
10358TIP3    H152489   0.383   3.628  13.253  1.9976 -0.3712  0.0221
10358TIP3    H252490   0.485   3.678  13.154 -0.7998  0.9835 -2.3363
10359TIP3   OH252491   6.633   2.015  11.286  0.8066  0.2463  0.6094
10359TIP3    H152492   6.719   2.041  11.253  1.0594 -0.4440  0.7092
10359TIP3    H252493   6.583   1.993  11.207  1.5273 -1.7574  0.6523
10360TIP3   OH252494   1.464   0.417   2.398 -0.4374  0.1184 -0.0328
10360TIP3    H152495   1.465   0.484   2.467  0.0519 -0.2785  0.3549
10360TIP3    H252496   1.405   0.349   2.430 -1.1810  0.5019 -0.5680
10361TIP3   OH252497   3.088   5.690  14.267 -0.5595 -0.3177 -1.1240
10361TIP3    H152498   3.067   5.599  14.290  0.7582 -0.3933 -0.1026
10361TIP3    H252499   3.166   5.683  14.211  1.1005  0.2565  0.9997
10362TIP3   OH252500   5.535   4.002  15.179  0.4065 -0.5585 -0.4597
10362TIP3    H152501   5.545   4.050  15.261 -0.3130  0.0618 -0.7198
10362TIP3    H252502   5.456   4.039  15.140  1.6089  0.3226 -2.2001
10363TIP3   OH252503   5.513   2.690  14.478 -0.4111 -0.1286 -0.8156
10363TIP3    H152504   5.420   2.705  14.495 -0.2228 -0.0790  0.2614
10363TIP3    H252505   5.558   2.741  14.545  0.4564  1.1666 -2.3060
10364TIP3   OH252506   3.529   6.108  15.891  0.2353  0.0362  0.3893
10364TIP3    H152507   3.466   6.158  15.944 -0.8680 -0.7956 -0.0959
10364TIP3    H252508   3.592   6.074  15.955  0.4113  1.1859  0.8424
10365TIP3   OH252509   0.343   1.100  13.011  0.4294  0.4772  0.1836
10365TIP3    H152510   0.387   1.119  13.094  2.5514  1.7956 -1.1173
10365TIP3    H252511   0.250   1.108  13.030  0.9026  2.2703  2.1129
10366TIP3   OH252512   3.020   0.127   6.567 -0.5225 -0.1237  0.1786
10366TIP3    H152513   3.087   0.196   6.562 -0.5384 -0.1388 -0.2635
10366TIP3    H252514   3.018   0.089   6.479  1.1092 -2.2395  0.9683
10367TIP3   OH252515   1.544   6.190   2.763  0.2484 -0.2779  0.3103
10367TIP3    H152516   1.632   6.223   2.746  0.5730 -0.7568  1.0285
10367TIP3    H252517   1.552   6.140   2.844 -0.4855 -1.1033 -0.1056
10368TIP3   OH252518   1.493   4.892  16.179 -0.3260  0.3799  0.4644
10368TIP3    H152519   1.551   4.826  16.216 -0.7734  0.6144  1.6276
10368TIP3    H252520   1.492   4.962  16.244  0.6030  1.8331 -0.9766
10369TIP3   OH252521   5.837   6.388   1.014 -0.0618 -0.0608 -0.2977
10369TIP3    H152522   5.926   6.411   0.987 -0.2571 -0.9037 -1.8026
10369TIP3    H252523   5.819   6.443   1.090  0.6634  2.3125 -1.7411
10370TIP3   OH252524   6.404   5.292   1.548  0.5180  0.0983 -0.0356
10370TIP3    H152525   6.439   5.349   1.617 -1.5993  1.4144  0.0441
10370TIP3    H252526   6.352   5.227   1.595  0.5927 -0.1367 -0.2813
10371TIP3   OH252527   6.590   2.248   6.564  0.4330  0.5163  0.0394
10371TIP3    H152528   6.588   2.236   6.659 -0.6977  0.6293  0.0471
10371TIP3    H252529   6.655   2.316   6.549  1.5599 -0.3982  0.6163
10372TIP3   OH252530   0.931   5.539  13.395  0.3519  0.1460 -0.1416
10372TIP3    H152531   0.846   5.581  13.408 -0.4248 -1.1075 -0.9376
10372TIP3    H252532   0.948   5.549  13.301 -0.4273 -2.2202 -0.6262
10373TIP3   OH252533   0.496   2.601   1.561 -0.1416 -0.3907  0.0121
10373TIP3    H152534   0.464   2.518   1.525 -0.5905 -0.2003 -0.0413
10373TIP3    H252535   0.444   2.614   1.640 -2.5158  1.4586 -1.6900
10374TIP3   OH252536   5.175   1.197  11.422 -0.2653 -0.2894  0.3306
10374TIP3    H152537   5.120   1.187  11.344  0.9860  0.8883 -0.7487
10374TIP3    H252538   5.180   1.108  11.459 -1.1164 -0.8172 -0.7566
10375TIP3   OH252539   4.456   4.358  12.177  0.4885  0.0730 -0.0916
10375TIP3    H152540   4.511   4.427  12.214  1.8434 -1.3317  0.6588
10375TIP3    H252541   4.496   4.276  12.208 -1.9370 -1.0458  0.3408
10376TIP3   OH252542   3.074   3.398  11.928  0.3972  0.1309  0.8477
10376TIP3    H152543   3.040   3.476  11.973  2.3346  0.4084  1.9296
10376TIP3    H252544   3.167   3.396  11.950  0.8921 -1.1866 -1.1077
10377TIP3   OH252545   2.857   4.620  11.550 -0.6349  0.2193 -0.2428
10377TIP3    H152546   2.949   4.619  11.576 -0.9253 -2.7969  1.0912
10377TIP3    H252547   2.832   4.712  11.552  2.6033  1.2686 -1.8068
10378TIP3   OH252548   5.759   3.087  16.188  0.7555  0.4853  0.4437
10378TIP3    H152549   5.670   3.078  16.154  1.0210  0.5287 -0.2907
10378TIP3    H252550   5.747   3.103  16.282  0.0017  0.2849  0.3929
10379TIP3   OH252551   5.770   4.733   3.203  0.1725 -0.2416 -0.2190
10379TIP3    H152552   5.780   4.688   3.287 -1.5138  0.4194  0.3934
10379TIP3    H252553   5.699   4.796   3.219  0.7247  0.8159 -1.7715
10380TIP3   OH252554   1.559   0.787  11.972  0.3858 -0.1013  0.1435
10380TIP3    H152555   1.653   0.788  11.988  0.1732  1.1143  1.5391
10380TIP3    H252556   1.544   0.858  11.909  0.2102  1.1360  1.5069
10381TIP3   OH252557   5.067   0.640   3.785  0.0591 -0.7160  0.3399
10381TIP3    H152558   5.074   0.623   3.691  1.8354 -1.5881  0.5877
10381TIP3    H252559   5.146   0.602   3.822 -0.5439 -0.2682  2.1906
10382TIP3   OH252560   2.402   6.475   0.842 -0.7614  0.2437  0.3634
10382TIP3    H152561   2.418   6.437   0.755  0.6707 -2.0440  1.5408
10382TIP3    H252562   2.472   6.540   0.852 -0.3112 -0.1953  0.1605
10383TIP3   OH252563   1.996   6.148  12.321 -0.0780  0.1951  0.4322
10383TIP3    H152564   1.923   6.206  12.343 -1.3728 -0.2144 -2.3786
10383TIP3    H252565   2.061   6.206  12.282 -0.7642  0.0269 -1.0311
10384TIP3   OH252566   5.272   2.538  12.238  0.0370  0.2035  0.6646
10384TIP3    H152567   5.200   2.601  12.235  0.5668  0.8036  0.1186
10384TIP3    H252568   5.326   2.560  12.162  0.4967 -0.6019  0.7425
10385TIP3   OH252569   3.094   6.488   5.898 -0.6419 -0.1692 -0.9724
10385TIP3    H152570   3.052   6.466   5.981  0.8227  0.0797 -0.1304
10385TIP3    H252571   3.170   6.541   5.923 -0.0520 -0.2648 -2.4614
10386TIP3   OH252572   0.364   2.171  16.914 -0.5158 -0.2116  0.2171
10386TIP3    H152573   0.300   2.222  16.864  0.9685 -0.1428 -1.7669
10386TIP3    H252574   0.437   2.231  16.927  0.2404 -1.0702  0.0344
10387TIP3   OH252575   6.148   1.167   2.720  0.1885 -0.3457 -0.1449
10387TIP3    H152576   6.182   1.226   2.652  0.9828 -1.6723 -0.9472
10387TIP3    H252577   6.223   1.153   2.778  0.0137 -0.6115  0.0149
10388TIP3   OH252578   3.775   1.126   0.629  0.0181 -0.2873  0.1461
10388TIP3    H152579   3.723   1.117   0.709 -0.9134  2.1503 -0.0990
10388TIP3    H252580   3.717   1.172   0.568  2.4282  2.8538 -0.0640
10389TIP3   OH252581   5.908   6.045  12.762 -0.0498 -0.5252  0.2894
10389TIP3    H152582   5.901   6.081  12.674 -2.0929 -0.0583  0.5962
10389TIP3    H252583   5.900   6.121  12.820  1.4617 -0.7984  0.8959
10390TIP3   OH252584   4.903   1.904   4.637 -0.2599 -0.1477 -0.1191
10390TIP3    H152585   4.903   1.850   4.715 -0.6051 -0.3723 -0.2694
10390TIP3    H252586   4.995   1.910   4.611 -0.1949 -0.4590  0.0371
10391TIP3   OH252587   2.549   4.831  12.801 -0.4077 -0.2216  0.6243
10391TIP3    H152588   2.508   4.746  12.789 -1.7476  0.4047  0.5570
10391TIP3    H252589   2.597   4.823  12.883  1.9240 -1.9233 -0.7976
10392TIP3   OH252590   1.997   3.427  14.027  0.1814 -0.3022 -0.3213
10392TIP3    H152591   2.080   3.474  14.023 -0.5145  0.9361 -0.7956
10392TIP3    H252592   1.997   3.371  13.949  1.2469 -1.5702  0.5275
10393TIP3   OH252593   3.060   6.752   1.258  0.8425  0.2389  0.0466
10393TIP3    H152594   3.132   6.763   1.319  0.4118  0.3419  0.5458
10393TIP3    H252595   3.030   6.662   1.273  1.4519 -0.1218 -0.8149
10394TIP3   OH252596   0.631   4.316   4.348  0.1348 -0.1077  0.3080
10394TIP3    H152597   0.579   4.312   4.268 -0.2405  0.0802  0.5386
10394TIP3    H252598   0.630   4.408   4.373 -0.7564 -0.3332  1.1686
10395TIP3   OH252599   1.490   0.753   0.760 -0.1366  0.9589  0.0796
10395TIP3    H152600   1.506   0.747   0.666  1.7671 -0.0046  0.4065
10395TIP3    H252601   1.409   0.704   0.774  0.4410 -0.3230 -0.8762
10396TIP3   OH252602   1.597   5.638   1.203  0.1460  0.2420 -0.1107
10396TIP3    H152603   1.530   5.596   1.150 -0.2633  0.6986  0.0396
10396TIP3    H252604   1.578   5.612   1.293  1.9085 -2.0160 -0.3150
10397TIP3   OH252605   1.021   6.021   0.335 -0.5350  0.4520 -0.9228
10397TIP3    H152606   1.005   6.110   0.304  1.5889  0.8686 -0.9282
10397TIP3    H252607   1.041   6.031   0.428  3.6743  0.5900 -1.6736
10398TIP3   OH252608   6.330   5.598   5.085 -0.1488  0.0791 -0.1775
10398TIP3    H152609   6.360   5.630   5.000  0.2181  0.6648  0.1553
10398TIP3    H252610   6.370   5.659   5.148 -1.1519  0.2081  0.3550
10399TIP3   OH252611   1.351   1.270  12.031 -0.6078  0.1850  0.2704
10399TIP3    H152612   1.311   1.248  12.115 -0.4762 -1.1979 -0.0114
10399TIP3    H252613   1.445   1.266  12.048 -0.5800 -0.2989  0.0091
10400TIP3   OH252614   4.774   6.154   1.275  0.5693 -0.5174 -0.0201
10400TIP3    H152615   4.711   6.183   1.341  0.8415  0.6895 -0.2748
10400TIP3    H252616   4.834   6.097   1.324  0.9730  0.6269  0.8772
10401TIP3   OH252617   6.604   5.018  16.928  0.6030  0.3360 -0.5878
10401TIP3    H152618   6.590   4.932  16.889 -0.1691  0.5085 -0.7029
10401TIP3    H252619   6.658   5.000  17.006  2.7311  0.0718 -2.0460
10402TIP3   OH252620   2.795   3.814   1.268  0.4127 -0.2122  0.2034
10402TIP3    H152621   2.731   3.809   1.197  1.4064  1.4386 -0.8912
10402TIP3    H252622   2.747   3.788   1.346 -1.0944 -0.7476 -0.8586
10403TIP3   OH252623   3.314   2.108   5.087 -0.0862  0.1312 -0.0916
10403TIP3    H152624   3.354   2.122   5.001  0.1965  1.1297  0.1821
10403TIP3    H252625   3.312   2.013   5.097  1.3707  0.0155 -0.5166
10404TIP3   OH252626   4.412   5.967   0.023 -0.5012  0.2734 -0.3947
10404TIP3    H152627   4.388   5.999  -0.064 -0.2181 -0.0599 -0.5973
10404TIP3    H252628   4.504   5.940   0.014 -0.4043  0.4311  0.0621
10405TIP3   OH252629   3.674   5.797  14.265  0.3154 -0.1635 -0.4010
10405TIP3    H152630   3.722   5.750  14.332  3.1885  2.9686 -0.0020
10405TIP3    H252631   3.699   5.754  14.183 -1.1265 -2.3452  0.2323
10406TIP3   OH252632   0.974   6.017   1.083 -0.3224 -0.4358 -0.3219
10406TIP3    H152633   1.039   6.087   1.088 -0.8609 -0.0127  1.1933
10406TIP3    H252634   1.010   5.956   1.019  0.7320  0.6270 -0.7813
10407TIP3   OH252635   1.654   6.548   4.931  0.0215 -0.0401  0.0830
10407TIP3    H152636   1.735   6.590   4.904 -0.1542  0.6160  0.5527
10407TIP3    H252637   1.682   6.475   4.987  0.3072 -0.2382 -0.3130
10408TIP3   OH252638   4.938   2.361   3.443  0.5990  0.4407 -0.0503
10408TIP3    H152639   4.988   2.399   3.515  1.3925  0.7144 -0.7253
10408TIP3    H252640   4.970   2.271   3.436  1.2774  0.7291 -0.7233
10409TIP3   OH252641   6.375   0.853   1.005 -0.3467 -0.3893  0.6512
10409TIP3    H152642   6.450   0.886   1.054  0.0479  1.0517 -0.8398
10409TIP3    H252643   6.411   0.785   0.948  0.1194  1.0984 -0.9106
10410TIP3   OH252644   5.243   4.798  14.641  0.5231  0.7286 -0.4955
10410TIP3    H152645   5.259   4.741  14.566  0.2845  0.5593 -0.4185
10410TIP3    H252646   5.196   4.743  14.704  0.5229  0.9349 -0.3134
10411TIP3   OH252647   2.123   0.390   0.640 -0.2744 -0.1906  0.7653
10411TIP3    H152648   2.096   0.305   0.675  0.1382 -0.9293 -0.6225
10411TIP3    H252649   2.124   0.377   0.545  0.5374  1.1404  0.5749
10412TIP3   OH252650   0.950   6.164  17.168 -0.5710 -0.3747  0.2933
10412TIP3    H152651   1.018   6.147  17.233 -1.0755 -0.2304  0.8681
10412TIP3    H252652   0.868   6.165  17.218 -0.7196  2.4927  0.1525
10413TIP3   OH252653   4.409   1.685  16.579  0.0422 -0.0373 -0.1446
10413TIP3    H152654   4.465   1.658  16.652 -1.1790  0.6385  1.1090
10413TIP3    H252655   4.410   1.781  16.583  0.0122  0.0062 -1.0730
10414TIP3   OH252656   6.088   6.256   0.517 -0.4563 -0.0890 -0.3702
10414TIP3    H152657   6.121   6.169   0.492 -2.1089 -1.3849  1.6429
10414TIP3    H252658   6.033   6.282   0.443 -0.6145 -1.1543 -0.6573
10415TIP3   OH252659   5.540   2.184  17.221  0.2537  0.3830 -0.0745
10415TIP3    H152660   5.449   2.212  17.216 -0.4292 -1.2429  2.0804
10415TIP3    H252661   5.578   2.237  17.292  0.1605 -0.9576  1.0039
10416TIP3   OH252662   1.790   1.256   1.529  0.2617 -0.0596  0.1225
10416TIP3    H152663   1.767   1.308   1.606 -1.3030  0.0289 -0.3720
10416TIP3    H252664   1.780   1.317   1.455 -2.2937 -1.1525 -0.5422
10417TIP3   OH252665   2.553   0.468   4.204  0.2464 -0.3223  0.2077
10417TIP3    H152666   2.637   0.474   4.158  0.8061 -2.3836  0.8522
10417TIP3    H252667   2.577   0.443   4.293 -1.0205 -0.0015  0.6531
10418TIP3   OH252668   3.487   4.788  17.068 -0.2466 -0.2158 -0.0590
10418TIP3    H152669   3.437   4.848  17.013 -1.0745 -1.4336 -0.6961
10418TIP3    H252670   3.522   4.842  17.138 -2.0729  0.7832  0.1352
10419TIP3   OH252671   0.940   3.933   1.180 -0.3027 -0.0394 -0.3052
10419TIP3    H152672   0.899   4.018   1.193  0.1870  0.2972 -0.8732
10419TIP3    H252673   0.879   3.885   1.125 -0.2935  0.1857 -0.5171
10420TIP3   OH252674   3.953   5.743   0.225 -0.0353 -0.7689 -0.0603
10420TIP3    H152675   3.999   5.767   0.145 -0.6570  0.5929 -0.0405
10420TIP3    H252676   4.009   5.777   0.295 -0.3350 -0.4251  0.0140
10421TIP3   OH252677   1.116   3.486  12.179 -0.3591  0.1854  0.0509
10421TIP3    H152678   1.137   3.399  12.213  0.0321  1.1130  2.3546
10421TIP3    H252679   1.034   3.474  12.132  0.4318 -1.6866 -0.9718
10422TIP3   OH252680   2.858   0.776   1.210 -0.0438  0.3012 -0.6452
10422TIP3    H152681   2.794   0.807   1.275 -0.3008 -1.5985  0.0781
10422TIP3    H252682   2.804   0.742   1.138  0.2380  1.9113 -1.6738
10423TIP3   OH252683   6.275   1.444  16.180  0.5405  0.6348 -0.3783
10423TIP3    H152684   6.227   1.398  16.248  0.6142 -1.1879 -1.4966
10423TIP3    H252685   6.238   1.532  16.179 -0.7929  0.1105  0.6809
10424TIP3   OH252686   3.715   3.254   3.089  0.4591 -0.2835 -0.5664
10424TIP3    H152687   3.676   3.317   3.028 -0.3223 -0.4987 -0.3016
10424TIP3    H252688   3.800   3.292   3.112  1.3765 -0.8428 -2.8198
10425TIP3   OH252689   0.661   3.320   1.901  0.0052  0.5008 -0.5339
10425TIP3    H152690   0.750   3.286   1.912 -0.2013 -0.0602 -0.5479
10425TIP3    H252691   0.660   3.402   1.951  0.5766  0.5938 -0.6747
10426TIP3   OH252692   6.191   3.941   4.042  0.0622 -0.2946 -0.8742
10426TIP3    H152693   6.241   3.975   3.968  1.0098  0.0359 -0.1025
10426TIP3    H252694   6.215   3.998   4.116 -1.8639  0.2047 -0.5846
10427TIP3   OH252695   0.758   1.823  13.411 -0.9300  0.0921  0.2183
10427TIP3    H152696   0.701   1.895  13.384  1.0000  1.4821 -0.3830
10427TIP3    H252697   0.698   1.753  13.437 -2.9456  0.7315 -2.2561
10428TIP3   OH252698   3.017   1.515   1.517 -0.5617  0.3150 -0.3844
10428TIP3    H152699   2.940   1.544   1.566 -1.3167  0.0160 -1.3639
10428TIP3    H252700   3.065   1.459   1.579 -3.0000 -2.4404 -0.8051
10429TIP3   OH252701   4.367   3.222  16.640 -0.3700 -0.8467  0.0502
10429TIP3    H152702   4.309   3.295  16.662  0.7803 -0.1238  0.8200
10429TIP3    H252703   4.386   3.180  16.724  0.1128 -1.1497 -0.2052
10430TIP3   OH252704   3.491   2.272   3.164  0.1102  0.5062  0.0599
10430TIP3    H152705   3.432   2.347   3.154  1.3440  1.2981 -2.0935
10430TIP3    H252706   3.567   2.308   3.211  0.5895  0.5670 -0.7418
10431TIP3   OH252707   0.742   2.333  16.275 -0.0418  0.3705  0.6427
10431TIP3    H152708   0.674   2.365  16.335 -0.8896 -1.6625  0.8455
10431TIP3    H252709   0.803   2.285  16.332  2.3887  3.2162  0.6695
10432TIP3   OH252710   4.892   6.074   4.520  0.3354  0.1417  0.2436
10432TIP3    H152711   4.829   6.048   4.453 -0.6319  1.0234  0.7695
10432TIP3    H252712   4.977   6.069   4.477 -0.0749 -1.0990 -0.4868
10433TIP3   OH252713   4.043   3.164   6.108  0.0920  0.1597  0.2945
10433TIP3    H152714   4.123   3.161   6.160  0.6307  0.7190 -0.4799
10433TIP3    H252715   3.980   3.112   6.158  1.9517 -3.5284 -0.8334
10434TIP3   OH252716   0.994   1.415  14.048  0.5641  0.1446 -0.2624
10434TIP3    H152717   0.914   1.377  14.012 -0.3165  1.4131  0.2742
10434TIP3    H252718   1.012   1.365  14.127 -0.0248  0.2223 -0.0775
10435TIP3   OH252719   5.856   1.914   4.691  0.2235 -0.5386 -0.2080
10435TIP3    H152720   5.785   1.971   4.662  0.7942  0.5134  0.4021
10435TIP3    H252721   5.914   1.972   4.741  0.9372 -1.6125  0.2365
10436TIP3   OH252722   4.041   4.123   3.040  0.2293  0.2139 -0.3791
10436TIP3    H152723   4.117   4.071   3.015  1.6180  0.6512  2.4758
10436TIP3    H252724   4.076   4.212   3.050 -0.0810  0.0774  2.8740
10437TIP3   OH252725   5.086   4.267  14.384  0.3315  0.4571 -0.1248
10437TIP3    H152726   5.073   4.360  14.404 -0.1049  1.1001 -2.9913
10437TIP3    H252727   5.132   4.267  14.300 -0.3781 -1.9235 -0.5835
10438TIP3   OH252728   3.902   1.468   1.188  0.6752  0.0018  0.5452
10438TIP3    H152729   3.907   1.541   1.250 -1.2262 -0.8390  1.8010
10438TIP3    H252730   3.965   1.404   1.221  1.3537  0.5084  0.2418
10439TIP3   OH252731   2.320   2.013  13.601 -0.8751  0.1531 -0.4970
10439TIP3    H152732   2.286   2.021  13.512 -1.7441  1.1277 -0.0890
10439TIP3    H252733   2.276   2.081  13.650 -0.5145 -0.4713  0.7300
10440TIP3   OH252734   0.427   5.298  14.516 -0.2833  0.2307 -0.1665
10440TIP3    H152735   0.406   5.342  14.433 -1.3351  1.4966  0.7281
10440TIP3    H252736   0.508   5.250  14.498 -1.3094 -0.8258 -2.3788
10441TIP3   OH252737   1.180   4.522   2.470 -0.6256 -0.0537 -0.0840
10441TIP3    H152738   1.203   4.435   2.501 -0.2545  0.3283  0.7263
10441TIP3    H252739   1.123   4.506   2.395 -1.5561 -0.9845  0.7963
10442TIP3   OH252740   3.447   4.356  10.928 -0.1408 -0.5930 -0.0094
10442TIP3    H152741   3.372   4.343  10.987  0.5103  0.4902  1.0917
10442TIP3    H252742   3.407   4.365  10.842 -1.2609 -0.4553  0.4955
10443TIP3   OH252743   0.619   1.629  14.627 -0.1407 -0.4321 -0.3076
10443TIP3    H152744   0.683   1.682  14.674 -1.1980 -0.7364  1.5905
10443TIP3    H252745   0.650   1.539  14.637 -0.8629 -0.5879  0.6873
10444TIP3   OH252746   1.677   2.389  16.152  0.4300 -0.2805 -0.9429
10444TIP3    H152747   1.697   2.476  16.187  2.4641 -1.4047  0.9461
10444TIP3    H252748   1.691   2.397  16.058 -2.7604  2.2238 -1.3615
10445TIP3   OH252749   4.911   0.642  16.232 -0.2377 -0.3644 -0.0002
10445TIP3    H152750   4.850   0.657  16.304 -1.3844 -0.4250 -0.9201
10445TIP3    H252751   4.954   0.559  16.254  0.6805  0.4492  1.4209
10446TIP3   OH252752   2.753   0.494  13.449 -0.0891 -0.0975 -0.8478
10446TIP3    H152753   2.776   0.464  13.537 -2.0466 -0.4004 -0.3898
10446TIP3    H252754   2.836   0.523  13.411  0.8184 -0.0410  1.0549
10447TIP3   OH252755   0.172   4.605   4.973  0.3311 -0.0241 -0.2450
10447TIP3    H152756   0.232   4.542   5.012  0.0153  0.6085  1.3665
10447TIP3    H252757   0.193   4.605   4.880  3.7983  1.1943  0.4098
10448TIP3   OH252758   3.480   5.662   1.069 -0.1095 -0.3748  0.2615
10448TIP3    H152759   3.499   5.649   1.162 -0.1180  2.2636  0.7068
10448TIP3    H252760   3.548   5.612   1.024 -0.2472 -1.8991  1.6358
10449TIP3   OH252761   3.791   2.547   4.811 -0.4537  0.3020 -0.5511
10449TIP3    H152762   3.730   2.566   4.882  0.4786 -0.1637  0.4039
10449TIP3    H252763   3.877   2.544   4.853 -0.1110 -2.2072 -1.2783
10450TIP3   OH252764   3.771   0.312  15.717 -0.1103  0.5729 -0.2653
10450TIP3    H152765   3.752   0.396  15.759 -1.7291 -1.1094  2.6987
10450TIP3    H252766   3.865   0.312  15.704  0.4417  1.5592  2.9097
10451TIP3   OH252767   2.186   1.486   4.297 -1.1402  0.0337 -0.1335
10451TIP3    H152768   2.188   1.403   4.345 -3.5890  0.1843  0.3583
10451TIP3    H252769   2.139   1.466   4.216 -0.1531  0.5732 -0.8579
10452TIP3   OH252770   4.209   5.377  14.525  0.5241  0.5614 -0.0242
10452TIP3    H152771   4.165   5.344  14.446  0.1999  1.8045 -0.3868
10452TIP3    H252772   4.140   5.420  14.574  0.6272 -0.6131  1.2065
10453TIP3   OH252773   4.107   3.987   4.432 -0.6794  1.0496 -0.0779
10453TIP3    H152774   4.081   3.897   4.416 -0.7330  1.0426  0.0474
10453TIP3    H252775   4.105   4.029   4.346  2.7240  0.0714 -0.7934
10454TIP3   OH252776   3.631   0.477   4.405 -0.0433  0.2323 -0.3857
10454TIP3    H152777   3.554   0.526   4.376 -1.2348 -1.0990  0.3412
10454TIP3    H252778   3.622   0.391   4.363  0.8415 -0.0687  0.0098
10455TIP3   OH252779   5.349   1.740  10.796  0.0916 -0.7174 -0.5292
10455TIP3    H152780   5.261   1.725  10.762 -0.6853 -0.7389  1.3651
10455TIP3    H252781   5.374   1.656  10.834  0.1950 -0.2461  0.4788
10456TIP3   OH252782   5.856   2.748   6.033  0.6132  0.2281 -0.8481
10456TIP3    H152783   5.833   2.700   5.953 -1.6046 -0.0419 -0.1076
10456TIP3    H252784   5.912   2.688   6.082  1.7159  0.2644 -2.0072
10457TIP3   OH252785   5.380   1.841   4.375 -0.2140  0.1297  0.5447
10457TIP3    H152786   5.318   1.913   4.385  0.4657  0.7698  0.2765
10457TIP3    H252787   5.326   1.764   4.363 -0.9550  0.8657 -1.0299
10458TIP3   OH252788   3.289   0.794  14.646  0.2971  0.3595 -0.2999
10458TIP3    H152789   3.308   0.810  14.739 -0.0988 -0.0626 -0.1443
10458TIP3    H252790   3.231   0.866  14.621  1.2658  1.0861 -0.5112
10459TIP3   OH252791   6.067   5.429  16.697 -0.7543 -0.8188  0.0539
10459TIP3    H152792   6.051   5.409  16.790 -1.7470  1.2690  0.3979
10459TIP3    H252793   6.043   5.521  16.688 -0.0317 -0.7849 -2.1587
10460TIP3   OH252794   2.184   4.973   5.513  0.4509  0.1979 -0.0334
10460TIP3    H152795   2.154   5.063   5.524  2.1465  0.6342  1.6200
10460TIP3    H252796   2.249   4.978   5.442 -0.7850 -0.1016 -1.2184
10461TIP3   OH252797   1.125   0.161  14.858 -0.0308  0.3325 -0.8661
10461TIP3    H152798   1.200   0.219  14.874  1.0434 -1.1790 -0.2084
10461TIP3    H252799   1.161   0.087  14.810 -1.0398 -0.5495 -0.3212
10462TIP3   OH252800   5.787   3.705  13.325 -0.1279  0.1914 -0.2656
10462TIP3    H152801   5.781   3.715  13.420 -1.3172 -0.5386 -0.2459
10462TIP3    H252802   5.802   3.793  13.292  0.2393  0.4608  0.5899
10463TIP3   OH252803   5.923   5.670   2.583 -0.2758  0.6615 -0.3328
10463TIP3    H152804   5.986   5.671   2.511 -1.1385 -1.1189 -1.1584
10463TIP3    H252805   5.976   5.689   2.661  1.2150 -0.3584 -1.0532
10464TIP3   OH252806   0.398   5.557  13.198  0.1418  0.4466  0.2001
10464TIP3    H152807   0.481   5.599  13.220  1.3499 -2.3704  1.4379
10464TIP3    H252808   0.355   5.544  13.283 -1.3939  1.3634 -0.3762
10465TIP3   OH252809   2.046   4.029   0.673 -0.2223 -0.1359  0.1739
10465TIP3    H152810   1.994   3.979   0.736 -0.7313  0.1628 -0.0080
10465TIP3    H252811   2.098   4.088   0.728  0.7294 -1.1667  0.4204
10466TIP3   OH252812   1.040   2.195   3.056  0.2717  0.0662  0.1976
10466TIP3    H152813   1.066   2.190   2.964 -1.0769 -0.3501 -0.1916
10466TIP3    H252814   1.104   2.141   3.102 -0.8333 -2.4222 -0.9526
10467TIP3   OH252815   6.693   2.496  13.069  0.0073 -0.0647 -1.3310
10467TIP3    H152816   6.607   2.478  13.032 -1.1072  2.0166  0.0160
10467TIP3    H252817   6.708   2.589  13.049  1.5813 -0.1997 -0.8605
10468TIP3   OH252818   3.559   1.956  16.091 -0.0741 -0.5508  0.1823
10468TIP3    H152819   3.524   1.880  16.137 -0.4115  0.5827  1.8905
10468TIP3    H252820   3.529   2.031  16.142  2.4907  0.6239  0.1108
10469TIP3   OH252821   3.425   4.225  16.939 -0.8670 -0.1066 -0.2685
10469TIP3    H152822   3.426   4.239  16.845 -1.0440  0.2437 -0.2225
10469TIP3    H252823   3.436   4.313  16.976  0.4330 -0.3798  0.0453
10470TIP3   OH252824   2.447   5.317   1.111 -0.2293  0.1235 -0.2865
10470TIP3    H152825   2.387   5.242   1.113 -0.1784  0.0931  1.7987
10470TIP3    H252826   2.450   5.348   1.201  2.9925  0.0243 -0.2276
10471TIP3   OH252827   5.824   4.393   0.924  0.0657  0.6420 -0.0393
10471TIP3    H152828   5.783   4.450   0.859 -0.8124  1.5987  1.2917
10471TIP3    H252829   5.797   4.430   1.008  1.3312 -0.4363  0.8766
10472TIP3   OH252830   4.439   0.117   4.531 -0.1562  0.1565 -0.3300
10472TIP3    H152831   4.411   0.164   4.609 -1.4297 -0.5233 -0.3591
10472TIP3    H252832   4.535   0.120   4.535 -0.1690 -0.3619  1.5787
10473TIP3   OH252833   5.672   0.277   3.889 -0.0772 -0.1156 -0.2277
10473TIP3    H152834   5.610   0.220   3.934  1.4192 -1.2466  0.5041
10473TIP3    H252835   5.722   0.318   3.960  1.3134 -0.7728 -0.7889
10474TIP3   OH252836   5.417   3.202  13.452  0.3274  0.1714  0.5731
10474TIP3    H152837   5.415   3.179  13.545 -0.0711 -1.0367  0.2917
10474TIP3    H252838   5.325   3.211  13.428  0.4695  1.9426  0.6161
10475TIP3   OH252839   5.402   6.684  16.348  0.3366  0.1422  0.2358
10475TIP3    H152840   5.479   6.686  16.405  1.5298  0.4780 -1.3313
10475TIP3    H252841   5.347   6.756  16.381 -0.8367 -1.9614  3.2889
10476TIP3   OH252842   2.600   4.057   0.288 -0.1517  0.3320  0.2011
10476TIP3    H152843   2.687   4.094   0.303 -0.3733  1.4582 -1.1528
10476TIP3    H252844   2.618   3.969   0.253  0.4620  0.6663 -0.3525
10477TIP3   OH252845   1.656   5.586  13.474 -0.2847 -0.0815  0.6045
10477TIP3    H152846   1.697   5.562  13.557  2.6840 -0.9770 -0.9739
10477TIP3    H252847   1.679   5.678  13.462 -1.3649  0.2653  1.0837
10478TIP3   OH252848   2.972   5.113  16.264  0.4041 -0.5015  0.1041
10478TIP3    H152849   3.033   5.040  16.252  1.1694  0.3523 -1.5384
10478TIP3    H252850   3.028   5.189  16.281 -0.3000 -0.0041  0.2703
10479TIP3   OH252851   6.521   3.487  13.955 -0.0862  0.3651  0.0119
10479TIP3    H152852   6.489   3.430  14.025  0.4499  0.7130  0.5410
10479TIP3    H252853   6.451   3.551  13.942 -1.4063 -1.2657 -1.6399
10480TIP3   OH252854   6.592   1.308   4.815  0.2518  0.0116 -0.0125
10480TIP3    H152855   6.514   1.334   4.863 -0.5521  0.5777 -1.5457
10480TIP3    H252856   6.585   1.213   4.807  0.0507 -0.0107  0.4225
10481TIP3   OH252857   4.359   4.249   3.210  0.3605  0.1381  0.1850
10481TIP3    H152858   4.455   4.245   3.213  0.4107  0.8121 -0.2805
10481TIP3    H252859   4.340   4.340   3.186 -0.4009  0.0562  0.4678
10482TIP3   OH252860   1.762   3.680   2.656  0.1160  0.2252 -0.0845
10482TIP3    H152861   1.669   3.695   2.642 -0.2125 -1.1463  0.4735
10482TIP3    H252862   1.796   3.764   2.685 -1.4559  0.1647  2.1771
10483TIP3   OH252863   6.280   4.766  10.815 -0.4432 -0.5582 -0.1622
10483TIP3    H152864   6.371   4.794  10.826 -0.4810 -0.5000  0.0044
10483TIP3    H252865   6.228   4.838  10.852 -0.5010 -1.8277  2.4060
10484TIP3   OH252866   0.123   6.284   1.235  0.0967  0.5681 -0.4021
10484TIP3    H152867   0.115   6.303   1.141 -0.0805  1.7481 -0.1638
10484TIP3    H252868   0.061   6.213   1.250 -1.7214  1.9953 -0.7355
10485TIP3   OH252869   5.676   0.324   1.043  0.4094  0.5540  0.0323
10485TIP3    H152870   5.729   0.330   1.122 -0.3603 -1.6519  0.7703
10485TIP3    H252871   5.696   0.239   1.005 -1.5225  0.2436 -0.4320
10486TIP3   OH252872   3.522   2.746   5.948 -0.2515  0.3002  0.2840
10486TIP3    H152873   3.451   2.768   6.009  0.6761 -0.9136  1.8566
10486TIP3    H252874   3.594   2.717   6.003  1.4123  1.1804 -1.2915
10487TIP3   OH252875   2.244   5.771   0.670 -0.1978 -0.2292  0.8446
10487TIP3    H152876   2.186   5.703   0.704 -1.4871  0.4732  0.1115
10487TIP3    H252877   2.237   5.764   0.575 -1.2010  1.5894  0.7412
10488TIP3   OH252878   4.586   0.414   5.680  0.0569  0.0970 -0.1010
10488TIP3    H152879   4.542   0.334   5.652  0.8464  0.2618 -1.9584
10488TIP3    H252880   4.589   0.468   5.601  1.9092  0.8356  0.4320
10489TIP3   OH252881   0.939   4.191  13.274  0.5047 -0.0296  0.2305
10489TIP3    H152882   1.034   4.184  13.275  0.6449  1.4974  0.7218
10489TIP3    H252883   0.912   4.142  13.196  1.8031  0.5770 -0.6372
10490TIP3   OH252884   6.294   6.028   5.591 -0.0333 -0.7028 -0.2398
10490TIP3    H152885   6.349   6.002   5.665  0.0382 -1.3933 -0.5206
10490TIP3    H252886   6.355   6.036   5.518  0.0878  1.2233  0.0340
10491TIP3   OH252887   2.536   5.826  13.881 -0.1944  0.3059  0.2931
10491TIP3    H152888   2.540   5.748  13.937  1.2722 -0.6294 -0.9965
10491TIP3    H252889   2.450   5.863  13.897 -1.5494 -2.4178 -0.0686
10492TIP3   OH252890   5.367   4.940  11.214 -0.5255  0.0700 -0.3028
10492TIP3    H152891   5.430   4.936  11.142 -1.1590  0.4087 -0.8840
10492TIP3    H252892   5.327   4.853  11.215  0.1364 -0.2409  0.2500
10493TIP3   OH252893   4.988   2.771   5.645  0.3697 -0.0193 -0.2579
10493TIP3    H152894   4.986   2.804   5.556  1.3548 -0.1714 -0.3480
10493TIP3    H252895   5.072   2.725   5.652  0.1975 -0.2208  0.6688
10494TIP3   OH252896   0.344   5.188  10.856  0.0325  0.5008 -0.0831
10494TIP3    H152897   0.351   5.271  10.903  0.6093  1.0909 -1.1765
10494TIP3    H252898   0.428   5.180  10.810 -0.9948  0.6106 -2.0806
10495TIP3   OH252899   2.130   3.845  13.045 -0.0047 -0.2103  0.0926
10495TIP3    H152900   2.106   3.835  12.953  0.7848 -0.3295 -0.1028
10495TIP3    H252901   2.221   3.816  13.050 -0.4477 -1.5342  1.1642
10496TIP3   OH252902   5.874   4.674  11.557 -0.1261 -0.0698 -0.0088
10496TIP3    H152903   5.864   4.729  11.634  0.6240 -1.8938  1.4822
10496TIP3    H252904   5.848   4.729  11.483  3.1121  3.1591  1.0125
10497TIP3   OH252905   4.546   3.063   4.940 -0.2685  0.3145 -0.4026
10497TIP3    H152906   4.495   3.067   5.021 -2.2985 -0.7459 -1.5434
10497TIP3    H252907   4.563   2.970   4.927 -1.7367  0.2483 -2.1865
10498TIP3   OH252908   4.319   4.723  11.460  0.3285  0.0427 -0.4902
10498TIP3    H152909   4.291   4.686  11.544  1.2089 -1.6669 -0.8871
10498TIP3    H252910   4.384   4.660  11.428  1.1962  1.4977 -1.7044
10499TIP3   OH252911   5.837   6.687  13.687 -0.5977  0.3064 -0.4523
10499TIP3    H152912   5.863   6.778  13.697  2.0285 -0.3493 -0.6032
10499TIP3    H252913   5.809   6.679  13.596 -1.9847  1.1654 -0.1354
10500TIP3   OH252914   2.464   4.930   4.269  0.0118 -0.3384  0.2288
10500TIP3    H152915   2.520   4.942   4.346  1.4968  0.8034 -0.9571
10500TIP3    H252916   2.515   4.966   4.196 -1.9020 -0.1137 -1.0893
10501TIP3   OH252917   0.198   5.038  12.503 -0.0279  0.0169  0.7001
10501TIP3    H152918   0.217   4.945  12.517 -2.6701 -0.5422  1.3200
10501TIP3    H252919   0.244   5.061  12.423 -0.3764 -2.2338 -0.2228
10502TIP3   OH252920   0.044   1.056  11.745  0.2481 -0.5257 -0.2222
10502TIP3    H152921   0.039   1.138  11.794  0.6246 -1.9038  2.2507
10502TIP3    H252922  -0.038   1.053  11.695  0.7739  1.8914 -1.3868
10503TIP3   OH252923   6.024   3.632   3.529 -0.1910 -0.0137  0.2376
10503TIP3    H152924   6.031   3.675   3.615  1.6955  2.0200 -0.8323
10503TIP3    H252925   6.068   3.548   3.540 -3.2107 -1.5616  2.1611
10504TIP3   OH252926   6.068   0.273   0.287  0.1423  0.1897  0.6932
10504TIP3    H152927   6.056   0.277   0.382 -0.3404  1.2907  0.6094
10504TIP3    H252928   6.112   0.355   0.266 -0.3467  0.2527 -0.1086
10505TIP3   OH252929   0.024   3.429  15.620  0.3875 -0.4114  0.8564
10505TIP3    H152930   0.031   3.353  15.562 -0.4530  0.5363 -0.5502
10505TIP3    H252931  -0.004   3.392  15.704  1.0037 -1.7537  0.4997
10506TIP3   OH252932   1.788   0.523   6.454  0.6186  0.0908 -0.0556
10506TIP3    H152933   1.704   0.565   6.472  0.2736 -0.3744 -0.5310
10506TIP3    H252934   1.853   0.580   6.495 -0.0413 -0.3800  1.7669
10507TIP3   OH252935   3.105   2.503   2.519  0.4962 -0.0395 -0.2223
10507TIP3    H152936   3.091   2.590   2.481 -0.6948 -0.7923 -1.6216
10507TIP3    H252937   3.033   2.492   2.581  0.1083 -0.3819 -0.7300
10508TIP3   OH252938   3.169   3.757  16.036  0.3957  0.2325 -0.0298
10508TIP3    H152939   3.167   3.832  15.977  0.6586 -0.1198 -0.4975
10508TIP3    H252940   3.083   3.716  16.026  0.9033 -0.6090 -1.2200
10509TIP3   OH252941   3.988   0.482  15.600  0.4728 -0.1231  0.1863
10509TIP3    H152942   3.969   0.553  15.539  1.7426 -1.0867 -1.4033
10509TIP3    H252943   4.015   0.526  15.681 -1.0615  1.1782  0.0388
10510TIP3   OH252944   3.929   2.629   4.473  0.3749  0.1260 -0.9181
10510TIP3    H152945   3.946   2.582   4.391 -0.4598  0.1356 -1.1060
10510TIP3    H252946   3.972   2.713   4.461  0.6556 -0.0451 -1.1574
10511TIP3   OH252947   1.234   0.180   1.384  0.0029  0.1712  1.1075
10511TIP3    H152948   1.224   0.238   1.308 -0.7130  1.1164  1.8902
10511TIP3    H252949   1.144   0.166   1.415  0.1949 -1.1218  1.1231
10512TIP3   OH252950   5.359   3.707  16.124 -0.4559  0.3960  0.3836
10512TIP3    H152951   5.289   3.688  16.062  1.0192 -0.7041 -1.0492
10512TIP3    H252952   5.429   3.645  16.101  0.5261  0.6042  2.5476
10513TIP3   OH252953   0.271   6.295  14.582 -0.0094  0.5431 -0.1290
10513TIP3    H152954   0.264   6.257  14.495 -1.2045  0.1956  0.0844
10513TIP3    H252955   0.354   6.263  14.616 -0.1880 -0.5026 -0.6168
10514TIP3   OH252956   3.150   0.111   0.073  0.2197  0.2464  0.2550
10514TIP3    H152957   3.075   0.146   0.121  0.0901 -0.4456  0.5835
10514TIP3    H252958   3.138   0.016   0.078 -0.0462  0.1561 -1.5646
10515TIP3   OH252959   0.758   4.514   3.327  0.8549  0.0901  0.7826
10515TIP3    H152960   0.711   4.497   3.246 -0.8897 -2.0968  2.1481
10515TIP3    H252961   0.848   4.488   3.308  0.0556 -2.4828  0.0803
10516TIP3   OH252962   4.201   2.882  15.503 -0.4771  0.5128  0.0337
10516TIP3    H152963   4.257   2.863  15.428  1.7936  4.3962  0.4675
10516TIP3    H252964   4.135   2.943  15.469 -1.2539  0.0211  0.6213
10517TIP3   OH252965   5.964   2.877  16.458 -0.0817  0.2341  0.1663
10517TIP3    H152966   5.876   2.842  16.472 -0.7398  1.1677 -1.4176
10517TIP3    H252967   5.995   2.832  16.379  1.2874 -0.8255  1.2672
10518TIP3   OH252968   2.748   3.878   3.769 -0.2166 -0.3361 -0.2604
10518TIP3    H152969   2.682   3.941   3.741  1.1432  0.9964 -0.6004
10518TIP3    H252970   2.828   3.904   3.723  1.5747  0.5545  3.0131
10519TIP3   OH252971   5.057   1.928  15.259  0.5282 -0.2603  0.2226
10519TIP3    H152972   5.004   1.944  15.181  1.0052 -0.4217 -0.1420
10519TIP3    H252973   5.024   1.990  15.324 -0.1155 -0.3707  0.0112
10520TIP3   OH252974   2.564   5.699  17.090  0.5923  0.2823 -0.2663
10520TIP3    H152975   2.527   5.738  17.169  1.1485 -0.0830  0.1799
10520TIP3    H252976   2.498   5.636  17.061  0.9618 -0.5694  0.6835
10521TIP3   OH252977   3.765   1.011  13.641  0.0493 -0.0102  0.0402
10521TIP3    H152978   3.713   1.039  13.717  0.5575 -0.6596  0.6312
10521TIP3    H252979   3.830   0.951  13.677  2.0947  1.7837 -0.4745
10522TIP3   OH252980   1.990   3.384  16.113 -0.1966 -0.0753  0.3708
10522TIP3    H152981   1.980   3.408  16.021 -0.9659  1.7787  0.8904
10522TIP3    H252982   1.912   3.420  16.156  0.0805 -1.0140  1.7346
10523TIP3   OH252983   3.797   5.398  16.634 -0.4101  0.3602  0.2308
10523TIP3    H152984   3.771   5.484  16.599  1.5705  0.9909  0.1990
10523TIP3    H252985   3.779   5.404  16.727 -0.3933  0.7831  0.2113
10524TIP3   OH252986   3.544   0.253  10.517 -0.0472  0.7893  0.2636
10524TIP3    H152987   3.565   0.319  10.451  2.0161 -1.0073 -0.9903
10524TIP3    H252988   3.622   0.198  10.523 -2.2424 -2.6588 -0.1014
10525TIP3   OH252989   1.590   0.170   1.040  0.0181  0.4584 -0.3060
10525TIP3    H152990   1.635   0.161   1.124  0.9182  2.7415 -0.4694
10525TIP3    H252991   1.656   0.146   0.975 -0.0668  0.5538 -0.4276
10526TIP3   OH252992   3.419   4.715   0.071 -0.2440  0.0903 -0.0585
10526TIP3    H152993   3.412   4.626   0.037 -0.6328  0.2011 -0.2708
10526TIP3    H252994   3.437   4.704   0.164 -0.7349 -0.2058  0.0023
10527TIP3   OH252995   1.841   3.877  12.873  0.5619  0.0556 -0.2990
10527TIP3    H152996   1.901   3.889  12.799  1.5229 -0.9632  0.2871
10527TIP3    H252997   1.771   3.823  12.837  0.5035  0.4051 -0.7248
10528TIP3   OH252998   2.814   1.817  15.531 -0.8739 -0.1131  0.4934
10528TIP3    H152999   2.903   1.797  15.505 -1.5799 -0.8613 -1.5899
10528TIP3    H253000   2.800   1.768  15.612 -0.0212 -1.6233 -0.2397
10529TIP3   OH253001   6.157   6.538   1.654  0.3428 -0.1611 -0.1218
10529TIP3    H153002   6.119   6.491   1.729  1.2464  0.7241  0.9102
10529TIP3    H253003   6.086   6.540   1.589 -1.0859  0.6603  1.4010
10530TIP3   OH253004   4.311   4.763   5.704 -0.3184 -0.7308 -0.3977
10530TIP3    H153005   4.387   4.802   5.660  0.0359  0.8167  1.4782
10530TIP3    H253006   4.347   4.716   5.779 -1.1259 -0.9093 -0.1065
10531TIP3   OH253007   1.149   3.749   5.200 -0.6407  0.5578 -0.4482
10531TIP3    H153008   1.180   3.815   5.263 -1.1137  1.0377 -0.7157
10531TIP3    H253009   1.064   3.722   5.234 -0.3141 -0.1535 -0.1698
10532TIP3   OH253010   0.740   2.292   5.079 -0.3658 -0.4862  0.3345
10532TIP3    H153011   0.676   2.363   5.079 -0.5808 -0.6665  0.9402
10532TIP3    H253012   0.758   2.277   5.172 -1.0642 -1.8699  0.2833
10533TIP3   OH253013   3.306   5.812   1.589 -0.1585  0.4155  0.0386
10533TIP3    H153014   3.272   5.723   1.598  0.9328 -0.0244  0.0297
10533TIP3    H253015   3.233   5.863   1.555 -1.1558 -0.2143  1.1683
10534TIP3   OH253016   3.606   4.093  14.129  0.6752 -0.4452 -0.3330
10534TIP3    H153017   3.598   4.077  14.035 -1.1273  0.2242 -0.3313
10534TIP3    H253018   3.581   4.185  14.140  1.2520 -0.4031  0.7702
10535TIP3   OH253019   5.882   3.161   1.075 -0.0819 -0.3871  0.1077
10535TIP3    H153020   5.885   3.127   1.164  1.8579  1.6610  0.9226
10535TIP3    H253021   5.960   3.123   1.033  1.5137  1.9879  0.7123
10536TIP3   OH253022   0.101   5.071  12.871 -0.0018  0.0991  0.0755
10536TIP3    H153023   0.093   5.063  12.966 -0.3385  2.6752  0.3249
10536TIP3    H253024   0.054   4.995  12.837  0.3468 -1.0199  1.9457
10537TIP3   OH253025   5.068   4.488  12.233  0.1870 -0.1099  0.0452
10537TIP3    H153026   5.052   4.524  12.146 -0.3511  1.0689  0.6038
10537TIP3    H253027   4.981   4.475  12.270  0.4094 -0.0614  0.6062
10538TIP3   OH253028   2.593   3.148  11.803  0.2050 -0.1275 -0.4487
10538TIP3    H153029   2.528   3.176  11.867 -0.6751 -3.6698  0.3955
10538TIP3    H253030   2.677   3.161  11.848 -0.1054  1.1242 -0.1748
10539TIP3   OH253031   5.892   6.750   1.978 -0.6890  0.1681 -0.1787
10539TIP3    H153032   5.944   6.733   2.056  1.8459 -1.3462 -2.0172
10539TIP3    H253033   5.910   6.841   1.956 -0.9125  0.4136  0.6249
10540TIP3   OH253034   1.344   4.455   4.974  0.3850  0.5758 -0.1521
10540TIP3    H153035   1.322   4.464   4.881  1.0978  0.1801 -0.3696
10540TIP3    H253036   1.329   4.542   5.011  0.3172  0.7974 -0.6917
10541TIP3   OH253037   0.745   4.734  15.538 -0.3048  0.0660 -0.2704
10541TIP3    H153038   0.829   4.689  15.527 -0.8916 -0.8561 -1.2020
10541TIP3    H253039   0.765   4.826  15.523  0.6904 -0.0354  0.3845
10542TIP3   OH253040   0.168   5.202   0.702 -0.4969 -0.0258  0.2450
10542TIP3    H153041   0.177   5.295   0.681  0.3097 -0.6479 -2.6331
10542TIP3    H253042   0.252   5.178   0.740 -0.4379  0.2681  0.3022
10543TIP3   OH253043   3.342   1.420   0.407  0.2396 -0.1609  0.3510
10543TIP3    H153044   3.373   1.477   0.478  0.0243 -0.5297  0.7422
10543TIP3    H253045   3.257   1.456   0.383  1.2635  1.3526 -1.2756
10544TIP3   OH253046   6.650   5.000  12.093  0.1210 -0.1748 -0.4186
10544TIP3    H153047   6.725   5.039  12.049  1.0600  0.2947  1.4693
10544TIP3    H253048   6.587   5.072  12.101  0.8829  0.3774  0.9540
10545TIP3   OH253049   5.872   5.927   0.865 -0.4719  0.1370  0.2311
10545TIP3    H153050   5.891   6.001   0.807 -0.2129 -2.1105 -2.7485
10545TIP3    H253051   5.784   5.900   0.841 -0.4464 -0.7205  1.0738
10546TIP3   OH253052   6.698   3.435  14.240 -0.3102  0.1731 -0.2879
10546TIP3    H153053   6.774   3.493  14.236 -0.1715 -0.0383 -0.7087
10546TIP3    H253054   6.721   3.369  14.305 -0.7291  0.9548  0.6883
10547TIP3   OH253055   6.404   0.936   5.870  0.2045  0.3019 -0.6201
10547TIP3    H153056   6.373   1.022   5.841  0.0349  0.3394 -0.3322
10547TIP3    H253057   6.354   0.873   5.819  0.5198  0.3749 -1.0269
10548TIP3   OH253058   3.032   2.523   6.372 -0.4642  0.1616 -0.2278
10548TIP3    H153059   3.076   2.608   6.365  1.0316 -0.5915 -0.4500
10548TIP3    H253060   3.103   2.460   6.388 -1.6903 -0.8460  1.7695
10549TIP3   OH253061   4.301   6.161   3.375  0.9656 -0.0073 -0.2200
10549TIP3    H153062   4.211   6.192   3.385  1.2846  0.9199 -0.1239
10549TIP3    H253063   4.331   6.201   3.293  2.0252  1.6186  0.8852
10550TIP3   OH253064   5.556   2.305  13.954 -0.4500  0.4228 -0.4768
10550TIP3    H153065   5.464   2.282  13.963 -0.0557 -0.7162  0.9503
10550TIP3    H253066   5.582   2.338  14.040  0.6220  0.1845 -0.6893
10551TIP3   OH253067   6.615   3.622   2.956  0.1393 -0.3353 -0.3422
10551TIP3    H153068   6.648   3.542   2.914  2.4213 -0.3073  1.1830
10551TIP3    H253069   6.547   3.591   3.016 -0.0871 -0.9144 -0.8833
10552TIP3   OH253070   4.714   4.875  17.212  0.2613  0.4086  0.4591
10552TIP3    H153071   4.751   4.947  17.263  0.2680  0.0453  0.9625
10552TIP3    H253072   4.716   4.800  17.270 -1.3504  0.3941  0.5559
10553TIP3   OH253073   0.674   2.792   3.305 -0.2331  0.2186 -0.4247
10553TIP3    H153074   0.604   2.837   3.256 -0.1527  0.4583 -0.3227
10553TIP3    H253075   0.750   2.849   3.294 -0.7978  1.5619  1.9558
10554TIP3   OH253076   5.661   0.018  15.351  0.0887 -0.0705 -0.3472
10554TIP3    H153077   5.606   0.081  15.306  1.2440 -0.0128 -1.7421
10554TIP3    H253078   5.727   0.071  15.396  1.2614 -0.2545 -1.7926
10555TIP3   OH253079   1.422   4.559  15.044 -0.7437 -0.4168  0.2217
10555TIP3    H153080   1.379   4.645  15.042  2.4956  1.4118  1.0254
10555TIP3    H253081   1.446   4.542  14.953  1.4047  1.2348  0.3892
10556TIP3   OH253082   5.903   0.699   2.916 -0.7728  0.3602 -0.4854
10556TIP3    H153083   5.837   0.728   2.980 -2.3342 -1.1308 -1.3338
10556TIP3    H253084   5.966   0.771   2.912 -0.5812  0.4817  2.7314
10557TIP3   OH253085   0.855   1.530  12.046  0.1654  0.0453  0.3272
10557TIP3    H153086   0.779   1.492  12.090  0.5816  0.6841  1.6530
10557TIP3    H253087   0.929   1.510  12.103  1.0528 -0.6803 -1.0040
10558TIP3   OH253088   3.974   4.927   2.030  0.4566  0.0843 -0.2084
10558TIP3    H153089   3.894   4.925   1.976  0.0708  0.9084  0.2980
10558TIP3    H253090   3.997   5.020   2.034  0.3376  0.0699  1.2341
10559TIP3   OH253091   5.281   1.679   5.770  0.1438 -0.3498  0.1166
10559TIP3    H153092   5.240   1.608   5.721  0.8465 -0.9678  0.4195
10559TIP3    H253093   5.361   1.699   5.721 -0.4108  0.7542 -0.3870
10560TIP3   OH253094   2.787   4.705  13.300 -0.2584 -0.2189  0.3328
10560TIP3    H153095   2.841   4.765  13.352 -1.2945  0.5641  0.5330
10560TIP3    H253096   2.839   4.624  13.295  0.7182  0.3540  0.9106
10561TIP3   OH253097   5.239   4.853   5.606  0.7345 -0.4067 -0.0580
10561TIP3    H153098   5.249   4.913   5.681  0.1347  0.4022 -0.6059
10561TIP3    H253099   5.148   4.825   5.610  0.4585  0.3157 -0.9652
10562TIP3   OH253100   2.560   1.450   0.072 -0.6987  0.0861 -0.4353
10562TIP3    H153101   2.563   1.531   0.020 -1.2260 -0.9194 -2.1269
10562TIP3    H253102   2.561   1.380   0.006  0.1236 -1.3008  0.9964
10563TIP3   OH253103   0.834   5.445   5.452 -0.5440  0.6053  0.4977
10563TIP3    H153104   0.887   5.524   5.440 -1.7793  1.2318 -1.2329
10563TIP3    H253105   0.856   5.389   5.378 -0.0061 -0.5320  1.4753
10564TIP3   OH253106   5.805   6.249  17.181  0.0849 -0.1346  0.1528
10564TIP3    H153107   5.890   6.228  17.221 -0.6406  1.3762  2.7706
10564TIP3    H253108   5.747   6.179  17.209 -0.2058  0.4457  1.0709
10565TIP3   OH253109   2.809   1.244  16.174 -0.2550 -0.1550  0.0122
10565TIP3    H153110   2.886   1.255  16.118 -1.6354 -1.1898 -2.2721
10565TIP3    H253111   2.787   1.332  16.203  2.6928  0.0048  2.1565
10566TIP3   OH253112   3.922   2.840   4.998 -0.0798  0.0418 -0.3682
10566TIP3    H153113   3.908   2.814   4.907 -0.9944  2.2465 -0.9285
10566TIP3    H253114   3.977   2.918   4.992  2.0915 -1.2588  1.1635
10567TIP3   OH253115   3.600   4.986   4.710 -0.0660 -0.1380 -0.4174
10567TIP3    H153116   3.622   4.893   4.697  2.7716 -0.2590  3.4089
10567TIP3    H253117   3.517   4.984   4.758  1.3219 -1.0662  2.1739
10568TIP3   OH253118   4.015   1.378   0.088 -0.2081  0.4806  0.0161
10568TIP3    H153119   4.071   1.376   0.011  0.4147  0.4130  0.4612
10568TIP3    H253120   4.025   1.292   0.128 -0.1924  0.6600  0.4083
10569TIP3   OH253121   4.563   0.907  13.619 -0.0649  0.1209  0.0375
10569TIP3    H153122   4.501   0.963  13.666  1.4302  0.7932  1.2949
10569TIP3    H253123   4.617   0.867  13.687  0.9100 -0.4336 -1.0094
10570TIP3   OH253124   0.902   0.159   4.475  0.4174  0.5842 -0.0617
10570TIP3    H153125   0.840   0.116   4.534  0.4784  0.7268  0.1072
10570TIP3    H253126   0.898   0.251   4.499  0.5468  0.6215 -0.1864
10571TIP3   OH253127   1.457   0.144   5.272  0.0048 -0.3854  0.4670
10571TIP3    H153128   1.510   0.168   5.348 -0.4308  0.3381  0.5582
10571TIP3    H253129   1.481   0.208   5.205 -0.2171 -0.5114  0.2657
10572TIP3   OH253130   3.528   1.036  10.994  0.1966 -0.2628  0.3316
10572TIP3    H153131   3.503   1.070  11.080  0.0080  0.7387 -0.1081
10572TIP3    H253132   3.478   1.088  10.932  0.0928 -1.1962 -0.3853
10573TIP3   OH253133   1.969   5.972   4.824  0.2934 -0.5461  0.1820
10573TIP3    H153134   2.046   5.993   4.771 -1.0653  2.2756 -0.8819
10573TIP3    H253135   1.898   5.962   4.761 -0.9116  0.5877  1.2816
10574TIP3   OH253136   2.403   0.203   5.883 -0.2868  0.0392 -0.0089
10574TIP3    H153137   2.436   0.195   5.973 -0.6367 -1.0951  0.0348
10574TIP3    H253138   2.319   0.248   5.893 -0.5299 -0.4624  0.2923
10575TIP3   OH253139   3.186   2.215  16.736  0.3628  0.3570  0.3130
10575TIP3    H153140   3.199   2.173  16.650 -0.8545  0.9741 -0.1924
10575TIP3    H253141   3.212   2.148  16.799  0.8289 -0.2779 -0.5277
10576TIP3   OH253142   3.013   6.788   3.613 -0.2221 -0.2583  0.4563
10576TIP3    H153143   3.094   6.808   3.566  0.1775  0.9017  1.5729
10576TIP3    H253144   2.954   6.860   3.592 -2.1275 -2.4980 -2.6869
10577TIP3   OH253145   1.178   5.590  15.416 -0.4048 -0.6947  0.6531
10577TIP3    H153146   1.131   5.602  15.499 -1.8478 -1.3174 -0.0480
10577TIP3    H253147   1.138   5.514  15.376  0.5974 -0.6875 -0.4201
10578TIP3   OH253148   3.049   0.578   4.331 -0.2156  0.1983 -0.1641
10578TIP3    H153149   3.027   0.540   4.246 -0.3813 -0.6398  0.2350
10578TIP3    H253150   3.027   0.509   4.394  1.0770  0.3153  0.4645
10579TIP3   OH253151   3.276   1.142  10.529  0.4184  0.3705  0.3007
10579TIP3    H153152   3.268   1.237  10.517 -0.9867  0.3571  0.8837
10579TIP3    H253153   3.188   1.109  10.514  0.3268 -0.5477  2.4922
10580TIP3   OH253154   5.062   0.443   3.287  0.4454  0.8187 -0.0573
10580TIP3    H153155   5.075   0.386   3.211 -2.6328 -0.7926  0.4786
10580TIP3    H253156   5.002   0.511   3.256 -0.0862  0.6858  0.6549
10581TIP3   OH253157   1.111   0.912   2.586 -0.2671 -0.2108  0.3540
10581TIP3    H153158   1.100   0.922   2.680 -1.2220 -1.5808  0.4116
10581TIP3    H253159   1.156   0.992   2.558 -0.3468  0.3937  1.8963
10582TIP3   OH253160   3.773   5.719   4.691  0.1784 -0.4085 -0.3408
10582TIP3    H153161   3.698   5.728   4.750  1.3198 -1.9429  1.4479
10582TIP3    H253162   3.734   5.694   4.607 -1.3622 -0.3727  0.3286
10583TIP3   OH253163   0.249   5.681  11.658  0.0965  0.5275  0.1932
10583TIP3    H153164   0.218   5.721  11.577 -1.7355  0.7882  0.9745
10583TIP3    H253165   0.312   5.744  11.694  1.7298 -0.0570 -1.4797
10584TIP3   OH253166   0.802   4.514   0.159  0.1555 -0.2791 -0.0449
10584TIP3    H153167   0.741   4.551   0.223 -0.3112 -2.2643  0.7574
10584TIP3    H253168   0.880   4.568   0.165 -0.1639  0.0301  1.6779
10585TIP3   OH253169   3.745   5.567   1.074  0.3826  0.2831  0.1261
10585TIP3    H153170   3.745   5.504   1.002  0.2138 -0.9131  1.1226
10585TIP3    H253171   3.829   5.553   1.117  0.5551  1.1089  0.0628
10586TIP3   OH253172   5.911   1.744  15.688 -0.3850 -0.5309 -0.3263
10586TIP3    H153173   5.894   1.810  15.620  0.9676  0.2644  0.0705
10586TIP3    H253174   5.827   1.733  15.732 -0.8350  0.3101 -0.9476
10587TIP3   OH253175   4.444   5.051   3.837  0.2286 -0.0070 -0.0230
10587TIP3    H153176   4.432   4.960   3.864 -0.4447 -0.4700 -1.7568
10587TIP3    H253177   4.393   5.060   3.756  0.3882  1.8762  0.0266
10588TIP3   OH253178   4.578   3.525  11.775  0.0664  0.3677 -0.2811
10588TIP3    H153179   4.500   3.481  11.808 -0.6391 -0.6795 -3.0436
10588TIP3    H253180   4.647   3.499  11.835 -1.1156 -1.3378  0.4404
10589TIP3   OH253181   5.659   0.922  14.991  0.0801 -0.1157 -0.5579
10589TIP3    H153182   5.653   0.845  14.933  1.4075  0.5029 -1.5856
10589TIP3    H253183   5.705   0.987  14.938  1.2833  0.5078  1.1795
10590TIP3   OH253184   2.373   2.533  11.849 -0.3330  0.0351  0.4626
10590TIP3    H153185   2.372   2.458  11.908 -0.2438 -0.5119 -0.2071
10590TIP3    H253186   2.413   2.499  11.768 -0.8649  0.6340 -0.0645
10591TIP3   OH253187   0.112   2.212   4.157  0.1534  0.2401  0.4295
10591TIP3    H153188   0.101   2.132   4.209 -2.2362  0.5485  0.5209
10591TIP3    H253189   0.198   2.202   4.116  0.4592 -1.7955  1.4083
10592TIP3   OH253190   2.481   4.029   0.956 -0.4800 -0.3941  0.4201
10592TIP3    H153191   2.464   4.056   0.866  0.7716 -1.3961 -0.1354
10592TIP3    H253192   2.560   3.975   0.952  0.6191  0.9162  2.3461
10593TIP3   OH253193   3.026   5.242   6.566 -0.1441  0.2468 -0.2411
10593TIP3    H153194   2.955   5.305   6.576 -0.7112 -0.3784 -0.2863
10593TIP3    H253195   3.093   5.289   6.516 -1.4168  0.1652 -2.1237
10594TIP3   OH253196   4.042   0.761  11.182 -0.2517  0.3748 -0.3415
10594TIP3    H153197   4.117   0.702  11.187  0.1099  0.8912  0.6347
10594TIP3    H253198   4.069   0.828  11.119  1.1157  1.8750  1.7151
10595TIP3   OH253199   2.869   1.675  11.201 -0.8276 -0.4338  0.2396
10595TIP3    H153200   2.797   1.719  11.245 -0.0362  0.5386  0.5937
10595TIP3    H253201   2.865   1.707  11.111 -0.4804  0.0762  0.4047
10596TIP3   OH253202   0.508   4.365  13.899 -0.1842 -0.4307 -0.6560
10596TIP3    H153203   0.466   4.322  13.973  0.5594  0.2616  0.1881
10596TIP3    H253204   0.579   4.416  13.938  1.1883 -1.2399 -1.9856
10597TIP3   OH253205   3.412   2.966   2.603  0.5870 -0.2000  0.0873
10597TIP3    H153206   3.415   3.053   2.642  1.4801  0.0845 -0.5753
10597TIP3    H253207   3.447   2.908   2.670  0.2494 -0.0172  0.4276
10598TIP3   OH253208   0.405   6.331  15.612 -0.0181 -0.2304 -0.4251
10598TIP3    H153209   0.319   6.345  15.652 -0.4488 -0.6739 -1.1543
10598TIP3    H253210   0.465   6.320  15.685 -0.4202  0.9841  0.1056
10599TIP3   OH253211   0.640   5.485   2.606  0.1180 -0.1954  0.4861
10599TIP3    H153212   0.684   5.556   2.558  0.7423 -0.1187  1.1611
10599TIP3    H253213   0.682   5.405   2.574  0.2739 -0.1726  0.6365
10600TIP3   OH253214   0.802   4.144  14.289 -0.1108  0.3097  0.4747
10600TIP3    H153215   0.852   4.162  14.210  1.3381 -1.6763  0.8619
10600TIP3    H253216   0.843   4.066  14.327 -1.0350  0.9282  2.9663
10601TIP3   OH253217   2.605   2.812   0.483  0.1654  0.2486  0.3230
10601TIP3    H153218   2.663   2.884   0.458 -1.2127  1.4596  0.4533
10601TIP3    H253219   2.589   2.826   0.576  0.7947 -0.9265  0.6223
10602TIP3   OH253220   1.381   6.014   0.612 -0.0890  0.4208  0.0798
10602TIP3    H153221   1.405   5.931   0.651 -0.2925 -0.2071 -1.0884
10602TIP3    H253222   1.463   6.050   0.579 -0.1596  0.1414 -0.4116
10603TIP3   OH253223   6.412   1.429  13.575 -0.4113  0.0127  0.0642
10603TIP3    H153224   6.451   1.416  13.489  1.3184 -0.7810  0.9109
10603TIP3    H253225   6.338   1.488  13.560  0.4420  0.6719 -1.8086
10604TIP3   OH253226   4.464   0.397   1.666  0.3305  0.0616  0.4318
10604TIP3    H153227   4.553   0.388   1.631  0.7250 -1.3799  1.7218
10604TIP3    H253228   4.436   0.483   1.635  1.5397 -0.1345 -1.3830
10605TIP3   OH253229   4.807   0.180   2.132  0.2487 -0.6357  0.4323
10605TIP3    H153230   4.717   0.154   2.152 -0.4473  1.5773  0.3753
10605TIP3    H253231   4.850   0.186   2.218 -0.6942  1.7130  0.8109
10606TIP3   OH253232   4.811   0.797   5.173  0.1283 -0.3317  0.1216
10606TIP3    H153233   4.793   0.724   5.113  0.6686 -0.6416  0.3230
10606TIP3    H253234   4.812   0.875   5.117 -1.8655 -0.2609  0.1090
10607TIP3   OH253235   1.155   5.599   0.379  0.2501 -0.3557 -0.1761
10607TIP3    H153236   1.198   5.684   0.367 -0.4163  0.3022  1.7838
10607TIP3    H253237   1.064   5.615   0.354  0.5746 -1.1391 -2.0351
10608TIP3   OH253238   2.691   0.736  14.988 -0.3824 -0.2657 -0.3169
10608TIP3    H153239   2.755   0.758  15.055 -2.1539  1.1207  1.0149
10608TIP3    H253240   2.641   0.664  15.026 -0.8420 -0.0533 -0.5111
10609TIP3   OH253241   4.682   6.410   2.358  0.0287  0.1783 -0.3310
10609TIP3    H153242   4.650   6.448   2.440  0.9220 -0.6463  0.4273
10609TIP3    H253243   4.775   6.393   2.374 -0.1065 -1.3465 -1.0024
10610TIP3   OH253244   3.386   6.194   4.037  0.2907 -0.0064 -0.4970
10610TIP3    H153245   3.384   6.126   4.104 -1.2347 -1.7913 -2.2095
10610TIP3    H253246   3.367   6.275   4.084  0.5243 -0.9827  1.3779
10611TIP3   OH253247   6.419   3.156  16.003 -0.1517  0.2574 -0.0723
10611TIP3    H153248   6.399   3.220  16.071 -3.0934 -0.9533  0.3775
10611TIP3    H253249   6.396   3.071  16.042 -0.6045 -0.6065 -2.0729
10612TIP3   OH253250   0.911   3.315   5.950 -0.6013  0.3970  0.2936
10612TIP3    H153251   0.962   3.392   5.976  1.4240  0.2661 -2.7201
10612TIP3    H253252   0.836   3.351   5.904 -1.0276  0.5465  1.0805
10613TIP3   OH253253   0.909   3.073   2.958  0.3859 -0.7397  0.4216
10613TIP3    H153254   0.966   3.120   2.897 -0.7744  0.4540  0.1976
10613TIP3    H253255   0.884   2.994   2.910  0.1117 -0.1983 -0.3628
10614TIP3   OH253256   0.427   2.985  15.987  0.2875 -0.6537 -0.1070
10614TIP3    H153257   0.361   3.037  15.942  0.4981  1.1722  1.5409
10614TIP3    H253258   0.446   3.035  16.067  1.7668 -2.4387  0.7307
10615TIP3   OH253259   1.154   5.867  17.175 -0.1554 -0.2935 -0.9417
10615TIP3    H153260   1.191   5.940  17.225 -1.1090 -0.5042  0.1081
10615TIP3    H253261   1.102   5.909  17.106  0.6733 -0.0041 -1.4109
10616TIP3   OH253262   2.504   1.827   1.081 -0.5785 -0.1701  0.1016
10616TIP3    H153263   2.455   1.760   1.033 -1.2245 -0.6035  1.3017
10616TIP3    H253264   2.509   1.901   1.021 -2.0699 -0.3897 -0.3540
10617TIP3   OH253265   5.844   2.540   3.549  0.1040  0.1607 -0.1497
10617TIP3    H153266   5.931   2.544   3.587  0.1657  0.9102 -0.3619
10617TIP3    H253267   5.801   2.620   3.579 -0.5074 -0.1954 -0.0598
10618TIP3   OH253268   3.419   4.828   0.726 -0.4803 -0.5993  0.0699
10618TIP3    H153269   3.492   4.877   0.690 -0.0263 -1.0393  0.3765
10618TIP3    H253270   3.385   4.777   0.653 -0.1236 -0.8141  0.0507
10619TIP3   OH253271   0.146   6.728  10.807  0.3853 -0.2926  0.0175
10619TIP3    H153272   0.082   6.676  10.759 -2.1504  0.1470  2.6044
10619TIP3    H253273   0.162   6.805  10.752 -1.3337 -0.4432 -0.7378
10620TIP3   OH253274   2.219   2.265   2.201 -0.2898  0.1413 -0.4541
10620TIP3    H153275   2.146   2.308   2.245 -0.1095  0.0744 -0.0887
10620TIP3    H253276   2.257   2.333   2.145 -0.4604  0.2511 -0.4363
10621TIP3   OH253277   2.469   5.889   2.777 -0.5591  0.3139 -0.3148
10621TIP3    H153278   2.478   5.953   2.707 -0.0300  0.6453  0.0552
10621TIP3    H253279   2.420   5.817   2.737 -2.2817  1.4637 -0.3908
10622TIP3   OH253280   2.791   5.302   3.367  0.1785 -0.2009 -0.1947
10622TIP3    H153281   2.767   5.394   3.352  0.5571  0.4450  2.7091
10622TIP3    H253282   2.709   5.254   3.355 -0.1024  0.5239 -1.3771
10623TIP3   OH253283   3.535   3.415  13.511  0.1245 -0.7474  0.5471
10623TIP3    H153284   3.552   3.338  13.456  0.5778  0.2704 -0.8047
10623TIP3    H253285   3.610   3.418  13.570  1.3465 -0.0410 -0.9736
10624TIP3   OH253286   1.034   4.629   4.442 -0.2951 -0.4078  0.8977
10624TIP3    H153287   1.035   4.578   4.360 -0.2861 -0.6697  1.0596
10624TIP3    H253288   1.125   4.656   4.453 -0.7628  2.2240 -0.7711
10625TIP3   OH253289   1.463   3.206   3.695  0.2759 -0.8307 -0.3040
10625TIP3    H153290   1.371   3.225   3.679 -0.0686 -0.9051  1.4137
10625TIP3    H253291   1.470   3.199   3.790  2.0435 -0.9133 -0.4069
10626TIP3   OH253292   4.881   5.981  11.020 -0.4052  0.4818  0.0362
10626TIP3    H153293   4.921   6.042  10.959 -1.9543  1.1719 -0.3555
10626TIP3    H253294   4.852   5.908  10.965  0.8729 -0.3331  0.4108
10627TIP3   OH253295   1.871   6.516  11.115 -0.3754  0.3855 -0.1343
10627TIP3    H153296   1.908   6.428  11.116  1.8203  1.1382 -3.0707
10627TIP3    H253297   1.779   6.503  11.092 -0.4477 -1.1692  0.9076
10628TIP3   OH253298   4.072   2.835  11.389 -1.0995 -0.2005  0.3834
10628TIP3    H153299   3.977   2.820  11.388 -0.9287 -2.6176 -3.7962
10628TIP3    H253300   4.095   2.848  11.297  2.4881  2.2404  1.3977
10629TIP3   OH253301   4.673   0.817   0.780  0.3437  0.3265 -0.0871
10629TIP3    H153302   4.670   0.911   0.763  0.2899  0.3854  0.2438
10629TIP3    H253303   4.599   0.781   0.732 -0.7423  0.6893  1.2481
10630TIP3   OH253304   0.902   3.189   6.206 -0.0557  0.3603  0.1792
10630TIP3    H153305   0.908   3.098   6.176 -0.8758  0.3853 -0.1005
10630TIP3    H253306   0.916   3.241   6.127 -1.4054  0.4361 -0.0470
10631TIP3   OH253307   5.845   0.543   3.441  0.5300  0.0838  0.6435
10631TIP3    H153308   5.866   0.578   3.354 -0.3424 -1.1773 -0.1022
10631TIP3    H253309   5.930   0.522   3.479  0.9427  0.9087  0.2289
10632TIP3   OH253310   5.901   4.146  10.872  0.0938  0.4377  0.3252
10632TIP3    H153311   5.863   4.061  10.895  0.0648  0.5930  0.8687
10632TIP3    H253312   5.956   4.128  10.796 -0.3025  0.0272  0.1313
10633TIP3   OH253313   0.323   4.912  10.297  0.0597 -0.3576  0.5984
10633TIP3    H153314   0.350   4.858  10.371  0.8393 -0.0674  0.5370
10633TIP3    H253315   0.264   4.856  10.247  0.9800 -1.2232  0.4554
10634TIP3   OH253316   2.106   1.977   1.475  0.5449 -0.1467 -0.3169
10634TIP3    H153317   2.102   2.013   1.563  0.2205 -0.0140 -0.3831
10634TIP3    H253318   2.027   2.010   1.432  0.8678  0.0603 -0.7579
10635TIP3   OH253319   3.276   2.961  11.694  0.1168 -0.2316  0.3025
10635TIP3    H153320   3.216   2.974  11.767 -0.9154  0.9795 -0.7078
10635TIP3    H253321   3.228   2.994  11.618  2.0590  0.8266 -0.5374
10636TIP3   OH253322   0.320   3.454   3.691  0.0495  0.0334  0.0969
10636TIP3    H153323   0.319   3.398   3.613 -0.7546  0.5640 -0.2892
10636TIP3    H253324   0.323   3.393   3.764  1.7483 -0.4676 -0.3330
10637TIP3   OH253325   5.797   0.982   6.450  0.1134 -0.5322 -0.8316
10637TIP3    H153326   5.879   0.935   6.438 -0.4147 -1.1748 -2.0894
10637TIP3    H253327   5.800   1.012   6.541  2.3980  0.7762 -1.2569
10638TIP3   OH253328   5.450   5.729  14.854 -0.2729  0.5988  0.0412
10638TIP3    H153329   5.446   5.782  14.933 -0.1567 -0.6378  0.8957
10638TIP3    H253330   5.368   5.746  14.809 -0.3158  1.3556  0.3937
10639TIP3   OH253331   6.100   4.113  13.312  0.0786  0.0998 -0.4409
10639TIP3    H153332   6.106   4.046  13.243  1.0506 -0.9082  0.5681
10639TIP3    H253333   6.152   4.186  13.278  0.3050 -0.2679 -0.9093
10640TIP3   OH253334   1.705   2.337  12.397 -0.2455 -0.1409 -0.0344
10640TIP3    H153335   1.792   2.355  12.361  0.4490 -0.8318  1.2227
10640TIP3    H253336   1.672   2.263  12.346 -0.6560  0.8955 -1.3418
10641TIP3   OH253337   0.249   6.438   5.389 -0.6074  0.0277 -0.3728
10641TIP3    H153338   0.329   6.392   5.365 -0.7635 -0.1009 -0.6463
10641TIP3    H253339   0.224   6.487   5.311 -0.8441 -0.0026 -0.3192
10642TIP3   OH253340   3.833   1.805  12.574  0.0804  0.2055  0.4280
10642TIP3    H153341   3.891   1.731  12.592  0.4354  0.1804 -0.7231
10642TIP3    H253342   3.746   1.767  12.566  0.1417  0.0280  0.5990
10643TIP3   OH253343   4.926   5.532  16.850  0.6599  0.2594  0.2977
10643TIP3    H153344   4.947   5.621  16.878  0.9266  0.6892 -1.2233
10643TIP3    H253345   4.980   5.517  16.772 -0.7996 -0.5187 -0.6072
10644TIP3   OH253346   3.924   0.707   0.249  0.0225  0.2574  0.1868
10644TIP3    H153347   3.953   0.798   0.244  0.7344  0.0842  0.9610
10644TIP3    H253348   3.926   0.686   0.342  0.8395 -0.8478 -0.0589
10645TIP3   OH253349   4.952   5.187   2.400  0.0209  0.3794 -0.6473
10645TIP3    H153350   4.892   5.209   2.329  0.3801  0.5728 -0.8926
10645TIP3    H253351   4.990   5.103   2.375 -2.3964 -1.3339  0.9501
10646TIP3   OH253352   3.004   1.413  13.926 -1.0770 -0.2372  0.1330
10646TIP3    H153353   2.927   1.469  13.922  0.1171  1.4588  0.1326
10646TIP3    H253354   2.986   1.353  13.999 -3.1502 -1.1035 -1.0299
10647TIP3   OH253355   3.612   4.322   0.803 -0.0506  0.2471 -0.5846
10647TIP3    H153356   3.566   4.319   0.719  0.5243  0.4110 -0.9112
10647TIP3    H253357   3.646   4.233   0.814 -0.8326 -0.0069 -0.1123
10648TIP3   OH253358   4.085   5.834  14.046 -0.1792 -0.3097 -0.7950
10648TIP3    H153359   4.047   5.918  14.019 -0.2863 -0.1006 -0.0041
10648TIP3    H253360   4.170   5.831  14.001  1.1487  1.5541  1.3509
10649TIP3   OH253361   3.607   0.909   1.818  0.0476 -0.1198  1.0519
10649TIP3    H153362   3.514   0.910   1.842 -0.6876 -2.1421 -1.2660
10649TIP3    H253363   3.640   0.826   1.854  0.3494 -0.4740 -0.0014
10650TIP3   OH253364   5.813   4.210  12.094 -0.2524 -0.2068  0.2893
10650TIP3    H153365   5.905   4.195  12.075 -0.2248  0.0069  0.2445
10650TIP3    H253366   5.777   4.243  12.011 -0.3335 -0.1420  0.3507
10651TIP3   OH253367   1.826   3.161   4.546  0.3372 -0.0368  0.1453
10651TIP3    H153368   1.799   3.080   4.588  1.6386 -0.1937  0.7161
10651TIP3    H253369   1.852   3.134   4.457 -1.6980  0.1846 -0.5742
10652TIP3   OH253370   2.511   5.707   6.454 -0.4662  0.3105  0.2023
10652TIP3    H153371   2.599   5.730   6.481 -0.5825 -0.5002  1.3328
10652TIP3    H253372   2.454   5.739   6.523 -0.9696 -0.0079 -0.0511
10653TIP3   OH253373   3.960   4.982  13.151 -0.3058 -0.3251  0.5078
10653TIP3    H153374   3.978   5.060  13.098  2.0450 -1.9004 -1.2372
10653TIP3    H253375   3.987   5.005  13.239 -0.1284  0.9951  0.1226
10654TIP3   OH253376   2.224   6.676   1.662  0.0493  0.1594 -0.6031
10654TIP3    H153377   2.270   6.678   1.578  1.9566 -0.1297  0.3800
10654TIP3    H253378   2.277   6.732   1.719  0.4905 -2.0021  1.2070
10655TIP3   OH253379   2.355   4.468   3.175  0.2925 -0.1370 -0.2515
10655TIP3    H153380   2.291   4.397   3.189  1.1956 -1.2779 -1.5652
10655TIP3    H253381   2.422   4.452   3.240  1.4094 -1.6723 -1.6919
10656TIP3   OH253382   2.333   4.130   1.152  0.1485 -0.6585 -0.0129
10656TIP3    H153383   2.365   4.219   1.142  0.0408 -0.7080 -0.8775
10656TIP3    H253384   2.393   4.077   1.099  0.6507 -1.2088  1.0686
10657TIP3   OH253385   4.715   6.563  14.049 -0.4827 -0.4114 -0.4699
10657TIP3    H153386   4.786   6.616  14.013  0.5136 -0.8917  0.6867
10657TIP3    H253387   4.637   6.617  14.038  0.4682  1.3003  0.5422
10658TIP3   OH253388   6.206   5.119   4.288  0.0072  0.3106  0.2461
10658TIP3    H153389   6.146   5.047   4.309  1.6872 -1.1851  0.2452
10658TIP3    H253390   6.264   5.125   4.364  1.9311 -0.6142 -1.0556
10659TIP3   OH253391   6.567   1.234  14.050  0.1771 -0.2225 -0.4231
10659TIP3    H153392   6.588   1.155  14.100 -0.0594  0.3782  0.6440
10659TIP3    H253393   6.550   1.301  14.116 -0.6075  0.4760 -1.3116
10660TIP3   OH253394   6.192   5.208   5.303  0.3211 -0.5272 -0.0689
10660TIP3    H153395   6.215   5.251   5.221  0.0558 -0.5836 -0.1733
10660TIP3    H253396   6.130   5.267   5.345 -0.0970 -0.8351 -0.2439
10661TIP3   OH253397   2.066   0.645   0.777  0.0873  0.0950 -0.1528
10661TIP3    H153398   1.972   0.631   0.786  0.6132 -2.6407  3.2282
10661TIP3    H253399   2.092   0.588   0.705 -0.5867 -0.8513  0.3350
10662TIP3   OH253400   0.221   5.703  16.805 -0.9106 -0.0292 -0.4435
10662TIP3    H153401   0.176   5.618  16.807 -2.7185  0.8576 -0.8696
10662TIP3    H253402   0.312   5.682  16.787 -1.0321 -1.9730  0.8920
10663TIP3   OH253403   5.461   1.216  11.483 -0.4907 -0.5572 -0.0968
10663TIP3    H153404   5.368   1.196  11.484 -0.2386 -1.7580  0.9686
10663TIP3    H253405   5.497   1.167  11.557  1.0061 -0.2213 -0.5769
10664TIP3   OH253406   4.027   0.099  11.218 -0.2414 -0.6632 -0.0664
10664TIP3    H153407   3.950   0.057  11.181  0.1417  0.1413 -1.8831
10664TIP3    H253408   4.087   0.110  11.144  0.0537  2.2226  0.4629
10665TIP3   OH253409   6.431   4.893  16.010 -0.0158  0.0038 -0.2265
10665TIP3    H153410   6.422   4.800  15.988 -0.1480  0.3589 -1.7541
10665TIP3    H253411   6.445   4.937  15.926  0.3029  1.3444  0.4973
10666TIP3   OH253412   0.066   0.882  16.852 -0.7996  0.6119 -0.4894
10666TIP3    H153413   0.103   0.846  16.771 -0.2298 -0.4897  0.2410
10666TIP3    H253414   0.142   0.897  16.908 -1.1690  1.6282 -0.2449
10667TIP3   OH253415   5.867   0.940  13.459  0.3171  0.4960  0.2354
10667TIP3    H153416   5.796   0.888  13.496  0.1069  0.3074 -0.4196
10667TIP3    H253417   5.925   0.876  13.418  2.7523  0.2266  3.6506
10668TIP3   OH253418   4.728   5.617  15.825  0.3327 -0.6404 -0.1124
10668TIP3    H153419   4.662   5.630  15.756 -0.3558  0.1002  0.6645
10668TIP3    H253420   4.678   5.584  15.900  1.0270 -1.1451  0.1299
10669TIP3   OH253421   3.160   3.385  14.724 -0.0458  0.0607 -0.3106
10669TIP3    H153422   3.072   3.422  14.731  0.3414  1.2915 -1.6523
10669TIP3    H253423   3.150   3.314  14.660  0.2401  1.2986 -1.7754
10670TIP3   OH253424   1.575   1.443  13.587 -0.0774  0.4418  0.6194
10670TIP3    H153425   1.565   1.417  13.679 -0.1251  1.2545  0.8537
10670TIP3    H253426   1.532   1.373  13.538  0.8217 -0.5051  1.1533
10671TIP3   OH253427   4.659   3.087  16.027  0.3545  0.0164 -0.5793
10671TIP3    H153428   4.650   3.168  15.976  0.7024  0.2518 -0.2638
10671TIP3    H253429   4.738   3.046  15.993  1.5946  1.0454  0.9751
10672TIP3   OH253430   5.383   1.645  16.158 -0.7000  0.3826  0.0330
10672TIP3    H153431   5.340   1.665  16.076 -0.1305  2.7189  0.2132
10672TIP3    H253432   5.355   1.715  16.218  0.8121  0.1743  1.0651
10673TIP3   OH253433   5.757   0.796  13.652  0.2740  0.9305  0.0481
10673TIP3    H153434   5.686   0.759  13.704  0.0128  0.6493 -0.5098
10673TIP3    H253435   5.805   0.851  13.714  0.2959  0.1624  0.7312
10674TIP3   OH253436   1.259   1.286  12.323  0.2827 -0.0480  0.0090
10674TIP3    H153437   1.295   1.306  12.409  0.6294  0.0149 -0.1490
10674TIP3    H253438   1.185   1.228  12.341 -0.2509  0.7424  0.4159
10675TIP3   OH253439   4.618   1.760   5.962 -0.2754  0.1534 -0.0245
10675TIP3    H153440   4.648   1.824   6.026 -1.9202 -0.1818  1.1367
10675TIP3    H253441   4.547   1.713   6.006  0.9724 -2.6051 -0.7469
10676TIP3   OH253442   6.156   6.300   3.324  0.8147  0.1495  0.1962
10676TIP3    H153443   6.084   6.361   3.310  1.7800  0.8691 -2.0451
10676TIP3    H253444   6.113   6.220   3.355 -0.7002  1.1950  0.9472
10677TIP3   OH253445   0.409   6.534   0.707  0.0123 -0.1360  0.5906
10677TIP3    H153446   0.500   6.547   0.736  0.1883  1.1116 -0.4420
10677TIP3    H253447   0.397   6.439   0.708  1.1322 -0.2886  1.3281
10678TIP3   OH253448   4.676   3.907   4.412  0.7572  0.3416 -0.5772
10678TIP3    H153449   4.640   3.978   4.358  0.6531 -0.8524 -2.1658
10678TIP3    H253450   4.635   3.828   4.377 -0.3596 -0.4106  2.1829
10679TIP3   OH253451   2.987   4.595  11.990 -0.5638  0.4477  0.0433
10679TIP3    H153452   3.003   4.519  11.934  1.3286  0.6589  0.2295
10679TIP3    H253453   2.891   4.600  11.997 -0.7458 -1.6528 -0.3054
10680TIP3   OH253454   3.411   6.492   1.851  0.0135  0.2538  0.4674
10680TIP3    H153455   3.484   6.492   1.789  0.2079 -1.6948  0.6203
10680TIP3    H253456   3.351   6.559   1.819  0.5201 -0.1133 -1.3492
10681TIP3   OH253457   3.561   5.563  15.556  0.2574 -0.3738 -0.0081
10681TIP3    H153458   3.481   5.566  15.504  0.5018 -1.2915 -0.4748
10681TIP3    H253459   3.536   5.517  15.636  0.1279  0.0848  0.2163
10682TIP3   OH253460   0.566   4.362  12.579  0.2352 -0.3927 -0.1801
10682TIP3    H153461   0.590   4.455  12.576 -0.2395 -0.2811 -0.7213
10682TIP3    H253462   0.648   4.317  12.595  0.2095  0.2410  2.1900
10683TIP3   OH253463   3.389   5.724  12.622 -0.0007 -0.1308  1.0219
10683TIP3    H153464   3.335   5.663  12.673 -0.2051 -0.8100  0.0447
10683TIP3    H253465   3.327   5.788  12.588 -0.3997 -1.3705 -0.7677
10684TIP3   OH253466   5.051   2.086   3.308  0.0365  0.3455 -0.0304
10684TIP3    H153467   5.099   2.054   3.232  1.2371  2.5602 -0.2710
10684TIP3    H253468   4.969   2.037   3.307  0.3843 -0.2923 -2.2367
10685TIP3   OH253469   0.093   6.721   2.755 -0.7939 -0.1150  0.0138
10685TIP3    H153470   0.040   6.643   2.771  0.2871 -1.2228 -1.4879
10685TIP3    H253471   0.034   6.794   2.772 -2.2470 -1.2749  0.1415
10686TIP3   OH253472   5.192   2.437   4.089 -0.4740  0.4403 -0.0514
10686TIP3    H153473   5.139   2.363   4.059  1.1369 -1.2266  0.9994
10686TIP3    H253474   5.262   2.445   4.024 -1.0115  1.5093 -0.5203
10687TIP3   OH253475   4.872   1.614  15.416 -0.1291 -0.4311 -0.3592
10687TIP3    H153476   4.843   1.626  15.326 -1.1370  0.1674  0.0335
10687TIP3    H253477   4.834   1.687  15.464  1.2848 -0.1309  0.3639
10688TIP3   OH253478   6.693   5.773  12.305 -0.4082  0.6227  0.4067
10688TIP3    H153479   6.782   5.762  12.338 -0.7012 -0.3696  0.9152
10688TIP3    H253480   6.699   5.756  12.211 -0.3941 -1.6707  0.7656
10689TIP3   OH253481   5.083   3.842  11.133  0.1559  0.1722  0.1188
10689TIP3    H153482   5.084   3.788  11.054 -0.6872 -1.2819  1.0360
10689TIP3    H253483   5.043   3.924  11.106 -1.3334 -0.7763 -0.7173
10690TIP3   OH253484   3.325   6.028   2.946  0.4470 -0.3590 -0.3134
10690TIP3    H153485   3.297   5.964   2.881 -0.9446  0.6402 -0.7463
10690TIP3    H253486   3.268   6.104   2.931  2.9543  1.5742 -0.7977
10691TIP3   OH253487   1.571   2.332  13.733 -0.3992 -1.0748 -0.0610
10691TIP3    H153488   1.602   2.261  13.790  0.8249  0.3773  1.1704
10691TIP3    H253489   1.633   2.334  13.660 -0.7262 -1.5732 -0.3576
10692TIP3   OH253490   2.208   5.948  15.696 -0.2643  0.1196 -0.1983
10692TIP3    H153491   2.134   5.946  15.757 -0.0990  1.6989  0.1141
10692TIP3    H253492   2.186   6.018  15.634  1.6082  1.7257  0.8240
10693TIP3   OH253493   6.041   6.738   2.207 -0.5439 -0.2908 -0.3763
10693TIP3    H153494   5.985   6.784   2.268  0.4157  0.5269 -0.0888
10693TIP3    H253495   6.125   6.784   2.211  0.0466 -1.2572 -1.0554
10694TIP3   OH253496   5.726   1.848  13.218  0.4045 -0.1330 -0.1311
10694TIP3    H153497   5.748   1.755  13.226  0.0452 -0.1082  1.4440
10694TIP3    H253498   5.679   1.854  13.135 -0.5412 -1.5754  0.2601
10695TIP3   OH253499   2.105   2.316  14.673 -0.6057  0.0285 -0.3644
10695TIP3    H153500   2.094   2.407  14.702  1.0707  0.0042  0.4965
10695TIP3    H253501   2.085   2.318  14.579 -1.2812  1.1448 -0.2102
10696TIP3   OH253502   3.785   6.359  16.622  0.5232  0.2162  0.9648
10696TIP3    H153503   3.711   6.381  16.680 -1.5529  1.9506 -2.0327
10696TIP3    H253504   3.765   6.271  16.590 -0.0964  0.5251  0.4719
10697TIP3   OH253505   0.981   0.278   3.774  0.1196 -0.1739 -0.6200
10697TIP3    H153506   0.970   0.203   3.833  0.9984  0.1895  0.0351
10697TIP3    H253507   0.950   0.247   3.689  0.9275 -1.4385 -0.4732
10698TIP3   OH253508   5.170   5.369  11.937  0.1335  0.2145 -0.4643
10698TIP3    H153509   5.125   5.390  11.856  1.0575 -0.4215 -1.1721
10698TIP3    H253510   5.101   5.359  12.002 -0.8758 -1.9188 -1.7562
10699TIP3   OH253511   1.491   1.807  13.832 -0.1062 -0.7854 -0.2014
10699TIP3    H153512   1.449   1.875  13.780  0.0482  0.9770  1.8175
10699TIP3    H253513   1.449   1.726  13.804 -1.2822  0.2929 -1.7383
10700TIP3   OH253514   2.378   4.910   1.788  0.0039  0.1117 -0.5271
10700TIP3    H153515   2.304   4.938   1.734 -0.0922  1.5562  0.3061
10700TIP3    H253516   2.352   4.932   1.877  0.8865 -0.6165 -0.0787
10701TIP3   OH253517   4.720   3.331  17.027 -0.2821 -0.3063  0.0037
10701TIP3    H153518   4.721   3.277  17.106 -0.5315 -2.0834 -1.1556
10701TIP3    H253519   4.645   3.389  17.039 -0.0067 -0.1849  1.2893
10702TIP3   OH253520   0.486   3.777   2.868 -0.3660 -0.3710 -0.1555
10702TIP3    H153521   0.570   3.814   2.841 -1.3548  0.8847 -1.6827
10702TIP3    H253522   0.449   3.842   2.928  0.0312 -1.2556  1.0882
10703TIP3   OH253523   4.961   5.647   0.850  0.1725  0.1057  0.2259
10703TIP3    H153524   4.867   5.634   0.838  0.3750 -1.2364 -0.1044
10703TIP3    H253525   5.001   5.596   0.779  1.1924 -0.7259  1.3674
10704TIP3   OH253526   1.142   0.486  13.050 -0.4455  0.4842  0.0376
10704TIP3    H153527   1.179   0.488  12.962 -2.0410  0.9555 -0.6641
10704TIP3    H253528   1.087   0.407  13.051  0.5351 -0.2245  1.0634
10705TIP3   OH253529   2.812   6.187   2.705  0.0201 -0.2149  0.4721
10705TIP3    H153530   2.717   6.203   2.709 -0.1203 -0.9418  0.2061
10705TIP3    H253531   2.838   6.173   2.796  0.0128  0.7353  0.6286
10706TIP3   OH253532   0.634   5.207  13.073  0.3829 -0.3860 -0.1091
10706TIP3    H153533   0.643   5.272  13.003 -2.9235  0.0495 -0.2995
10706TIP3    H253534   0.586   5.135  13.032 -0.8053 -0.5187  1.4310
10707TIP3   OH253535   6.045   3.674   1.959  0.1823 -0.4117 -0.6902
10707TIP3    H153536   6.035   3.630   2.043  0.5227 -1.8192 -1.3410
10707TIP3    H253537   6.138   3.664   1.938  0.6212  2.0561 -0.1428
10708TIP3   OH253538   1.686   4.326  12.963  0.5311  0.1200  0.2418
10708TIP3    H153539   1.612   4.267  12.976  1.4282 -1.8108 -2.5083
10708TIP3    H253540   1.647   4.414  12.961 -1.4425 -0.7027  0.3434
10709TIP3   OH253541   0.081   3.828   5.159  0.2329  0.1909 -0.0293
10709TIP3    H153542   0.032   3.909   5.146 -0.4757 -0.2825 -0.3820
10709TIP3    H253543   0.027   3.776   5.218  0.6411 -0.0660  0.1240
10710TIP3   OH253544   0.227   1.455  11.798  0.1791  0.0773 -0.4689
10710TIP3    H153545   0.143   1.497  11.780 -0.1478 -0.9065 -1.3606
10710TIP3    H253546   0.208   1.395  11.870  0.5037  0.9808  0.3927
10711TIP3   OH253547   3.521   2.173  12.652 -0.0801 -0.1022 -0.3379
10711TIP3    H153548   3.436   2.182  12.610  0.2979  1.5237 -0.8521
10711TIP3    H253549   3.526   2.246  12.713  0.2728 -1.1724  0.9693
10712TIP3   OH253550   3.799   3.073   2.835  0.2644  0.1285 -0.1970
10712TIP3    H153551   3.767   3.162   2.820 -0.9047 -0.3805 -0.8555
10712TIP3    H253552   3.869   3.083   2.900 -0.4593  1.4232  0.4173
10713TIP3   OH253553   0.054   4.742  15.501  0.0030  0.1665 -0.4267
10713TIP3    H153554   0.051   4.653  15.466 -0.8333  0.4324 -1.0969
10713TIP3    H253555   0.073   4.731  15.594  6.6437 -0.4469 -1.3896
10714TIP3   OH253556   6.280   4.891   0.112  0.3885 -0.5512 -0.1189
10714TIP3    H153557   6.287   4.837   0.191  0.8882 -0.7112 -0.2700
10714TIP3    H253558   6.252   4.830   0.043  1.0139 -0.6361 -0.3030
10715TIP3   OH253559   5.166   4.250   0.437  0.4784  0.0428 -0.2623
10715TIP3    H153560   5.076   4.241   0.468  0.6970  0.2707  0.4582
10715TIP3    H253561   5.200   4.160   0.439 -0.0107 -0.1887 -1.4463
10716TIP3   OH253562   2.260   0.951  13.916  0.2498  0.3048  0.1806
10716TIP3    H153563   2.323   0.927  13.848 -0.1588 -2.9591  0.7678
10716TIP3    H253564   2.178   0.965  13.868  0.4605  0.2409 -0.2061
10717TIP3   OH253565   5.407   3.090  16.516  0.0845  0.5767  0.0431
10717TIP3    H153566   5.365   3.004  16.515 -0.5804  0.8964 -0.3273
10717TIP3    H253567   5.493   3.076  16.476 -0.8479  0.4811 -2.0381
10718TIP3   OH253568   3.844   3.063  13.214  0.0972  0.4720 -0.1451
10718TIP3    H153569   3.905   3.067  13.140  0.1712 -2.6879 -0.3581
10718TIP3    H253570   3.831   2.970  13.230 -1.1337  1.0499  2.8662
10719TIP3   OH253571   1.758   5.949  11.285  0.2007 -0.2463 -0.3882
10719TIP3    H153572   1.849   5.931  11.261  0.0741 -0.2283 -0.9063
10719TIP3    H253573   1.721   5.864  11.309  0.7279 -0.0601  1.1854
10720TIP3   OH253574   5.618   6.126  11.373  0.0877 -0.6597 -0.1634
10720TIP3    H153575   5.540   6.085  11.411 -1.8788 -0.6490 -3.7166
10720TIP3    H253576   5.584   6.202  11.326  2.7710  1.2019  0.6723
10721TIP3   OH253577   1.559   2.813  15.974 -0.0699  0.3926 -0.3575
10721TIP3    H153578   1.479   2.763  15.966 -1.0878  1.8823  0.0826
10721TIP3    H253579   1.587   2.800  16.065  0.3605 -0.3368 -0.5823
10722TIP3   OH253580   4.445   1.060  15.732 -0.2971  0.8551 -0.0203
10722TIP3    H153581   4.528   1.052  15.684 -1.1595 -1.4882 -1.2933
10722TIP3    H253582   4.471   1.088  15.820  1.6813  1.6563 -0.7844
10723TIP3   OH253583   1.166   2.899  15.954 -0.1682  0.3887 -0.4403
10723TIP3    H153584   1.082   2.939  15.977  0.2964  0.9776  0.3046
10723TIP3    H253585   1.172   2.906  15.859 -0.9597  0.3332 -0.4956
10724TIP3   OH253586   1.741   2.394   3.871 -0.0065  0.2240 -0.0526
10724TIP3    H153587   1.763   2.406   3.779 -0.1823  3.0047  0.1747
10724TIP3    H253588   1.664   2.450   3.884 -1.6908 -2.1740  1.2378
10725TIP3   OH253589   2.331   6.757  16.534  0.0853  0.5719 -0.3382
10725TIP3    H153590   2.247   6.726  16.566  0.7054 -0.7560  0.0793
10725TIP3    H253591   2.355   6.694  16.466  1.3054  0.1819  0.4220
10726TIP3   OH253592   6.393   5.238  15.994 -0.3409  0.0028 -0.2597
10726TIP3    H153593   6.433   5.322  16.015 -1.1104  0.2194  0.3918
10726TIP3    H253594   6.430   5.177  16.058 -0.4976  0.0491 -0.1237
10727TIP3   OH253595   5.768   1.393   5.281  0.4556 -0.0591 -0.1830
10727TIP3    H153596   5.765   1.321   5.218 -0.9024  1.2458 -1.7053
10727TIP3    H253597   5.708   1.458   5.245 -0.1427  0.8877  2.3320
10728TIP3   OH253598   1.322   1.006  15.632  0.0449 -0.1738  0.8044
10728TIP3    H153599   1.251   1.059  15.595  1.6732  1.6386  0.0753
10728TIP3    H253600   1.374   0.980  15.556  0.1415 -1.5519  1.3188
10729TIP3   OH253601   1.916   2.883   4.590  0.1278 -0.3661  0.4076
10729TIP3    H153602   1.982   2.892   4.520 -1.2476 -1.2179 -1.0637
10729TIP3    H253603   1.962   2.909   4.670  1.8409  0.4012 -0.7716
10730TIP3   OH253604   0.280   0.993  14.461 -0.1347  0.3012  0.0328
10730TIP3    H153605   0.268   1.040  14.544 -1.5760 -0.3746  0.2497
10730TIP3    H253606   0.201   0.938  14.453  0.9046 -1.1465 -0.8098
10731TIP3   OH253607   2.358   0.384   6.237  0.3918 -0.1809  0.0304
10731TIP3    H153608   2.434   0.358   6.185  0.4537 -1.4566  0.7057
10731TIP3    H253609   2.287   0.390   6.174  0.8391  0.0051 -0.4605
10732TIP3   OH253610   3.500   4.160  14.898 -0.2313 -0.1148 -0.2715
10732TIP3    H153611   3.418   4.196  14.863 -1.4148 -1.3701  1.0589
10732TIP3    H253612   3.472   4.096  14.964  1.7689 -2.2988 -1.3836
10733TIP3   OH253613   2.130   2.328  16.775  0.3449 -0.8617  0.9025
10733TIP3    H153614   2.074   2.405  16.784  1.0538 -0.2764  0.3792
10733TIP3    H253615   2.213   2.354  16.814  1.3145 -0.5617 -1.1879
10734TIP3   OH253616   6.757   3.427  13.850 -0.1802 -0.5715 -0.1923
10734TIP3    H153617   6.770   3.344  13.896 -1.0857 -0.8771 -0.4865
10734TIP3    H253618   6.672   3.458  13.879 -0.9821 -0.9831 -1.9864
10735TIP3   OH253619   0.509   6.390   3.474  0.4443  0.6480  0.5529
10735TIP3    H153620   0.550   6.312   3.435  0.7287  0.4052  1.3217
10735TIP3    H253621   0.417   6.385   3.446  0.4869  0.0971  0.5020
10736TIP3   OH253622   0.038   4.812   5.426 -0.0847  0.1104  0.6087
10736TIP3    H153623  -0.016   4.748   5.379  0.5748 -1.0257  1.3436
10736TIP3    H253624  -0.014   4.835   5.503  0.1709 -0.4296  0.9430
10737TIP3   OH253625   1.982   3.396  11.186  0.1146 -0.3310  0.7658
10737TIP3    H153626   1.921   3.446  11.133 -1.6848 -0.3908  2.6464
10737TIP3    H253627   1.927   3.331  11.231  1.5737 -0.5260  2.3802
10738TIP3   OH253628   5.442   0.696   4.793 -0.7290  0.3035  0.6068
10738TIP3    H153629   5.399   0.738   4.868 -0.0540 -2.2258  2.5970
10738TIP3    H253630   5.434   0.759   4.722 -2.5974  2.3224  2.4335
10739TIP3   OH253631   2.189   4.847  12.630 -0.1080  0.0371 -0.2219
10739TIP3    H153632   2.278   4.852  12.596  0.0701  0.1039  0.2429
10739TIP3    H253633   2.133   4.854  12.553  0.2963 -2.3911 -0.8129
10740TIP3   OH253634   6.518   3.402  17.188  0.1237 -0.2163  0.2561
10740TIP3    H153635   6.583   3.356  17.135  1.0868 -0.3047  1.4815
10740TIP3    H253636   6.567   3.438  17.261 -1.2102 -0.3230  1.2444
10741TIP3   OH253637   1.476   1.514   2.065 -0.0400  0.5202  0.3219
10741TIP3    H153638   1.428   1.536   2.145 -1.3521 -3.0874  0.7189
10741TIP3    H253639   1.412   1.522   1.995  0.6351  1.9221 -0.1893
10742TIP3   OH253640   2.444   4.215  15.632 -0.2761 -0.0501 -0.3095
10742TIP3    H153641   2.475   4.126  15.650  0.7621  0.0250 -1.6045
10742TIP3    H253642   2.513   4.272  15.668 -0.5600  0.2196 -0.1841
10743TIP3   OH253643   5.239   6.546  17.027 -0.4744 -0.1399  0.2334
10743TIP3    H153644   5.311   6.496  17.065 -1.4211 -0.8425  1.1495
10743TIP3    H253645   5.219   6.612  17.094 -0.9131 -0.1753  0.1364
10744TIP3   OH253646   3.797   2.898   4.230 -0.2293 -0.1618 -0.4396
10744TIP3    H153647   3.723   2.947   4.265  0.6373 -0.8685  2.7578
10744TIP3    H253648   3.762   2.810   4.213 -0.5767  0.0794 -0.9809
10745TIP3   OH253649   5.553   5.276  12.611  0.1789  0.2309 -0.2147
10745TIP3    H153650   5.598   5.298  12.692 -0.8405 -2.4674  1.2126
10745TIP3    H253651   5.471   5.325  12.616  0.1163  0.0753  0.4095
10746TIP3   OH253652   6.163   0.852  15.803 -0.2114 -0.0639  0.1469
10746TIP3    H153653   6.140   0.911  15.731  1.7255  0.3034 -0.2348
10746TIP3    H253654   6.181   0.910  15.876  1.7382 -0.1006 -0.2390
10747TIP3   OH253655   1.999   1.606   0.592 -0.1583  0.0050 -0.0440
10747TIP3    H153656   1.948   1.640   0.667 -0.3755  0.7729 -0.5264
10747TIP3    H253657   1.963   1.652   0.516  2.9103  2.5542 -0.1505
10748TIP3   OH253658   2.318   6.358   4.753 -0.3444 -0.1803 -0.0672
10748TIP3    H153659   2.394   6.390   4.705 -0.3209 -1.4196 -0.8986
10748TIP3    H253660   2.245   6.409   4.719  0.0416  0.8082  0.5253
10749TIP3   OH253661   1.150   4.838   0.391 -0.3569 -0.6385 -0.6132
10749TIP3    H153662   1.096   4.812   0.466  0.2046  0.4353  0.1920
10749TIP3    H253663   1.104   4.912   0.353  0.8530  0.7762  0.5321
10750TIP3   OH253664   5.717   2.800  12.289  0.0509 -0.1124 -0.0014
10750TIP3    H153665   5.689   2.742  12.360 -0.1309  1.0168  0.8830
10750TIP3    H253666   5.749   2.741  12.221  2.4713 -1.2106  1.9473
10751TIP3   OH253667   4.861   1.892  13.732 -0.2277  0.0802  0.8827
10751TIP3    H153668   4.929   1.917  13.794 -0.6957  1.6862  0.7869
10751TIP3    H253669   4.886   1.933  13.650 -0.7239 -0.2738  0.5434
10752TIP3   OH253670   2.742   4.870  14.602 -0.2794  0.3770  0.0953
10752TIP3    H153671   2.790   4.948  14.630  2.7373 -1.3186  0.0264
10752TIP3    H253672   2.734   4.879  14.507 -0.2349  0.7286  0.1235
10753TIP3   OH253673   5.836   2.728  17.239 -0.0016 -0.6445  0.6578
10753TIP3    H153674   5.884   2.647  17.226 -0.3236 -0.9049  1.0544
10753TIP3    H253675   5.770   2.707  17.305 -1.1073 -0.4806 -0.3670
10754TIP3   OH253676   0.044   0.346  13.075  0.3234  0.9549 -0.0802
10754TIP3    H153677  -0.003   0.283  13.020  1.2964  0.6600 -0.5974
10754TIP3    H253678   0.066   0.296  13.154  0.0876  0.9830  0.0032
10755TIP3   OH253679   5.615   0.247   4.776  0.3327 -0.2555  0.5665
10755TIP3    H153680   5.543   0.279   4.831 -3.1684 -0.4888 -3.4618
10755TIP3    H253681   5.658   0.180   4.830 -2.6809 -0.3827  3.1030
10756TIP3   OH253682   3.931   6.378   6.610  0.4688  0.1652 -0.1255
10756TIP3    H153683   3.986   6.434   6.665  0.9678  1.2239 -1.6479
10756TIP3    H253684   3.986   6.301   6.592  0.6675  0.2638  0.0554
10757TIP3   OH253685   3.292   5.304  12.453 -0.3528  0.2036 -0.3405
10757TIP3    H153686   3.221   5.244  12.474  1.0848 -1.5081 -0.0801
10757TIP3    H253687   3.300   5.300  12.358 -0.7151  0.5508 -0.3881
10758TIP3   OH253688   3.935   5.394  15.441 -0.2971 -0.0225 -0.1283
10758TIP3    H153689   3.989   5.315  15.433  0.1400  0.2161  0.3899
10758TIP3    H253690   3.846   5.362  15.456 -0.4717 -0.4357 -1.8798
10759TIP3   OH253691   2.858   0.469  10.688  0.0756  0.4400  0.0093
10759TIP3    H153692   2.799   0.445  10.617 -0.2092  0.4619  0.2398
10759TIP3    H253693   2.904   0.547  10.656  0.7369 -0.1793 -0.5923
10760TIP3   OH253694   4.090   0.295   6.166  0.4297 -0.3244  0.6508
10760TIP3    H153695   4.061   0.210   6.197 -3.2312  0.9233  1.0391
10760TIP3    H253696   4.094   0.350   6.244  2.2658  0.0516  0.3408
10761TIP3   OH253697   0.446   3.323   1.403 -0.6372 -0.6022 -0.2926
10761TIP3    H153698   0.376   3.387   1.396  0.6534  0.9297  0.0639
10761TIP3    H253699   0.431   3.279   1.487 -0.2302  0.9623  0.6517
10762TIP3   OH253700   5.476   0.193  15.167 -0.4164  0.1291  0.1153
10762TIP3    H153701   5.523   0.275  15.148 -1.2367  0.4393 -0.6353
10762TIP3    H253702   5.402   0.193  15.106 -2.1112  0.2354  2.0779
10763TIP3   OH253703   6.542   3.974  16.096 -0.4828  0.4307 -0.0721
10763TIP3    H153704   6.603   3.991  16.168 -0.4316  1.5462 -0.3530
10763TIP3    H253705   6.458   3.957  16.138 -0.5219  1.3727  0.2556
10764TIP3   OH253706   4.663   1.940  15.842  0.2899  0.0478  0.3535
10764TIP3    H153707   4.594   1.973  15.900  0.9175  2.1223  0.0129
10764TIP3    H253708   4.744   1.964  15.886  0.9609 -4.0223  1.6885
10765TIP3   OH253709   1.415   6.426   5.019  0.0360 -0.2822 -0.3105
10765TIP3    H153710   1.430   6.517   4.995 -0.4109 -0.0497  0.2680
10765TIP3    H253711   1.502   6.385   5.015  0.4691  0.4801  0.7029
10766TIP3   OH253712   4.943   3.957   6.094 -0.4649  0.1370  0.2023
10766TIP3    H153713   4.898   4.028   6.138 -2.5270 -1.0120  0.0744
10766TIP3    H253714   4.947   3.887   6.159 -1.1463 -0.6425 -0.5698
10767TIP3   OH253715   3.111   3.975   4.978 -0.0967  0.2594 -0.0967
10767TIP3    H153716   3.134   3.899   4.925  1.8477 -0.2192  1.3356
10767TIP3    H253717   3.166   4.046   4.945 -2.8481  1.5366 -2.3294
10768TIP3   OH253718   0.195   1.064  13.944 -0.1697 -0.1155  0.5369
10768TIP3    H153719   0.124   1.044  13.883  2.2755 -1.9860 -1.9584
10768TIP3    H253720   0.214   0.981  13.988  0.7449  0.2430  0.8513
10769TIP3   OH253721   4.217   1.502   1.751 -0.6976 -0.1912 -0.0280
10769TIP3    H153722   4.217   1.462   1.838 -1.2606 -0.9083 -0.3537
10769TIP3    H253723   4.270   1.444   1.697 -1.7415 -0.6680 -0.5688
10770TIP3   OH253724   3.272   1.870   0.400  0.2535  0.5509 -0.4032
10770TIP3    H153725   3.312   1.848   0.316  1.4855  1.9373 -0.2291
10770TIP3    H253726   3.216   1.945   0.382  1.4356  1.6174  0.1710
10771TIP3   OH253727   1.903   4.632   2.890  0.0714 -0.3670 -0.2977
10771TIP3    H153728   1.813   4.615   2.861  0.6976 -1.5292 -1.7002
10771TIP3    H253729   1.946   4.670   2.813  0.5705  1.0455  0.6402
10772TIP3   OH253730   6.665   3.952   4.481  0.4731 -0.3441  1.0288
10772TIP3    H153731   6.713   3.886   4.432  0.6313  0.2732  0.3409
10772TIP3    H253732   6.573   3.928   4.472  0.5777 -0.9291  1.4683
10773TIP3   OH253733   3.096   0.129  16.521 -1.0701 -0.2106 -0.4815
10773TIP3    H153734   3.008   0.137  16.558 -0.7366 -0.1454  0.3048
10773TIP3    H253735   3.144   0.076  16.585  0.1936  1.8889  0.4105
10774TIP3   OH253736   3.995   5.594   1.693  0.2118 -0.1940  0.4132
10774TIP3    H153737   4.020   5.673   1.644 -1.2040 -0.4234 -0.7637
10774TIP3    H253738   4.078   5.553   1.715  0.9594  0.0562 -1.6484
10775TIP3   OH253739   1.203   1.325   4.648 -0.5672 -0.5492  0.2149
10775TIP3    H153740   1.198   1.372   4.565 -0.2274 -0.3542  0.3022
10775TIP3    H253741   1.296   1.308   4.661 -0.5584 -0.0878  0.8229
10776TIP3   OH253742   4.690   2.948  13.095 -0.3472 -0.0313 -0.2347
10776TIP3    H153743   4.628   2.932  13.024  0.5208 -0.9698 -0.8043
10776TIP3    H253744   4.768   2.899  13.071 -0.4029 -1.2984  1.9054
10777TIP3   OH253745   4.292   1.656   2.760  0.9609  0.1532 -0.4648
10777TIP3    H153746   4.288   1.596   2.835 -2.6382 -0.7944 -1.2132
10777TIP3    H253747   4.371   1.708   2.775  2.3559 -2.4012  2.0495
10778TIP3   OH253748   0.390   4.290  14.130 -0.0328  0.6768  0.1879
10778TIP3    H153749   0.439   4.359  14.173 -1.0453  0.4648  1.7822
10778TIP3    H253750   0.410   4.211  14.181 -0.3298  0.1569 -0.4775
10779TIP3   OH253751   3.794   1.315   4.726  0.3641 -0.0748  0.5202
10779TIP3    H153752   3.802   1.403   4.762  0.5018  0.0261  0.2510
10779TIP3    H253753   3.703   1.309   4.697  0.4692  0.1451  0.1282
10780TIP3   OH253754   2.320   5.057   3.996  0.3508  0.2801  0.0539
10780TIP3    H153755   2.326   5.136   3.942  1.9656  0.3007  0.2078
10780TIP3    H253756   2.411   5.032   4.010 -0.1319 -1.9935 -0.5303
10781TIP3   OH253757   5.988   3.771   0.316 -0.3572 -0.6587  0.5638
10781TIP3    H153758   5.907   3.720   0.324 -1.8370  1.3610 -0.7461
10781TIP3    H253759   5.972   3.850   0.367 -0.0035  0.6510 -1.2473
10782TIP3   OH253760   4.224   1.185  14.614 -0.0601 -0.6365 -0.6856
10782TIP3    H153761   4.221   1.251  14.545  0.2358  0.5579  0.3876
10782TIP3    H253762   4.156   1.212  14.676  0.8536 -0.6228  0.3640
10783TIP3   OH253763   3.465   5.563  11.341  0.5390  0.7399  0.2456
10783TIP3    H153764   3.425   5.549  11.426  0.9463  2.1222  0.6912
10783TIP3    H253765   3.553   5.596  11.361  1.5543 -1.2278 -0.7113
10784TIP3   OH253766   0.464   1.993  13.760 -0.2606  0.4147 -0.2062
10784TIP3    H153767   0.380   2.002  13.714 -0.0372  0.5085 -0.6016
10784TIP3    H253768   0.448   2.030  13.847 -1.1702 -1.2626  0.3982
10785TIP3   OH253769   3.707   2.370   1.355 -0.4475 -0.6722  0.0221
10785TIP3    H153770   3.687   2.332   1.269 -0.5577  0.3023 -0.3922
10785TIP3    H253771   3.633   2.427   1.374  0.5694  0.8005 -0.2448
10786TIP3   OH253772   0.481   0.415  11.992 -0.6125 -0.1605 -0.2866
10786TIP3    H153773   0.462   0.382  12.079 -1.7747 -1.0000 -0.8366
10786TIP3    H253774   0.422   0.367  11.934  1.1625 -0.7370 -1.7362
10787TIP3   OH253775   0.205   4.033  16.247  0.2791  0.0927 -0.5194
10787TIP3    H153776   0.285   4.077  16.274  0.2182 -0.1424  0.0494
10787TIP3    H253777   0.232   3.978  16.173  0.2316  1.5367 -1.6553
10788TIP3   OH253778   5.548   3.522   1.499  0.4652 -0.3524  0.4928
10788TIP3    H153779   5.592   3.471   1.431  0.1910 -1.8681  1.4124
10788TIP3    H253780   5.614   3.586   1.528  1.6916 -1.8093  1.0236
10789TIP3   OH253781   0.083   5.270   2.412  0.0140  0.4037 -0.5224
10789TIP3    H153782   0.121   5.289   2.325  0.2653 -0.7357 -0.6760
10789TIP3    H253783   0.108   5.346   2.465  2.2800 -0.1295 -0.6987
10790TIP3   OH253784   2.120   0.623  11.685 -0.2807  0.7038 -0.2245
10790TIP3    H153785   2.208   0.585  11.684 -0.5460  0.0776  0.1220
10790TIP3    H253786   2.082   0.595  11.768 -0.7433  1.1258 -0.2905
10791TIP3   OH253787   1.067   2.263   3.477  0.5044  0.4580  0.5968
10791TIP3    H153788   1.052   2.207   3.553  1.2413 -0.8826 -0.2246
10791TIP3    H253789   1.148   2.230   3.439  1.0028  2.1398  0.1241
10792TIP3   OH253790   3.144   1.075   5.568 -0.1003  0.1782  0.1932
10792TIP3    H153791   3.168   1.050   5.657  0.0990  1.6378  0.5756
10792TIP3    H253792   3.052   1.100   5.574 -0.5736 -1.2863 -0.3834
10793TIP3   OH253793   3.494   2.687   1.727  0.6126 -0.0521 -0.7313
10793TIP3    H153794   3.452   2.706   1.811  0.3643  0.4276 -0.9583
10793TIP3    H253795   3.425   2.702   1.662  1.1851  1.0088 -1.1274
10794TIP3   OH253796   5.199   3.839   0.691  1.3999  0.0911  0.1202
10794TIP3    H153797   5.254   3.761   0.682  1.3865  0.1308 -0.3535
10794TIP3    H253798   5.208   3.865   0.783  1.1714 -0.6386  0.3523
10795TIP3   OH253799   0.103   6.601  14.170  0.0479 -0.1411 -0.6233
10795TIP3    H153800   0.142   6.593  14.083  1.7425  2.5396 -0.2111
10795TIP3    H253801   0.097   6.695  14.185  0.6172 -0.5126  2.5023
10796TIP3   OH253802   5.239   0.119  13.458  0.4882  0.2005  0.3002
10796TIP3    H153803   5.253   0.131  13.552  0.5949 -1.7659  0.5713
10796TIP3    H253804   5.144   0.125  13.447  0.4024 -0.3553  0.6825
10797TIP3   OH253805   5.557   3.865   5.064 -0.0990 -0.4834 -0.4078
10797TIP3    H153806   5.475   3.845   5.020  0.6252 -2.5771 -0.9044
10797TIP3    H253807   5.570   3.959   5.049 -2.5635  0.0056  0.0478
10798TIP3   OH253808   2.326   0.627  15.639  0.5722  0.3095  0.0174
10798TIP3    H153809   2.415   0.614  15.606  0.5907  2.2589 -0.8498
10798TIP3    H253810   2.332   0.615  15.734  1.3488 -1.4367 -0.2282
10799TIP3   OH253811   6.426   3.804   6.486 -0.1298 -0.6262 -0.4951
10799TIP3    H153812   6.506   3.821   6.535  0.3587 -0.1043 -1.4383
10799TIP3    H253813   6.380   3.889   6.484 -0.1564 -0.6465 -0.9034
10800TIP3   OH253814   1.982   1.159  12.502 -0.2037  0.1767 -0.5324
10800TIP3    H153815   1.935   1.109  12.569  0.3275  0.2168 -0.1345
10800TIP3    H253816   2.014   1.092  12.441 -1.9646  0.2180 -1.6047
10801TIP3   OH253817   6.646   2.465   1.584 -0.2680 -0.6211  0.0311
10801TIP3    H153818   6.621   2.385   1.630 -1.2180 -0.5972 -0.4333
10801TIP3    H253819   6.608   2.456   1.497  1.8085 -0.8312 -0.9067
10802TIP3   OH253820   1.472   3.417  12.850  0.1814 -0.1894  0.4525
10802TIP3    H153821   1.446   3.344  12.907  0.5984  0.9306  2.1388
10802TIP3    H253822   1.477   3.378  12.762 -1.9340 -1.6559  0.8877
10803TIP3   OH253823   2.146   3.367   6.497  0.8511 -0.1813 -0.3115
10803TIP3    H153824   2.187   3.302   6.554 -0.5143 -0.6217  0.1976
10803TIP3    H253825   2.072   3.321   6.458 -0.9178  1.3935  1.0123
10804TIP3   OH253826   2.524   2.957  13.495 -0.2480 -0.4261 -0.5377
10804TIP3    H153827   2.497   2.964  13.403  0.5066  0.9467 -0.6764
10804TIP3    H253828   2.444   2.974  13.545  0.1254  3.2406 -0.9376
10805TIP3   OH253829   4.376   6.397   5.714 -0.0550 -0.0082 -0.2836
10805TIP3    H153830   4.397   6.328   5.651  0.4459  0.2968 -0.4576
10805TIP3    H253831   4.315   6.355   5.775  0.2184 -0.5969 -0.4022
10806TIP3   OH253832   4.507   1.231  11.850  0.1107 -0.1006 -0.2171
10806TIP3    H153833   4.484   1.266  11.764  1.7303 -2.1144 -1.5828
10806TIP3    H253834   4.571   1.293  11.885 -0.4487  0.6565 -0.5000
10807TIP3   OH253835   1.695   3.547   1.284  0.3330 -0.3345  0.2834
10807TIP3    H153836   1.677   3.607   1.212  1.1702 -0.7866 -0.3191
10807TIP3    H253837   1.609   3.524   1.319 -0.0018  1.2142  0.5370
10808TIP3   OH253838   0.875   6.059  14.868 -0.1215  0.5301  0.1554
10808TIP3    H153839   0.818   5.985  14.888 -1.5831  1.1742 -1.3693
10808TIP3    H253840   0.961   6.020  14.853 -0.3901 -0.6075  1.3897
10809TIP3   OH253841   4.469   3.688   2.171 -0.3920  0.2138 -0.1966
10809TIP3    H153842   4.458   3.692   2.266 -1.6409  3.0033 -0.3523
10809TIP3    H253843   4.561   3.712   2.157 -0.1795 -0.2928  0.3055
10810TIP3   OH253844   4.181   3.269  14.575  0.2379 -0.1411  0.6128
10810TIP3    H153845   4.101   3.282  14.525 -2.1426 -1.1383  3.8700
10810TIP3    H253846   4.217   3.187  14.542  0.2210  0.5339 -1.1766
10811TIP3   OH253847   0.390   2.614   0.293 -0.3505  0.2942 -0.1937
10811TIP3    H153848   0.324   2.619   0.362  0.2795 -0.2013  0.4598
10811TIP3    H253849   0.377   2.694   0.242 -1.0105  0.5297  0.3294
10812TIP3   OH253850   0.595   5.806   2.319 -0.1949 -0.2345 -0.2947
10812TIP3    H153851   0.567   5.720   2.288 -1.7517  0.1948 -0.1684
10812TIP3    H253852   0.637   5.847   2.244 -1.4994 -0.2461 -1.0568
10813TIP3   OH253853   0.553   5.355  12.647  0.3649 -0.0862  0.1909
10813TIP3    H153854   0.508   5.392  12.571 -1.8439 -2.3563  0.2874
10813TIP3    H253855   0.489   5.360  12.718  1.8974  0.6924  1.6122
10814TIP3   OH253856   2.762   3.940  13.449 -0.2355 -0.4401 -0.2650
10814TIP3    H153857   2.847   3.910  13.482  1.1643  3.4077  0.1497
10814TIP3    H253858   2.774   3.946  13.354 -0.2684 -0.4541 -0.2702
10815TIP3   OH253859   5.060   1.594   1.928  0.0441 -0.0415 -1.0488
10815TIP3    H153860   5.011   1.549   1.858  1.0061 -2.1902 -0.4478
10815TIP3    H253861   5.051   1.536   2.004  2.5044  0.0595 -0.6016
10816TIP3   OH253862   0.533   1.033  14.330 -0.0771  0.6453  0.1868
10816TIP3    H153863   0.562   1.122  14.308  2.1589  0.1881  1.0456
10816TIP3    H253864   0.441   1.044  14.355  0.2213  2.7817  0.5688
10817TIP3   OH253865   3.241   5.400  15.987 -0.1067  0.3021  0.1876
10817TIP3    H153866   3.329   5.431  16.009 -0.5705  0.1727  2.3726
10817TIP3    H253867   3.224   5.436  15.900  2.4261 -0.3732 -0.6763
10818TIP3   OH253868   0.351   0.223   1.493 -0.0608 -0.0609 -0.0354
10818TIP3    H153869   0.291   0.293   1.520  0.5442 -0.1050  1.5495
10818TIP3    H253870   0.299   0.143   1.499 -0.0076 -0.0430  0.8690
10819TIP3   OH253871   2.929   1.216  14.137 -0.0623  0.2321 -0.2795
10819TIP3    H153872   2.868   1.142  14.143  0.3184 -0.0247  0.5026
10819TIP3    H253873   3.010   1.184  14.175 -0.0480  1.2165  0.5752
10820TIP3   OH253874   0.321   4.458   4.218 -0.2772  0.6561  0.1001
10820TIP3    H153875   0.382   4.530   4.201  2.4765 -1.3927  0.6237
10820TIP3    H253876   0.307   4.418   4.133 -2.1311  1.9582 -0.2587
10821TIP3   OH253877   5.767   4.483  12.728  0.7353  0.1212  0.0876
10821TIP3    H153878   5.835   4.536  12.687  0.4468  0.1162 -0.4012
10821TIP3    H253879   5.692   4.542  12.737 -0.0904 -0.5511 -1.7836
10822TIP3   OH253880   2.661   3.224   2.224  0.3609  0.7723 -0.3899
10822TIP3    H153881   2.745   3.241   2.267  0.2551  0.8089 -0.1971
10822TIP3    H253882   2.634   3.139   2.257  0.0129  1.0485  0.0408
10823TIP3   OH253883   1.409   1.081  15.196 -0.1231  0.3572 -0.0169
10823TIP3    H153884   1.474   1.148  15.173 -0.8343  1.0831  0.0470
10823TIP3    H253885   1.445   1.039  15.275  1.1450 -0.5008 -0.9959
10824TIP3   OH253886   5.352   4.990   2.185  0.2991 -0.6701 -0.3524
10824TIP3    H153887   5.408   4.971   2.260  0.3439  0.7107 -0.0138
10824TIP3    H253888   5.378   4.926   2.119  1.2886 -0.9613  0.2968
10825TIP3   OH253889   3.650   5.492   0.816  0.4513 -0.1264  0.1649
10825TIP3    H153890   3.610   5.404   0.815 -0.0182  0.0626  0.9453
10825TIP3    H253891   3.639   5.524   0.726  0.8661 -0.9636 -0.1998
10826TIP3   OH253892   3.857   1.804  13.012 -0.3217  0.2571 -0.0737
10826TIP3    H153893   3.830   1.838  12.927 -0.1572 -1.9238 -1.0646
10826TIP3    H253894   3.774   1.778  13.054 -0.3436  0.6290  0.1150
10827TIP3   OH253895   3.693   1.307   3.679 -0.7292  1.3594 -0.2051
10827TIP3    H153896   3.770   1.318   3.624 -1.4474  1.6543 -1.1777
10827TIP3    H253897   3.715   1.233   3.736  0.4108  1.6799 -0.1980
10828TIP3   OH253898   2.022   6.071   5.780 -0.0070  0.7780  0.1406
10828TIP3    H153899   1.967   6.139   5.818 -1.7382 -1.2816  1.5164
10828TIP3    H253900   2.003   6.076   5.686  0.1229  2.3099  0.1566
10829TIP3   OH253901   1.184   2.460  11.423 -0.3106 -0.0978 -0.3317
10829TIP3    H153902   1.167   2.500  11.338  1.4615  1.5857  0.0354
10829TIP3    H253903   1.273   2.425  11.415 -0.6157 -1.0882  0.4365
10830TIP3   OH253904   0.850   0.304  14.057  0.7234  0.2618 -0.1375
10830TIP3    H153905   0.781   0.270  14.000  1.3770 -0.3217 -0.6079
10830TIP3    H253906   0.815   0.385  14.091 -0.2796 -0.1301 -0.1991
10831TIP3   OH253907   1.547   5.788   5.642  0.5748 -0.6119 -0.7176
10831TIP3    H153908   1.501   5.713   5.605  0.6819 -1.2479  0.3957
10831TIP3    H253909   1.514   5.794   5.732  1.2953  0.0789 -0.4883
10832TIP3   OH253910   2.917   4.511   4.138  0.0308  0.1096  0.3005
10832TIP3    H153911   2.963   4.473   4.063  0.6930 -0.0972  0.8023
10832TIP3    H253912   2.977   4.498   4.212  0.5476  2.5968  0.4189
10833TIP3   OH253913   5.497   4.738   2.970  0.1237 -0.0461  0.7793
10833TIP3    H153914   5.494   4.833   2.958 -0.7214 -0.1092  0.4341
10833TIP3    H253915   5.557   4.708   2.901 -2.9513 -0.1717 -2.0746
10834TIP3   OH253916   3.615   3.760   2.818  0.0735 -0.0338 -0.0220
10834TIP3    H153917   3.579   3.848   2.809  0.6483  0.2397  0.2505
10834TIP3    H253918   3.680   3.754   2.748 -0.3622 -0.4544 -0.3994
10835TIP3   OH253919   4.332   0.459   2.559  0.0342  0.4165 -0.8799
10835TIP3    H153920   4.381   0.446   2.478  1.2602  1.2112 -0.3077
10835TIP3    H253921   4.400   0.470   2.626 -0.9246  1.3791 -0.0283
10836TIP3   OH253922   4.568   0.427   2.702  0.0153  0.3364 -0.2881
10836TIP3    H153923   4.570   0.501   2.762  0.0663 -0.5581  0.8496
10836TIP3    H253924   4.634   0.447   2.636  0.9113  0.7476  0.7045
10837TIP3   OH253925   4.894   3.585   1.469 -0.4272  0.1928  0.5383
10837TIP3    H153926   4.929   3.552   1.387 -1.0161 -0.5004  0.5565
10837TIP3    H253927   4.971   3.618   1.517  0.0212 -0.1505  0.0616
10838TIP3   OH253928   6.131   2.274  14.131 -0.4012 -0.2002  0.1441
10838TIP3    H153929   6.113   2.258  14.224  1.8369  2.0816  1.0779
10838TIP3    H253930   6.082   2.353  14.111  0.7894  0.5254  0.0099
10839TIP3   OH253931   1.572   3.807   4.918  0.4938 -0.1554 -0.3733
10839TIP3    H153932   1.486   3.845   4.936  1.5314  2.1563  0.0677
10839TIP3    H253933   1.619   3.813   5.002  1.6125  0.1033 -0.9947
10840TIP3   OH253934   1.289   3.040   6.684 -0.4209  0.0752  0.0313
10840TIP3    H153935   1.252   2.968   6.633 -0.3489 -1.6718  2.2587
10840TIP3    H253936   1.379   3.012   6.703  1.2149  2.8353 -2.6847
10841TIP3   OH253937   2.573   2.659   3.100  0.5876 -0.3255 -0.4659
10841TIP3    H153938   2.620   2.579   3.121 -0.6070 -0.6380  1.2677
10841TIP3    H253939   2.508   2.633   3.036  2.1077 -0.0680 -2.2038
10842TIP3   OH253940   4.645   3.793   0.021  0.1266  0.3709 -0.3069
10842TIP3    H153941   4.613   3.876  -0.013 -2.4562 -0.1584  0.6244
10842TIP3    H253942   4.733   3.784  -0.017 -1.1413  1.4669 -3.8443
10843TIP3   OH253943   2.325   3.992   5.866 -0.5254  0.2068 -0.6027
10843TIP3    H153944   2.361   3.977   5.953 -1.2368 -0.9972 -0.4932
10843TIP3    H253945   2.402   4.006   5.810 -0.0154 -0.0261  0.0307
10844TIP3   OH253946   4.797   3.429  13.965  0.5475  0.1315  0.4192
10844TIP3    H153947   4.702   3.432  13.958  0.5045 -0.2618  0.7555
10844TIP3    H253948   4.829   3.441  13.876  0.2518  2.1464  0.5487
10845TIP3   OH253949   1.687   4.569  12.384  0.2067  0.0324  0.2560
10845TIP3    H153950   1.745   4.600  12.314  0.4951 -0.8072  0.1131
10845TIP3    H253951   1.603   4.555  12.342  0.7785 -2.0094 -0.3194
10846TIP3   OH253952   3.548   6.197  13.854  0.4504 -0.5053  0.2550
10846TIP3    H153953   3.539   6.232  13.943 -1.0081 -2.6263  1.0392
10846TIP3    H253954   3.547   6.274  13.798 -1.3296  0.8049  1.9221
10847TIP3   OH253955   0.359   4.503   3.309  0.5627 -0.2609  0.1646
10847TIP3    H153956   0.420   4.576   3.297  0.6192 -0.1170  1.2516
10847TIP3    H253957   0.416   4.427   3.325  0.4651 -0.2302  0.6500
10848TIP3   OH253958   2.227   0.848   1.293  0.7398 -0.8313 -0.0900
10848TIP3    H153959   2.148   0.808   1.258  0.7605 -2.0304  1.1559
10848TIP3    H253960   2.202   0.880   1.380  1.6510 -1.3968  0.3985
10849TIP3   OH253961   5.489   6.700   3.469 -0.5508 -0.1277  0.0979
10849TIP3    H153962   5.460   6.626   3.522  2.5751 -0.9367  0.9354
10849TIP3    H253963   5.583   6.685   3.458 -0.5222  1.6492 -3.1555
10850TIP3   OH253964   3.806   1.165  12.258 -0.5526  0.3186 -0.2362
10850TIP3    H153965   3.792   1.210  12.342  2.0542  0.7109  0.0861
10850TIP3    H253966   3.846   1.231  12.202  0.5318 -0.7553 -0.7719
10851TIP3   OH253967   4.042   6.713  14.756 -0.5069  0.4025 -0.6662
10851TIP3    H153968   4.008   6.650  14.819  0.4995  2.4094  2.1089
10851TIP3    H253969   4.136   6.717  14.773  0.0232  0.2664 -3.1195
10852TIP3   OH253970   0.749   3.192  13.626  0.6860 -0.2274  0.2583
10852TIP3    H153971   0.740   3.155  13.538  1.9664  3.4610 -1.6584
10852TIP3    H253972   0.843   3.194  13.642  0.4748 -0.6499  1.6562
10853TIP3   OH253973   6.137   4.733  17.201  0.2931 -0.1465 -0.2069
10853TIP3    H153974   6.128   4.646  17.241  0.5373  0.3163  0.8882
10853TIP3    H253975   6.195   4.720  17.126  1.4086 -0.6969  0.7348
10854TIP3   OH253976   1.771   6.202  12.050  0.2374  0.2284  0.0090
10854TIP3    H153977   1.741   6.129  12.103 -1.7463  1.3335  0.5223
10854TIP3    H253978   1.727   6.190  11.965 -0.6301  1.1156  0.3073
10855TIP3   OH253979   4.650   5.858  15.954 -0.5938 -0.2145 -0.5484
10855TIP3    H153980   4.648   5.769  15.919 -1.7726 -0.0137 -1.0319
10855TIP3    H253981   4.565   5.895  15.931 -0.2153  0.9596 -0.1352
10856TIP3   OH253982   0.306   4.060  12.111  0.0475  0.1196 -0.3923
10856TIP3    H153983   0.239   4.126  12.132 -1.6203 -1.3541 -0.8949
10856TIP3    H253984   0.380   4.084  12.167 -1.5898  0.6800  1.6842
10857TIP3   OH253985   3.196   5.260  16.265  0.2214  0.7169  0.4225
10857TIP3    H153986   3.285   5.224  16.265 -0.5613 -1.3288  1.4303
10857TIP3    H253987   3.184   5.292  16.175  0.5686 -2.7454 -1.0089
10858TIP3   OH253988   5.458   6.199   4.063 -0.2050 -0.4849 -0.3201
10858TIP3    H153989   5.519   6.134   4.098  0.5337  0.5901  0.4662
10858TIP3    H253990   5.511   6.279   4.055 -1.1824  0.1195 -0.9049
10859TIP3   OH253991   4.091   3.308   2.247 -0.0693  0.0952 -0.3216
10859TIP3    H153992   4.115   3.401   2.243 -0.2449  0.3179  2.3393
10859TIP3    H253993   4.173   3.263   2.264 -0.5972  0.4499  4.4040
10860TIP3   OH253994   0.745   4.139  12.810  0.0397  0.5112  0.4685
10860TIP3    H153995   0.719   4.048  12.801 -1.2738  0.9557 -0.4928
10860TIP3    H253996   0.666   4.183  12.840 -0.2221  1.8093 -1.9070
10861TIP3   OH253997   5.457   3.569  15.441 -0.3738 -0.3291  0.2660
10861TIP3    H153998   5.420   3.626  15.374  0.8928 -0.4122 -0.5399
10861TIP3    H253999   5.468   3.484  15.398 -0.7603 -0.7601  0.9847
10862TIP3   OH254000   2.406   6.077  15.850  0.0427 -0.1783  0.0502
10862TIP3    H154001   2.425   6.030  15.931  0.7941 -0.1526 -0.1011
10862TIP3    H254002   2.357   6.015  15.797  0.6471 -0.6353  0.0243
10863TIP3   OH254003   1.484   5.615  11.580  0.4800 -0.2858  0.6443
10863TIP3    H154004   1.399   5.652  11.604  0.6624 -0.9384  2.4945
10863TIP3    H254005   1.502   5.550  11.648  2.3911 -0.2700  0.2219
10864TIP3   OH254006   0.366   6.413  11.097 -0.0080 -0.0361 -0.0948
10864TIP3    H154007   0.286   6.374  11.133  0.0019 -1.1029 -1.1832
10864TIP3    H254008   0.424   6.422  11.172 -0.1551 -1.7980  0.2697
10865TIP3   OH254009   0.311   5.386   5.690  0.3574  0.0111  0.1416
10865TIP3    H154010   0.235   5.439   5.716  0.5772  0.7482 -0.6745
10865TIP3    H254011   0.385   5.426   5.735  0.6301  0.8501 -1.0162
10866TIP3   OH254012   5.222   2.945   3.376 -0.2327  0.6429  0.2676
10866TIP3    H154013   5.297   3.004   3.371  0.6860 -0.3344  1.6423
10866TIP3    H254014   5.169   2.980   3.448 -0.2415  0.4213  0.3707
10867TIP3   OH254015   2.144   1.429   5.077 -0.5153 -0.4115 -0.3263
10867TIP3    H154016   2.202   1.400   5.147 -0.2072 -0.4963 -0.6130
10867TIP3    H254017   2.159   1.367   5.006 -1.6541 -1.0059 -0.0729
10868TIP3   OH254018   4.736   5.779  10.824  0.1866 -0.3234 -0.8438
10868TIP3    H154019   4.732   5.683  10.825  2.2768 -0.4581 -0.6730
10868TIP3    H254020   4.747   5.800  10.731  0.8078 -0.3455 -0.7836
10869TIP3   OH254021   6.410   2.968   0.937  0.1502 -0.0350  0.1461
10869TIP3    H154022   6.386   2.903   1.004  0.7787 -0.5152 -0.0810
10869TIP3    H254023   6.428   2.916   0.859  1.7761  0.2881  0.2707
10870TIP3   OH254024   0.031   3.131  12.542 -0.4840 -0.4769  0.6301
10870TIP3    H154025   0.091   3.095  12.607  1.2526 -0.2002 -0.7362
10870TIP3    H254026  -0.025   3.058  12.517 -0.6050 -0.7954  1.8205
10871TIP3   OH254027   1.635   5.373   5.316 -0.5688 -0.0617 -0.2087
10871TIP3    H154028   1.643   5.425   5.236 -1.2919  1.6250  0.7692
10871TIP3    H254029   1.655   5.284   5.288  0.7021  0.7032 -1.9627
10872TIP3   OH254030   4.603   1.931   6.580 -0.5729 -0.3539 -0.1057
10872TIP3    H154031   4.657   1.873   6.527 -0.2971  0.7679 -1.1133
10872TIP3    H254032   4.582   1.881   6.659  1.9621 -0.8341  0.3399
10873TIP3   OH254033   2.267   4.734   2.731 -0.6087  0.4404 -0.4092
10873TIP3    H154034   2.335   4.801   2.723 -0.1874  0.2617  1.2958
10873TIP3    H254035   2.287   4.689   2.814 -2.4282 -0.0347 -0.1857
10874TIP3   OH254036   5.873   2.308   0.251 -0.2773  0.3722  0.3963
10874TIP3    H154037   5.891   2.321   0.158  0.5836  2.4819  0.7914
10874TIP3    H254038   5.937   2.242   0.279  1.1072  1.4833 -0.0374
10875TIP3   OH254039   2.269   2.036  11.945  0.2501 -0.2518 -0.2206
10875TIP3    H154040   2.240   1.947  11.963 -0.3823  0.0603  0.3554
10875TIP3    H254041   2.278   2.077  12.031 -2.0441  1.0277 -0.5010
10876TIP3   OH254042   3.026   0.497  13.912 -0.2973  0.9351 -0.2469
10876TIP3    H154043   3.095   0.434  13.933 -0.1612  1.2158  0.1603
10876TIP3    H254044   3.074   0.575  13.883 -0.4735  0.2909 -2.4631
10877TIP3   OH254045   2.333   4.855   3.111 -0.2622  0.3973  0.5043
10877TIP3    H154046   2.313   4.783   3.051  0.5628  0.8480 -0.3345
10877TIP3    H254047   2.407   4.823   3.163  0.8892  1.0549 -0.6809
10878TIP3   OH254048   4.163   4.588   0.895  0.2114  0.2145 -0.6751
10878TIP3    H154049   4.201   4.664   0.850  2.0123 -1.2246 -1.6796
10878TIP3    H254050   4.142   4.527   0.825 -0.6062 -0.5096  0.1774
10879TIP3   OH254051   6.331   0.781  13.959 -0.3683  0.7850 -0.2034
10879TIP3    H154052   6.292   0.775  13.872 -0.5332 -1.1551 -0.0395
10879TIP3    H254053   6.299   0.704  14.005  1.3171  0.7105  0.9278
10880TIP3   OH254054   1.265   4.898   6.328 -0.1497 -0.3770 -0.7930
10880TIP3    H154055   1.321   4.929   6.257 -0.7336  0.4473 -0.9050
10880TIP3    H254056   1.324   4.886   6.402 -0.1702  3.2035 -0.0527
10881TIP3   OH254057   1.296   4.645  13.169 -0.2785 -0.4733 -0.3154
10881TIP3    H154058   1.270   4.573  13.226 -0.1097 -2.0466 -2.1266
10881TIP3    H254059   1.216   4.697  13.158 -0.8112 -1.2655 -0.2388
10882TIP3   OH254060   0.208   5.709  10.745  0.3585 -0.1224 -0.3854
10882TIP3    H154061   0.247   5.630  10.708  0.9347 -0.0714  0.0865
10882TIP3    H254062   0.114   5.699  10.730  0.2688 -1.5315  0.8223
10883TIP3   OH254063   0.798   0.851  10.810  0.3249 -0.2004  0.2185
10883TIP3    H154064   0.887   0.880  10.831 -0.1558  1.3351  0.2450
10883TIP3    H254065   0.763   0.920  10.755 -0.3970 -1.4580 -0.9536
10884TIP3   OH254066   5.749   3.421   1.681  0.8321  0.4531 -0.8910
10884TIP3    H154067   5.743   3.410   1.776  1.1924  1.4507 -0.7443
10884TIP3    H254068   5.658   3.430   1.652  0.7092 -0.0512 -0.6750
10885TIP3   OH254069   6.570   0.211   2.646  0.3886 -0.2393  0.1164
10885TIP3    H154070   6.509   0.227   2.718  1.7846 -1.3136  1.6328
10885TIP3    H254071   6.575   0.116   2.639 -0.1768 -0.1694 -1.8747
10886TIP3   OH254072   6.419   5.420  11.876  0.0916  0.1321  0.1060
10886TIP3    H154073   6.333   5.429  11.835  0.4510 -0.9194 -0.9327
10886TIP3    H254074   6.477   5.472  11.821  0.1376  0.8950  0.8447
10887TIP3   OH254075   3.314   3.769  14.462  0.2700  0.3389  0.2257
10887TIP3    H154076   3.378   3.839  14.471  1.3919 -0.6774  0.3635
10887TIP3    H254077   3.272   3.786  14.378  2.1939 -0.1361 -0.8906
10888TIP3   OH254078   4.304   0.678  10.658  0.3564  0.1924 -0.0051
10888TIP3    H154079   4.363   0.655  10.729  0.3521 -0.0835 -0.0910
10888TIP3    H254080   4.316   0.772  10.646 -0.0816  0.3566  0.7635
10889TIP3   OH254081   1.439   3.209  16.386  0.5305 -0.2204 -0.1968
10889TIP3    H154082   1.392   3.247  16.311 -2.9121 -0.5880  1.5768
10889TIP3    H254083   1.409   3.118  16.389 -0.0859  0.0111  2.0655
10890TIP3   OH254084   5.837   5.705  13.157 -0.6048 -0.2408 -0.6532
10890TIP3    H154085   5.831   5.800  13.170 -2.3969 -0.4588  0.3410
10890TIP3    H254086   5.861   5.696  13.064  1.8923  1.1764 -0.2523
10891TIP3   OH254087   0.216   6.479   1.417  0.3988 -0.1647 -0.3312
10891TIP3    H154088   0.196   6.435   1.499  0.0795  2.5103  1.1582
10891TIP3    H254089   0.180   6.422   1.349 -1.2008 -1.4650  1.4992
10892TIP3   OH254090   4.097   5.946  13.326 -0.0234 -0.7368 -0.3909
10892TIP3    H154091   4.132   5.861  13.298  0.5565 -0.0512 -1.8363
10892TIP3    H254092   4.007   5.947  13.293  0.4600 -0.1868 -1.7481
10893TIP3   OH254093   5.708   3.064  15.143 -0.0540 -0.0035 -0.8204
10893TIP3    H154094   5.684   3.076  15.235 -0.4672 -0.3096 -0.8866
10893TIP3    H254095   5.792   3.111  15.134  0.2959 -0.4834 -0.1442
10894TIP3   OH254096   3.845   1.015   0.230 -0.3136  0.6983  0.2845
10894TIP3    H154097   3.847   0.996   0.136  0.7202  1.4251  0.1532
10894TIP3    H254098   3.763   0.975   0.260  0.0504 -0.8287 -0.6395
10895TIP3   OH254099   4.935   2.911   0.620  0.2433  0.1273 -0.6101
10895TIP3    H154100   5.024   2.918   0.656  0.0663  1.6255 -0.3888
10895TIP3    H254101   4.947   2.919   0.525  0.4572 -1.0161 -0.6850
10896TIP3   OH254102   5.732   3.707   2.028 -0.2190  0.4147  0.2693
10896TIP3    H154103   5.677   3.688   2.104 -0.3678  0.7313  0.2411
10896TIP3    H254104   5.776   3.789   2.050 -1.0315  1.0513 -0.4018
10897TIP3   OH254105   1.509   6.738  16.190  0.2076  0.1712  0.1210
10897TIP3    H154106   1.510   6.760  16.096  0.9469  1.8447  0.4668
10897TIP3    H254107   1.547   6.651  16.195  1.3050  0.5385 -1.0709
10898TIP3   OH254108   1.684   5.131  14.851 -0.0679 -0.1584 -0.0529
10898TIP3    H154109   1.750   5.088  14.905  0.2348 -0.1145 -0.3834
10898TIP3    H254110   1.638   5.190  14.911  1.8615  1.7352 -0.3234
10899TIP3   OH254111   0.275   3.332  11.326 -0.1954  0.2100 -0.8128
10899TIP3    H154112   0.286   3.281  11.407 -0.9191 -1.2907 -1.6200
10899TIP3    H254113   0.361   3.372  11.311 -0.1354  0.7910  0.8572
10900TIP3   OH254114   3.023   6.506  12.520  0.4270 -0.1894 -0.0809
10900TIP3    H154115   3.041   6.412  12.527 -0.3436 -0.3590 -0.3066
10900TIP3    H254116   3.044   6.540  12.607  0.9351 -0.5274 -0.0667
10901TIP3   OH254117   1.960   5.017  14.645  0.1193  0.1707  0.4400
10901TIP3    H154118   1.954   5.112  14.658  0.8061  0.2789 -0.0038
10901TIP3    H254119   2.048   4.994  14.674 -0.0920 -0.3652  0.6815
10902TIP3   OH254120   1.689   3.428   5.043 -0.3975 -0.6590 -0.1126
10902TIP3    H154121   1.623   3.455   5.107  0.5008  1.1547  0.1135
10902TIP3    H254122   1.661   3.471   4.962  1.5759  1.9714  0.4705
10903TIP3   OH254123   5.598   4.689   1.055 -0.0647 -0.7420  0.4908
10903TIP3    H154124   5.656   4.753   1.014 -0.5908 -0.1388  0.6728
10903TIP3    H254125   5.525   4.679   0.994 -2.3799  2.3612  2.3890
10904TIP3   OH254126   5.103   6.007  16.381  0.4543 -0.0880 -0.7166
10904TIP3    H154127   5.173   6.007  16.316  1.4785  0.9326  0.3410
10904TIP3    H254128   5.062   6.093  16.373  0.7352  0.1367  0.1189
10905TIP3   OH254129   5.926   0.574   4.047 -0.2406 -0.3814  0.2035
10905TIP3    H154130   5.851   0.632   4.035  0.2457  0.1900 -0.1496
10905TIP3    H254131   5.952   0.549   3.959 -0.9890 -1.8839  0.3720
10906TIP3   OH254132   5.579   1.684   2.395  0.1978 -0.2663 -0.0092
10906TIP3    H154133   5.675   1.679   2.403  0.1552  0.1907  0.8909
10906TIP3    H254134   5.559   1.776   2.406 -0.5099 -0.6068  1.9676
10907TIP3   OH254135   1.403   4.008   3.353  0.1935  0.1546  0.0325
10907TIP3    H154136   1.353   3.927   3.347  2.3355 -1.2577  0.2338
10907TIP3    H254137   1.378   4.058   3.275 -0.2287 -1.2724 -0.7831
10908TIP3   OH254138   3.668   1.678  15.195 -0.3026 -0.0516  0.1782
10908TIP3    H154139   3.682   1.737  15.121  0.7978 -0.7387 -0.1964
10908TIP3    H254140   3.610   1.610  15.161  0.0833 -0.2861 -0.0243
10909TIP3   OH254141   3.070   6.147  15.268  0.6960 -0.1870 -0.0742
10909TIP3    H154142   3.120   6.229  15.271 -0.2240  0.4188 -0.8561
10909TIP3    H254143   3.089   6.105  15.352  0.8950  0.9966  0.5029
10910TIP3   OH254144   3.955   2.207  12.634 -0.5588  0.2647 -0.2208
10910TIP3    H154145   3.968   2.302  12.640  2.1018  0.3152 -3.4086
10910TIP3    H254146   3.913   2.194  12.549 -1.8260 -1.3948  0.6147
10911TIP3   OH254147   4.775   6.073   0.672 -0.0232 -0.2526 -0.1291
10911TIP3    H154148   4.725   6.016   0.731 -0.9441  1.2200  0.5580
10911TIP3    H254149   4.739   6.055   0.585  1.2019 -2.2922 -0.2828
10912TIP3   OH254150   0.156   1.308   3.771 -0.0404 -0.3143  0.5835
10912TIP3    H154151   0.136   1.393   3.730  1.0301 -0.6834 -0.8046
10912TIP3    H254152   0.248   1.292   3.748 -0.1523 -1.7284  1.0502
10913TIP3   OH254153   3.986   6.381   3.175 -0.6103  0.0525 -1.0057
10913TIP3    H154154   4.035   6.313   3.127  0.7507  0.6882 -0.5646
10913TIP3    H254155   3.998   6.460   3.123  1.2796  0.8666  0.5246
10914TIP3   OH254156   2.356   1.742  14.879 -0.3029  0.0420  0.0674
10914TIP3    H154157   2.353   1.721  14.972 -0.6915  0.6399  0.1949
10914TIP3    H254158   2.417   1.815  14.872  0.0758 -0.2968 -0.2084
10915TIP3   OH254159   0.812   5.822  15.884 -0.0783  0.3029 -0.4443
10915TIP3    H154160   0.824   5.914  15.906  1.8413 -0.2734  1.2196
10915TIP3    H254161   0.817   5.819  15.788 -1.0646  1.9905 -0.5847
10916TIP3   OH254162   3.064   4.913  14.086  0.3074  0.3274 -0.9577
10916TIP3    H154163   3.157   4.895  14.079 -0.0614 -2.3095 -0.1804
10916TIP3    H254164   3.029   4.889  14.000 -0.0626 -2.0763 -0.1979
10917TIP3   OH254165   1.883   0.768  14.482  0.2411 -0.2421 -0.5879
10917TIP3    H154166   1.977   0.755  14.494  0.4625  1.7209  0.1493
10917TIP3    H254167   1.872   0.863  14.480 -1.9384 -0.3791  1.0958
10918TIP3   OH254168   0.357   2.721  16.151 -0.0192 -0.1412  0.4144
10918TIP3    H154169   0.283   2.764  16.194  0.2643  0.1518  0.6182
10918TIP3    H254170   0.428   2.786  16.154 -0.4019  0.4687 -1.8410
10919TIP3   OH254171   3.173   6.199   0.163  0.6361 -0.4069 -0.1680
10919TIP3    H154172   3.109   6.204   0.092  0.0821 -0.4583  0.3172
10919TIP3    H254173   3.192   6.290   0.184  0.2438 -0.3813  0.0995
10920TIP3   OH254174   3.657   6.493   1.533  0.2298  0.7058  0.4329
10920TIP3    H154175   3.679   6.446   1.614  2.9469  0.3837 -0.3832
10920TIP3    H254176   3.619   6.426   1.477 -0.9991  0.7658  1.1723
10921TIP3   OH254177   6.457   3.444  15.920 -0.5248  0.0333 -0.3394
10921TIP3    H154178   6.427   3.404  15.839  1.1180  2.3292 -2.2160
10921TIP3    H254179   6.377   3.461  15.970 -1.6128 -0.9903 -1.6638
10922TIP3   OH254180   5.953   2.733   5.114 -0.1488  0.0990  0.0913
10922TIP3    H154181   6.036   2.742   5.068  0.4455 -0.8450  0.9444
10922TIP3    H254182   5.925   2.643   5.097 -0.8501  0.3168  0.0517
10923TIP3   OH254183   2.703   0.268  13.848  0.0014  0.1773  0.1696
10923TIP3    H154184   2.632   0.216  13.810  0.5588  0.5578 -1.4600
10923TIP3    H254185   2.672   0.290  13.936 -1.4729 -0.4927 -0.1584
10924TIP3   OH254186   1.405   5.185  12.539 -0.2130 -0.4321  0.1440
10924TIP3    H154187   1.470   5.206  12.471  1.2357 -3.0633  0.5779
10924TIP3    H254188   1.448   5.209  12.621 -1.1951  0.9456  0.2854
10925TIP3   OH254189   4.409   5.035  15.143 -0.1697  0.0883 -0.0066
10925TIP3    H154190   4.397   5.011  15.051 -0.5942  1.2503 -0.2679
10925TIP3    H254191   4.374   5.124  15.150 -0.4621 -0.1102  1.3625
10926TIP3   OH254192   3.043   5.394  11.999 -0.4844 -0.0445 -0.2772
10926TIP3    H154193   3.036   5.392  11.903  1.0399  0.0632 -0.4163
10926TIP3    H254194   2.992   5.318  12.028  0.1019 -0.8397 -1.2537
10927TIP3   OH254195   1.314   4.204   0.717 -0.1332 -0.0932  0.3254
10927TIP3    H154196   1.333   4.128   0.771 -0.0583  1.0114  1.9234
10927TIP3    H254197   1.390   4.212   0.659  0.2318 -0.7505  0.7028
10928TIP3   OH254198   6.703   1.407  12.824  0.2535  0.7041 -0.0270
10928TIP3    H154199   6.666   1.363  12.747 -0.9287  1.1569  0.2792
10928TIP3    H254200   6.778   1.352  12.848  0.1950  0.1507 -1.0537
10929TIP3   OH254201   3.414   1.461  13.885  0.1022 -0.7193  0.2859
10929TIP3    H154202   3.508   1.450  13.869  0.3051  1.1568 -0.0637
10929TIP3    H254203   3.408   1.485  13.977 -0.2208 -2.5233  0.7620
10930TIP3   OH254204   3.300   3.870   2.120  0.0154  0.2910 -0.2272
10930TIP3    H154205   3.309   3.818   2.200  2.4197  1.8820  0.6497
10930TIP3    H254206   3.330   3.812   2.050 -0.5768 -0.5720  0.2035
10931TIP3   OH254207   6.618   5.517  12.051  0.2810  0.3606  0.1564
10931TIP3    H154208   6.544   5.488  11.997 -0.4599  1.9031  0.3090
10931TIP3    H254209   6.673   5.568  11.991 -0.5653  2.1164  0.8297
10932TIP3   OH254210   0.518   4.161   3.528 -0.0189 -0.0410 -0.3852
10932TIP3    H154211   0.588   4.096   3.533 -0.4909 -0.5040  0.2083
10932TIP3    H254212   0.539   4.211   3.449 -0.3807 -1.7552 -1.6283
10933TIP3   OH254213   0.906   5.504  13.715 -0.5209 -0.2803  0.0857
10933TIP3    H154214   0.816   5.496  13.685 -0.3123  0.0264 -0.6286
10933TIP3    H254215   0.917   5.596  13.737  0.1559  0.0701 -1.6013
10934TIP3   OH254216   3.412   1.977  13.697  0.0194  0.1239  0.1680
10934TIP3    H154217   3.364   2.053  13.731 -0.6345 -0.0846 -0.2739
10934TIP3    H254218   3.453   1.939  13.775  1.2008  1.5032  0.2616
10935TIP3   OH254219   5.619   2.340   2.447 -0.4363 -0.1529  0.3972
10935TIP3    H154220   5.665   2.415   2.409 -1.0185  0.0038 -0.0255
10935TIP3    H254221   5.570   2.302   2.374 -0.0899 -0.9981  0.5907
10936TIP3   OH254222   3.165   3.390   6.039  0.1002  0.2006 -0.4571
10936TIP3    H154223   3.083   3.439   6.037 -0.3884 -0.5691  0.0957
10936TIP3    H254224   3.190   3.389   6.132 -1.3400 -2.8508  0.0404
10937TIP3   OH254225   2.279   4.578   2.948  0.8830  0.3456  0.2948
10937TIP3    H154226   2.213   4.521   2.908  1.5070  0.7329 -1.3388
10937TIP3    H254227   2.300   4.535   3.031 -1.0585 -0.0356  0.6512
10938TIP3   OH254228   0.118   6.708  12.623  0.0308  0.4691 -0.2536
10938TIP3    H154229   0.027   6.722  12.597  0.1107  0.3915 -0.5837
10938TIP3    H254230   0.143   6.627  12.577 -0.0704 -0.1201  0.6946
10939TIP3   OH254231   6.238   0.669  12.072  0.3036 -0.3807  0.0963
10939TIP3    H154232   6.316   0.653  12.125  0.3343 -0.2093  0.1052
10939TIP3    H254233   6.192   0.585  12.070 -0.7327  0.0762  2.0770
10940TIP3   OH254234   2.749   0.962  12.687 -0.1839 -0.2408  0.6717
10940TIP3    H154235   2.772   1.055  12.695  2.5611 -0.7329 -0.3590
10940TIP3    H254236   2.744   0.931  12.777 -1.1839  0.8598  1.0337
10941TIP3   OH254237   5.818   1.708  11.356  0.0615 -0.7096 -0.1867
10941TIP3    H154238   5.895   1.720  11.300  0.9691  0.1262  1.1819
10941TIP3    H254239   5.743   1.722  11.297  0.9344 -1.4522 -1.5218
10942TIP3   OH254240   1.655   5.422  15.808 -0.1101  0.3280 -0.3227
10942TIP3    H154241   1.698   5.477  15.742 -0.4640  1.1068  0.0841
10942TIP3    H254242   1.563   5.423  15.783 -0.5063  1.8967  1.0235
10943TIP3   OH254243   0.496   2.484   4.204 -0.1183 -0.6935  0.1975
10943TIP3    H154244   0.512   2.452   4.115  3.1199 -1.2790  0.8637
10943TIP3    H254245   0.468   2.407   4.253 -0.6725 -0.6311 -0.0095
10944TIP3   OH254246   2.901   1.050   0.533  0.2027  0.3026  0.5894
10944TIP3    H154247   2.967   0.992   0.570 -0.5311 -0.4547  0.7407
10944TIP3    H254248   2.950   1.128   0.506  1.0589  0.0134  1.2590
10945TIP3   OH254249   5.488   3.502   3.637  0.4625 -0.2042 -0.1135
10945TIP3    H154250   5.539   3.582   3.624  1.1293 -0.6904 -0.5968
10945TIP3    H254251   5.498   3.454   3.555 -0.1090 -0.6880  0.0942
10946TIP3   OH254252   0.954   0.031   1.514  0.4494 -0.4488 -0.2074
10946TIP3    H154253   0.919  -0.052   1.546 -2.2771  1.5137  2.5130
10946TIP3    H254254   0.878   0.078   1.481  1.4454  1.8213  0.5282
10947TIP3   OH254255   3.328   6.673   5.645  0.1132  0.4592  0.0238
10947TIP3    H154256   3.256   6.712   5.694  0.1473 -0.4538  0.8530
10947TIP3    H254257   3.407   6.700   5.692  0.1918  0.1149  0.0958
10948TIP3   OH254258   0.053   2.978  17.175 -0.6853  0.5679  0.2966
10948TIP3    H154259   0.048   2.883  17.183 -1.2656  0.5997  0.3257
10948TIP3    H254260   0.096   3.007  17.256  1.5297  0.1649 -0.6589
10949TIP3   OH254261   0.063   2.188  14.274  0.0534 -0.6050 -0.1788
10949TIP3    H154262  -0.031   2.185  14.295  0.0986 -0.3723  0.0615
10949TIP3    H254263   0.067   2.173  14.179 -0.2992  0.4131 -0.3655
10950TIP3   OH254264   2.305   2.976   1.711  0.1156  0.1763  0.3633
10950TIP3    H154265   2.354   3.047   1.669 -0.0258  0.3742  0.5296
10950TIP3    H254266   2.270   2.925   1.638 -2.4631  2.0898  0.1228
10951TIP3   OH254267   1.940   4.394   5.605  0.5838 -0.9613  0.4069
10951TIP3    H154268   1.851   4.363   5.588  0.3010 -0.9990  1.8145
10951TIP3    H254269   1.937   4.488   5.583  0.1247 -0.9093  0.6676
10952TIP3   OH254270   2.597   1.557   4.082  0.3883  0.4232 -0.2699
10952TIP3    H154271   2.539   1.562   4.157  1.6931 -0.0295  0.8189
10952TIP3    H254272   2.684   1.576   4.118  1.0769 -0.0745 -1.6090
10953TIP3   OH254273   5.189   4.193   1.850 -0.5298 -0.4176 -0.4655
10953TIP3    H154274   5.124   4.201   1.781 -1.1692 -0.1681  0.1557
10953TIP3    H254275   5.169   4.110   1.893  0.0674 -0.7298 -0.7778
10954TIP3   OH254276   2.631   1.777  12.023  0.2322  0.6479 -0.7341
10954TIP3    H154277   2.614   1.805  12.113 -1.1954 -0.1121 -0.7326
10954TIP3    H254278   2.667   1.689  12.031  0.4770  0.7306 -0.8990
10955TIP3   OH254279   3.591   4.191  11.657 -0.3914  0.3943  0.7632
10955TIP3    H154280   3.678   4.152  11.654 -1.0246 -0.9926 -0.4282
10955TIP3    H254281   3.531   4.121  11.630 -1.7832  1.5976  0.5564
10956TIP3   OH254282   5.119   6.494   1.547  0.2717  0.6130 -0.1688
10956TIP3    H154283   5.030   6.529   1.552  0.2940  0.8364 -1.2153
10956TIP3    H254284   5.137   6.486   1.454 -0.6938 -4.7126 -0.1883
10957TIP3   OH254285   6.113   4.917  14.671  0.5492  0.5084  0.1150
10957TIP3    H154286   6.074   4.975  14.736 -0.3318 -0.3739  0.4059
10957TIP3    H254287   6.045   4.904  14.606  0.5549 -0.5532  0.2974
10958TIP3   OH254288   1.570   6.092  13.035 -0.6085 -0.2958 -0.6664
10958TIP3    H154289   1.547   6.000  13.023  1.3339 -0.6021 -2.7113
10958TIP3    H254290   1.628   6.112  12.962  0.3704  2.0976  0.6442
10959TIP3   OH254291   2.688   6.522   2.524  0.3942 -0.0968  0.2479
10959TIP3    H154292   2.752   6.518   2.595 -0.1773 -1.4686  0.7188
10959TIP3    H254293   2.712   6.450   2.466  0.3422  0.4872 -0.5089
10960TIP3   OH254294   6.495   3.249  11.718  0.0844 -0.7805 -0.1672
10960TIP3    H154295   6.584   3.269  11.747 -0.1658 -0.1978  0.2097
10960TIP3    H254296   6.452   3.211  11.794  0.2846 -1.9635 -0.6226
10961TIP3   OH254297   6.750   2.835   1.141  0.4608 -0.0785  0.1169
10961TIP3    H154298   6.833   2.790   1.157  1.0450  0.9347  0.0655
10961TIP3    H254299   6.731   2.818   1.049  2.8018  3.0138 -1.1354
10962TIP3   OH254300   3.077   6.131   4.574 -0.7119  0.3027 -0.0992
10962TIP3    H154301   2.995   6.151   4.618 -0.1730  0.6580  0.7933
10962TIP3    H254302   3.079   6.187   4.497 -0.6833  1.3460  0.6343
10963TIP3   OH254303   2.084   1.064  11.636 -0.1310 -0.1561  0.1562
10963TIP3    H154304   2.064   1.157  11.631  0.9076  0.3015  2.8770
10963TIP3    H254305   2.175   1.061  11.667  0.6488 -2.1253 -1.9840
10964TIP3   OH254306   0.007   3.894   0.068  0.5480  0.3520 -0.0918
10964TIP3    H154307   0.095   3.928   0.088  0.4879 -0.2471  1.3041
10964TIP3    H254308  -0.026   3.862   0.152 -0.8627  0.2076 -0.6761
10965TIP3   OH254309   4.516   5.622   3.810 -0.1395  0.5771  0.3273
10965TIP3    H154310   4.430   5.588   3.784  0.6353 -0.4103 -1.0604
10965TIP3    H254311   4.521   5.708   3.769 -1.0219  1.2827  1.6231
10966TIP3   OH254312   0.200   0.731   2.081  0.0507 -0.0666  0.3707
10966TIP3    H154313   0.127   0.791   2.063  0.1836 -0.2741 -0.9264
10966TIP3    H254314   0.243   0.719   1.997  1.6641  0.1305  1.1261
10967TIP3   OH254315   2.877   0.250  16.255  0.5926 -0.1488  0.0883
10967TIP3    H154316   2.972   0.240  16.254  0.6601  0.1911  1.3757
10967TIP3    H254317   2.843   0.161  16.258  0.8798 -0.2643 -0.1412
10968TIP3   OH254318   4.407   1.994   1.403  0.1211  0.1265  0.5562
10968TIP3    H154319   4.475   1.958   1.458  0.6750 -0.7988 -0.6883
10968TIP3    H254320   4.380   2.075   1.447  0.7783 -0.4030  1.9644
10969TIP3   OH254321   1.173   0.474  16.768 -0.1757  0.2400  0.1174
10969TIP3    H154322   1.220   0.475  16.685 -2.0274 -0.2069 -1.0062
10969TIP3    H254323   1.158   0.567  16.788 -1.2041  0.3469 -0.9958
10970TIP3   OH254324   2.523   6.726  16.178 -0.4522 -0.4863  0.0808
10970TIP3    H154325   2.497   6.701  16.089 -2.3281 -0.8416  0.7038
10970TIP3    H254326   2.463   6.680  16.235 -0.2426  0.9059  1.4918
10971TIP3   OH254327   1.700   0.182   3.768 -0.0084  0.1630 -0.6102
10971TIP3    H154328   1.636   0.197   3.698 -1.6428 -1.3733  0.4361
10971TIP3    H254329   1.705   0.265   3.815 -2.4860 -0.0467  0.1805
10972TIP3   OH254330   1.517   0.859  15.802 -0.3786 -0.4530  0.3538
10972TIP3    H154331   1.496   0.893  15.715 -1.9857 -2.8582 -0.2902
10972TIP3    H254332   1.468   0.914  15.862  0.6375  1.1563 -0.2223
10973TIP3   OH254333   6.570   3.690   3.289  0.1503 -0.2112  0.0295
10973TIP3    H154334   6.627   3.740   3.347  0.5295 -0.9252  0.2884
10973TIP3    H254335   6.628   3.625   3.249 -0.3372 -0.4548 -0.2900
10974TIP3   OH254336   4.686   2.825   5.554  0.4121 -0.0465  0.0273
10974TIP3    H154337   4.768   2.836   5.506  0.4695 -2.4433 -0.5258
10974TIP3    H254338   4.695   2.741   5.599 -0.0622  1.5547  3.4705
10975TIP3   OH254339   3.078   5.691  14.671  0.2342  0.5585 -0.4051
10975TIP3    H154340   3.158   5.663  14.626 -0.3672  2.2787 -2.7737
10975TIP3    H254341   3.011   5.691  14.602 -1.4807  0.5393  1.1926
10976TIP3   OH254342   0.819   1.621  11.379 -0.1677  0.0959  0.0051
10976TIP3    H154343   0.820   1.707  11.422 -1.4142  0.5903 -0.9121
10976TIP3    H254344   0.750   1.573  11.425 -0.3318  0.0291 -0.3149
10977TIP3   OH254345   5.389   4.508   4.795  0.3734  0.1201 -0.4019
10977TIP3    H154346   5.355   4.469   4.876  1.2861  0.1842  0.0259
10977TIP3    H254347   5.318   4.498   4.732 -0.8415  1.1972  0.7322
10978TIP3   OH254348   1.110   4.092  15.974  0.4650 -0.5462 -0.3837
10978TIP3    H154349   1.102   4.055  15.886  2.2308  0.5499 -1.0608
10978TIP3    H254350   1.114   4.187  15.960 -0.5909 -0.2663  1.0177
10979TIP3   OH254351   1.628   4.652   5.797  0.1440  0.4999  0.6580
10979TIP3    H154352   1.568   4.591   5.754  0.6022  0.4140  0.1325
10979TIP3    H254353   1.601   4.651   5.889 -0.9086  0.7517  0.3667
10980TIP3   OH254354   5.486   2.489  14.315  0.2006 -0.5623 -0.1585
10980TIP3    H154355   5.513   2.550  14.383 -1.4238 -1.9728  1.8535
10980TIP3    H254356   5.398   2.518  14.291  0.4765 -0.5183 -1.2051
10981TIP3   OH254357   4.903   4.868  13.687 -0.0849 -0.4019 -0.3417
10981TIP3    H154358   4.875   4.947  13.641 -0.8847 -0.2368  0.3888
10981TIP3    H254359   4.883   4.796  13.628 -2.7214 -0.3542  0.3677
10982TIP3   OH254360   5.312   5.930  16.227  0.6347  0.6030  0.3089
10982TIP3    H154361   5.348   5.882  16.302 -1.6364 -1.7022  0.0736
10982TIP3    H254362   5.296   5.863  16.161 -0.4975  2.0595 -0.9763
10983TIP3   OH254363   2.129   3.045   0.768  0.5907  0.5274  0.4320
10983TIP3    H154364   2.099   3.092   0.846 -0.8625  0.3254  0.0257
10983TIP3    H254365   2.054   3.048   0.708  0.2018 -2.7572  0.5829
10984TIP3   OH254366   6.748   5.437  13.477 -0.4869  0.0068 -0.3391
10984TIP3    H154367   6.659   5.404  13.469  0.3890 -2.9209  0.8923
10984TIP3    H254368   6.763   5.442  13.571 -0.0835  2.9025 -0.4580
10985TIP3   OH254369   2.441   3.288   5.235  0.3954 -0.3273 -0.4358
10985TIP3    H154370   2.525   3.319   5.271 -0.6358  1.1509  0.8229
10985TIP3    H254371   2.462   3.205   5.194  2.7497  0.6252 -1.3503
10986TIP3   OH254372   1.013   3.013   4.977  0.4113  0.0293 -0.1529
10986TIP3    H154373   0.926   2.974   4.964  1.0610 -1.7665  0.5717
10986TIP3    H254374   1.053   3.014   4.890  0.0137 -0.0075 -0.3367
10987TIP3   OH254375   1.240   5.821   3.761  0.3762  0.0642  0.3871
10987TIP3    H154376   1.330   5.815   3.731 -0.2092 -0.2252 -1.4383
10987TIP3    H254377   1.213   5.730   3.775 -0.5309 -0.1010 -2.0526
10988TIP3   OH254378   3.127   2.531  15.693 -0.4820 -0.3204  0.2703
10988TIP3    H154379   3.160   2.452  15.735  0.5804  0.4167  0.9072
10988TIP3    H254380   3.145   2.601  15.757 -0.6469  0.5407 -0.5936
10989TIP3   OH254381   1.800   5.398   5.524 -0.1888 -0.0713  0.6789
10989TIP3    H154382   1.739   5.376   5.453 -0.8089  1.8772  0.5729
10989TIP3    H254383   1.879   5.428   5.478 -0.7596  1.6484  0.7757
10990TIP3   OH254384   5.533   5.675  11.132  0.0863  0.0545 -0.2624
10990TIP3    H154385   5.461   5.694  11.072  0.2061  1.3897 -0.0308
10990TIP3    H254386   5.611   5.674  11.076 -0.1050 -1.5071 -0.5300
10991TIP3   OH254387   2.253   4.373   6.200 -0.2524 -0.3514 -0.7234
10991TIP3    H154388   2.347   4.355   6.194 -0.3941 -0.8903 -1.5677
10991TIP3    H254389   2.245   4.468   6.190  0.3477  0.0016  1.5391
10992TIP3   OH254390   1.888   5.006  16.732  0.2085 -0.4485  0.4129
10992TIP3    H154391   1.816   4.961  16.687  2.7399 -1.9487 -2.5219
10992TIP3    H254392   1.892   5.092  16.690  0.2068 -0.4158  0.4794
10993TIP3   OH254393   3.138   2.369   0.401 -0.0645  0.2880  0.2579
10993TIP3    H154394   3.072   2.410   0.457  0.3022  1.0338  0.1565
10993TIP3    H254395   3.212   2.352   0.460  0.1179  0.5871  0.1201
10994TIP3   OH254396   0.579   3.886   1.238 -0.8165 -0.2641  0.0697
10994TIP3    H154397   0.488   3.909   1.256 -0.6636  0.4640 -0.0566
10994TIP3    H254398   0.609   3.843   1.319 -1.2466 -0.4451  0.1356
10995TIP3   OH254399   6.160   4.732  12.822 -0.4379  0.2553 -0.0952
10995TIP3    H154400   6.116   4.769  12.899 -0.8913  0.6380 -0.5298
10995TIP3    H254401   6.213   4.660  12.857 -1.1138  0.0273  0.4936
10996TIP3   OH254402   5.797   3.921   2.635  0.0171  0.3687  0.0689
10996TIP3    H154403   5.800   3.838   2.586 -0.3892  0.1785  0.3672
10996TIP3    H254404   5.718   3.915   2.689  0.9076  0.2201  1.3964
10997TIP3   OH254405   3.349   1.580   3.634  0.2451  0.2512  0.3149
10997TIP3    H154406   3.365   1.531   3.553  0.8762  0.2789  0.4171
10997TIP3    H254407   3.364   1.671   3.611  2.6538  0.0884  0.9631
10998TIP3   OH254408   0.129   4.721  15.761 -0.3782 -0.7592 -0.0039
10998TIP3    H154409   0.044   4.732  15.804 -0.3596 -0.7337  0.0265
10998TIP3    H254410   0.167   4.809  15.760 -0.2479 -0.8131  0.1996
10999TIP3   OH254411   0.737   2.446  14.184 -0.2811 -0.1956  0.2595
10999TIP3    H154412   0.797   2.410  14.250 -0.0385  1.5453  1.0550
10999TIP3    H254413   0.788   2.448  14.104  0.6786  1.0468  0.8769
11000TIP3   OH254414   3.587   4.367   1.939 -0.3284 -0.5546  0.2072
11000TIP3    H154415   3.647   4.378   2.012  1.1978 -1.0990 -0.9224
11000TIP3    H254416   3.541   4.285   1.958  0.1030 -0.7230  0.5396
11001TIP3   OH254417   2.753   1.754  16.721 -0.5823 -0.0147  0.6656
11001TIP3    H154418   2.725   1.673  16.764 -2.5845 -0.2484 -0.9045
11001TIP3    H254419   2.848   1.751  16.722 -0.6109 -1.5676  2.1203
11002TIP3   OH254420   5.378   6.765   2.261  0.2521  0.8281  0.2624
11002TIP3    H154421   5.441   6.823   2.219 -0.3514  0.3024 -1.4813
11002TIP3    H254422   5.305   6.822   2.285  0.4966  1.1042  0.3528
11003TIP3   OH254423   6.683   4.067  15.735  0.0939 -0.2393  0.1042
11003TIP3    H154424   6.776   4.078  15.714 -0.0771  0.1819 -0.4511
11003TIP3    H254425   6.637   4.103  15.659 -0.5370  0.9967  1.0464
11004TIP3   OH254426   4.813   1.599  17.146  0.1993 -0.8439  0.1274
11004TIP3    H154427   4.813   1.626  17.054  3.0990  0.1035  0.3039
11004TIP3    H254428   4.766   1.516  17.146 -0.2295 -0.6842 -2.1251
11005TIP3   OH254429   2.277   3.134  13.565 -0.3104  0.0743  0.6900
11005TIP3    H154430   2.358   3.169  13.527 -0.4740  0.5611  0.7821
11005TIP3    H254431   2.210   3.153  13.500 -0.0333 -2.1798 -0.3477
11006TIP3   OH254432   3.590   5.287   5.850  0.4916 -0.3025  0.0191
11006TIP3    H154433   3.505   5.282   5.894  0.4344 -1.3218 -0.1852
11006TIP3    H254434   3.591   5.374   5.810 -0.8193 -0.5888 -0.6817
11007TIP3   OH254435   0.683   3.884  12.755  0.9010  0.0439 -0.4509
11007TIP3    H154436   0.726   3.803  12.784  2.5700  0.4637 -1.6193
11007TIP3    H254437   0.635   3.858  12.676  1.9341  0.2825 -1.1791
11008TIP3   OH254438   6.559   2.621  14.623 -0.3631 -0.0940  0.4474
11008TIP3    H154439   6.625   2.683  14.592 -0.0405 -0.4893  0.3431
11008TIP3    H254440   6.607   2.540  14.640 -0.8361 -0.4180  0.2751
11009TIP3   OH254441   4.192   5.504   0.504 -0.4732 -0.0340 -0.0552
11009TIP3    H154442   4.127   5.521   0.572 -1.9467  1.9814 -1.8166
11009TIP3    H254443   4.140   5.498   0.423  1.0992 -3.2491 -0.9643
11010TIP3   OH254444   3.600   1.085  13.869  0.0443 -0.2989  0.2874
11010TIP3    H154445   3.506   1.086  13.850  0.4048  0.0960 -1.7540
11010TIP3    H254446   3.609   1.138  13.948 -1.4414 -0.2883  0.4855
11011TIP3   OH254447   4.709   4.476   5.085  0.5630 -0.1153 -0.1076
11011TIP3    H154448   4.645   4.409   5.108  0.9090 -1.4660 -2.7395
11011TIP3    H254449   4.714   4.473   4.990  0.9102  3.4191 -0.3297
11012TIP3   OH254450   3.162   1.393   2.234 -0.3809  0.3695 -0.1266
11012TIP3    H154451   3.154   1.488   2.233 -1.5133  0.2758 -0.4523
11012TIP3    H254452   3.246   1.377   2.279  1.1579  1.5783 -2.3726
11013TIP3   OH254453   1.707   3.912   3.577 -0.8240  0.3168  0.6910
11013TIP3    H154454   1.753   3.965   3.643 -0.0912  1.7187 -0.8822
11013TIP3    H254455   1.617   3.945   3.579 -0.4105  1.5920 -0.1666
11014TIP3   OH254456   2.849   4.686   0.551  0.3447 -0.4941  0.4204
11014TIP3    H154457   2.910   4.641   0.492 -0.2320 -1.0302  0.2281
11014TIP3    H254458   2.778   4.716   0.493  1.8591  2.8607  0.0752
11015TIP3   OH254459   1.402   3.275  16.106 -0.3670 -0.3167  0.3266
11015TIP3    H154460   1.408   3.370  16.092  0.6460 -0.5383 -0.9313
11015TIP3    H254461   1.368   3.241  16.024 -2.4429 -0.9139  1.3584
11016TIP3   OH254462   1.551   3.468  13.873 -0.3199  0.6565 -0.1100
11016TIP3    H154463   1.554   3.463  13.777  1.9547  0.2711 -0.0532
11016TIP3    H254464   1.540   3.377  13.901 -0.2858  0.6964  0.0336
11017TIP3   OH254465   5.941   3.747   5.493  0.7530 -0.2076  0.7377
11017TIP3    H154466   5.910   3.832   5.526  0.2179  1.4010 -3.3100
11017TIP3    H254467   5.887   3.682   5.538 -1.3999  1.8551  1.3467
11018TIP3   OH254468   1.860   4.781  17.125  0.5516 -0.3579 -0.2577
11018TIP3    H154469   1.932   4.819  17.177 -0.7912  1.4298  0.4108
11018TIP3    H254470   1.816   4.857  17.087  0.1170 -1.5265 -2.1916
11019TIP3   OH254471   1.022   6.533  12.261  0.4399 -0.0584 -0.1002
11019TIP3    H154472   1.045   6.470  12.193  0.7910  0.6662 -0.6774
11019TIP3    H254473   0.932   6.559  12.241  0.3955 -0.1632 -0.0353
11020TIP3   OH254474   2.941   5.656  16.410 -0.0995 -0.1294 -0.1646
11020TIP3    H154475   3.003   5.728  16.421 -0.7135  0.2760  0.7689
11020TIP3    H254476   2.982   5.599  16.345  0.7795  0.6384 -0.3084
11021TIP3   OH254477   3.320   3.034   4.870  0.6998  0.3894  0.3937
11021TIP3    H154478   3.247   3.061   4.926 -1.2575  0.1465 -1.8676
11021TIP3    H254479   3.349   3.115   4.828  2.2040  0.5823  1.7210
11022TIP3   OH254480   1.715   2.613  14.726  0.3030  0.3031 -0.3081
11022TIP3    H154481   1.702   2.699  14.685 -0.9827 -0.0432 -0.6570
11022TIP3    H254482   1.810   2.607  14.738  0.5297  1.2312 -1.4395
11023TIP3   OH254483   6.775   3.290  11.976  0.0207  0.4626 -0.5034
11023TIP3    H154484   6.729   3.342  12.042  0.0175 -1.4557  1.1094
11023TIP3    H254485   6.856   3.263  12.020  0.2432 -0.4728 -1.4547
11024TIP3   OH254486   5.930   0.974   2.395 -0.4694  0.2587  0.5519
11024TIP3    H154487   5.895   1.017   2.317 -0.8239  1.2238  1.2093
11024TIP3    H254488   6.025   0.978   2.385 -0.5158  0.3402  0.1445
11025TIP3   OH254489   1.883   3.053   1.219  0.5149 -0.0652 -0.0075
11025TIP3    H154490   1.953   3.112   1.246  0.5563 -0.5707  1.0672
11025TIP3    H254491   1.802   3.096   1.249  0.4337  0.1174 -0.4882
11026TIP3   OH254492   5.069   3.661   5.462 -0.2857 -0.4993  0.5676
11026TIP3    H154493   5.056   3.587   5.521  0.1410 -0.8903  0.1746
11026TIP3    H254494   5.141   3.710   5.501  0.5263 -1.1888 -0.0369
11027TIP3   OH254495   0.604   4.629  12.903  0.3518 -0.2274  0.1248
11027TIP3    H154496   0.599   4.629  12.807  0.3849 -1.6327  0.1113
11027TIP3    H254497   0.537   4.693  12.929  0.2757  0.1108 -0.8268
11028TIP3   OH254498   5.201   3.511  16.446 -0.1833  0.3070 -0.2193
11028TIP3    H154499   5.244   3.464  16.375  2.1104 -0.9685  1.8457
11028TIP3    H254500   5.140   3.448  16.484  0.9252 -0.1438  0.8696
11029TIP3   OH254501   0.608   2.647  11.032  0.0701 -0.2269  0.0404
11029TIP3    H154502   0.681   2.693  10.989  0.7073  0.3418  1.6594
11029TIP3    H254503   0.541   2.641  10.964  0.6762  1.4444 -0.7796
11030TIP3   OH254504   3.190   0.009   4.791  0.0240  0.5348 -0.0099
11030TIP3    H154505   3.256   0.017   4.860  0.1035  1.0200 -0.1388
11030TIP3    H254506   3.129  -0.056   4.824  0.8944 -0.3714 -0.1524
11031TIP3   OH254507   3.476   3.178  14.969  0.1423 -0.2535  0.2413
11031TIP3    H154508   3.528   3.129  14.905 -0.4222  0.4890 -0.8092
11031TIP3    H254509   3.524   3.168  15.051  1.7625  0.1207 -0.6141
11032TIP3   OH254510   3.116   5.632   3.818 -0.1198 -0.0626  0.1719
11032TIP3    H154511   3.197   5.593   3.848  0.3235  0.3924 -0.3953
11032TIP3    H254512   3.052   5.561   3.819 -0.0946 -0.0901  2.0242
11033TIP3   OH254513   1.672   4.219  12.398  0.7675 -0.4885 -0.6107
11033TIP3    H154514   1.682   4.164  12.476  2.4111 -0.4682 -0.7619
11033TIP3    H254515   1.756   4.266  12.392  0.2907  0.2340 -1.8396
11034TIP3   OH254516   6.623   3.409   1.988  0.1771  0.5211  0.2253
11034TIP3    H154517   6.590   3.417   2.077 -0.1168  2.3923 -0.0257
11034TIP3    H254518   6.715   3.383   1.999  0.0609  0.4311  1.0548
11035TIP3   OH254519   3.165   3.837  13.253  0.1860 -0.0857  0.8487
11035TIP3    H154520   3.236   3.893  13.285 -0.6161 -1.0544  4.9191
11035TIP3    H254521   3.199   3.798  13.173  2.6838  2.3674  0.5763
11036TIP3   OH254522   0.461   3.830  12.226 -0.2683  0.0042 -0.3357
11036TIP3    H154523   0.528   3.784  12.176 -0.2031  0.2634 -0.4869
11036TIP3    H254524   0.405   3.870  12.160 -1.6198 -1.6651 -0.2628
11037TIP3   OH254525   2.130   4.139  15.755  0.0613  0.0672  0.2099
11037TIP3    H154526   2.040   4.153  15.784  0.5912  0.7574  1.6171
11037TIP3    H254527   2.170   4.226  15.758  0.6057 -0.1315 -1.0111
11038TIP3   OH254528   0.048   2.508  15.139 -0.3199  0.3793 -0.1709
11038TIP3    H154529  -0.028   2.551  15.179  1.1238  2.4070  0.5404
11038TIP3    H254530   0.088   2.459  15.210  0.3749  1.2851  0.0775
11039TIP3   OH254531   5.516   1.900  13.395  0.1193 -0.1021  0.3363
11039TIP3    H154532   5.509   1.810  13.429 -1.5159  0.0247  0.3895
11039TIP3    H254533   5.596   1.898  13.341 -0.2326 -1.7799 -0.2086
11040TIP3   OH254534   1.274   2.946  10.937  0.4480 -0.4924  0.5461
11040TIP3    H154535   1.288   3.039  10.955  0.2509 -0.1864 -0.8052
11040TIP3    H254536   1.333   2.926  10.865 -1.4801 -0.7122 -1.0421
11041TIP3   OH254537   0.051   1.822   3.381  0.2279 -0.7380  0.4175
11041TIP3    H154538   0.090   1.843   3.296 -1.2124 -0.0259 -0.0984
11041TIP3    H254539   0.126   1.801   3.437  1.3843  0.6740 -0.5068
11042TIP3   OH254540   6.221   2.663  12.719 -0.1741 -0.6803 -0.2421
11042TIP3    H154541   6.263   2.583  12.687 -0.3708 -1.5413  1.5318
11042TIP3    H254542   6.279   2.734  12.691  0.8666 -1.5909 -0.4516
11043TIP3   OH254543   4.910   5.625   1.776 -0.1042  0.1457  0.2559
11043TIP3    H154544   4.850   5.559   1.812  1.0614 -0.3106  1.4255
11043TIP3    H254545   4.980   5.573   1.736  1.2856  0.6360  1.9751
11044TIP3   OH254546   4.099   5.905  16.637  0.1674 -0.0171 -0.0640
11044TIP3    H154547   4.007   5.900  16.612  0.5946 -0.2576 -1.7599
11044TIP3    H254548   4.121   5.998  16.630 -0.1078  0.1500  1.0769
11045TIP3   OH254549   1.510   6.559   5.830 -0.7569  0.1463 -0.0388
11045TIP3    H154550   1.472   6.509   5.903 -1.6548  0.3911 -0.3255
11045TIP3    H254551   1.437   6.610   5.795 -0.4392 -0.2653 -1.3672
11046TIP3   OH254552   0.996   6.521   2.952  0.5358  0.6983  0.2271
11046TIP3    H154553   1.063   6.514   2.884 -0.3590  0.3634 -0.6366
11046TIP3    H254554   0.928   6.459   2.926 -0.2591  1.2508  0.9203
11047TIP3   OH254555   6.031   1.343  13.020 -0.3023 -0.2707 -0.0819
11047TIP3    H154556   6.080   1.413  13.064 -1.4086 -0.0176  0.7791
11047TIP3    H254557   5.982   1.301  13.089  0.4123 -1.9952 -0.5740
11048TIP3   OH254558   2.955   6.496  15.275  0.2944  0.2515  0.2003
11048TIP3    H154559   2.906   6.417  15.250 -1.8007  1.5016  0.1379
11048TIP3    H254560   2.933   6.509  15.367 -1.0150  1.8345 -0.2971
11049TIP3   OH254561   3.425   4.654   0.322  0.0482  0.6702  0.2232
11049TIP3    H154562   3.506   4.673   0.370  0.5125 -1.5971  0.4432
11049TIP3    H254563   3.361   4.634   0.390  0.6637 -2.3819  0.0601
11050TIP3   OH254564   2.167   2.010  14.171 -0.7128  0.1622  0.4804
11050TIP3    H154565   2.217   1.941  14.127 -1.2218  0.9265 -1.3775
11050TIP3    H254566   2.227   2.045  14.237  1.3270  1.1349 -1.7252
11051TIP3   OH254567   5.877   5.607  12.513 -0.4206  0.2957  0.2256
11051TIP3    H154568   5.816   5.541  12.480 -0.2399  0.3654 -0.2476
11051TIP3    H254569   5.921   5.640  12.435 -0.2263  0.6937  0.5034
11052TIP3   OH254570   4.955   5.607   4.363 -0.1047 -0.0918  0.7622
11052TIP3    H154571   5.051   5.606   4.352 -0.1258 -1.6811  0.3977
11052TIP3    H254572   4.937   5.532   4.419 -1.1981 -0.2073  0.2797
11053TIP3   OH254573   1.187   3.381  15.593  0.2093  0.3819 -0.0172
11053TIP3    H154574   1.198   3.402  15.500 -0.0184 -0.5035 -0.2612
11053TIP3    H254575   1.124   3.309  15.593  0.3167  0.2837  0.8185
11054TIP3   OH254576   0.130   2.258  11.516 -0.2967  0.1560 -0.1053
11054TIP3    H154577   0.224   2.248  11.533 -0.7102 -0.8338  1.8198
11054TIP3    H254578   0.102   2.328  11.574 -0.6909  0.7942 -1.0346
11055TIP3   OH254579   1.416   0.098   3.838 -0.1341  0.0528 -0.5651
11055TIP3    H154580   1.419   0.151   3.758 -0.2436  2.0168  0.6645
11055TIP3    H254581   1.506   0.101   3.871 -0.4230  0.5911  0.1908
11056TIP3   OH254582   6.413   5.555   4.411  0.7670 -0.6626  0.1634
11056TIP3    H154583   6.476   5.609   4.458 -1.1748  0.5852  1.5210
11056TIP3    H254584   6.462   5.478   4.383  3.2488  1.0356 -0.3899
11057TIP3   OH254585   6.166   3.542  13.508 -0.3471  0.1411 -0.4989
11057TIP3    H154586   6.109   3.537  13.430 -2.1296  0.4910  0.7240
11057TIP3    H254587   6.146   3.462  13.557  1.3022 -0.4415 -0.6976
11058TIP3   OH254588   4.992   3.909  11.530 -0.2890  0.4953  0.3889
11058TIP3    H154589   4.921   3.847  11.509  0.2236  0.3878 -1.1846
11058TIP3    H254590   5.069   3.854  11.542  0.2352  0.8033 -1.3123
11059TIP3   OH254591   4.798   3.842  11.790  0.3099  0.4649  0.1602
11059TIP3    H154592   4.870   3.827  11.851  1.5220  1.0280 -1.0841
11059TIP3    H254593   4.804   3.771  11.727 -1.4958 -0.6336  1.1368
11060TIP3   OH254594   5.626   5.612  11.813 -0.5329  0.0989 -0.5131
11060TIP3    H154595   5.563   5.589  11.882  0.0088  1.2755  0.4061
11060TIP3    H254596   5.585   5.686  11.768 -0.4805 -0.0965 -0.8792
11061TIP3   OH254597   5.156   3.365   4.395 -0.4587  0.0822 -0.4185
11061TIP3    H154598   5.201   3.316   4.326  2.2217  1.4201  0.2342
11061TIP3    H254599   5.142   3.452   4.357 -0.2164  0.4069  0.2186
11062TIP3   OH254600   3.592   4.130  15.807 -0.3694 -0.1474 -0.5791
11062TIP3    H154601   3.564   4.175  15.727 -0.1782 -2.5086 -2.0686
11062TIP3    H254602   3.523   4.150  15.870 -0.8253  1.3046 -1.4763
11063TIP3   OH254603   3.573   2.088   1.228 -0.1233  0.2177  0.0296
11063TIP3    H154604   3.524   2.143   1.167 -0.6347 -2.4465 -2.1386
11063TIP3    H254605   3.517   2.083   1.305 -0.9047  1.1890 -0.4444
11064TIP3   OH254606   4.111   3.098  16.091 -0.4084  0.6323 -0.4442
11064TIP3    H154607   4.048   3.139  16.150  1.0846  1.3883  0.6963
11064TIP3    H254608   4.140   3.169  16.034  0.1833  0.5513 -0.2543
11065TIP3   OH254609   0.500   1.870  11.962 -0.2106 -0.5424  0.0131
11065TIP3    H154610   0.436   1.802  11.942 -0.4854  0.0283 -1.1561
11065TIP3    H254611   0.532   1.849  12.050 -1.3590 -1.3333  0.2596
11066TIP3   OH254612   5.083   5.654  11.477 -0.6498 -0.3235  0.4178
11066TIP3    H154613   5.150   5.690  11.418 -1.2644 -0.6125 -0.4758
11066TIP3    H254614   5.119   5.570  11.504  0.0266  0.1874  1.1614
11067TIP3   OH254615   1.481   4.997  15.189 -0.2172  0.1953 -0.0082
11067TIP3    H154616   1.463   4.966  15.277 -0.6196 -0.1050 -0.1944
11067TIP3    H254617   1.576   4.991  15.180  0.2422  3.0582  1.4774
11068TIP3   OH254618   1.527   1.770  13.406 -0.0606 -0.7016  0.4097
11068TIP3    H154619   1.605   1.799  13.453  2.1387 -0.1741 -3.1807
11068TIP3    H254620   1.548   1.682  13.377 -0.5729 -0.3982 -0.9508
11069TIP3   OH254621   3.559   4.499   0.979 -0.1150 -0.3174 -0.5017
11069TIP3    H154622   3.588   4.433   0.916  1.7220  0.8845 -0.9766
11069TIP3    H254623   3.622   4.494   1.051  0.3568  1.1929 -0.7621
11070TIP3   OH254624   1.230   1.758   0.887  0.3627 -0.8256  0.7503
11070TIP3    H154625   1.299   1.745   0.823 -2.1421 -0.0837 -2.3244
11070TIP3    H254626   1.271   1.810   0.957  2.3549  1.8304 -2.1421
11071TIP3   OH254627   3.432   4.538   5.350  0.3866 -0.2396 -0.8805
11071TIP3    H154628   3.372   4.572   5.417  0.6658  0.3847 -0.9460
11071TIP3    H254629   3.515   4.582   5.367  0.6060 -0.4838 -1.3074
11072TIP3   OH254630   6.577   2.256   3.985  0.1481 -0.4593 -0.0668
11072TIP3    H154631   6.571   2.321   3.915 -2.8310 -1.1821 -0.6548
11072TIP3    H254632   6.615   2.303   4.059  2.1819  0.6787 -1.7367
11073TIP3   OH254633   5.951   6.320   6.043 -0.1966  0.2581  0.0362
11073TIP3    H154634   6.021   6.267   6.081 -1.3741 -0.1560  1.7234
11073TIP3    H254635   5.976   6.411   6.061 -0.3561  0.0898  1.1502
11074TIP3   OH254636   5.374   3.785  15.857 -0.0431 -0.1219  0.1793
11074TIP3    H154637   5.441   3.823  15.913  0.5162 -1.0239  0.1355
11074TIP3    H254638   5.297   3.840  15.871  0.0822 -0.3371  1.8272
11075TIP3   OH254639   6.228   4.956   6.224 -0.0614  0.5222  0.4239
11075TIP3    H154640   6.309   4.907   6.235  1.1415  2.5813  1.1242
11075TIP3    H254641   6.159   4.893   6.247  1.4072 -0.7708  1.4762
11076TIP3   OH254642   4.571   3.251  15.803  0.2493  0.4444 -0.2432
11076TIP3    H154643   4.510   3.325  15.803 -0.6413 -0.1309 -3.5095
11076TIP3    H254644   4.645   3.280  15.750  0.4710 -0.5716 -0.5141
11077TIP3   OH254645   0.109   4.477   3.485  0.4493 -0.5096 -1.1180
11077TIP3    H154646   0.184   4.490   3.543  0.6342 -0.7333 -1.3040
11077TIP3    H254647   0.040   4.445   3.543 -0.4496  2.4623 -0.3829
11078TIP3   OH254648   0.170   4.103  13.350 -0.1844 -0.1288  0.2618
11078TIP3    H154649   0.158   4.099  13.255  3.0106 -2.1021 -0.2188
11078TIP3    H254650   0.209   4.018  13.373 -1.6043 -0.0500  3.5102
11079TIP3   OH254651   4.766   6.378  17.145 -0.0968  0.2906 -0.1118
11079TIP3    H154652   4.833   6.336  17.091 -1.0375 -0.2368 -0.9054
11079TIP3    H254653   4.783   6.346  17.233  0.8861  0.4165 -0.2460
11080TIP3   OH254654   3.529   2.930  16.734  0.2539 -0.0223  0.3454
11080TIP3    H154655   3.542   2.993  16.664 -1.2061  0.5414  0.5550
11080TIP3    H254656   3.471   2.974  16.796 -0.8761 -1.5779  0.4525
11081TIP3   OH254657   2.552   0.714  14.657 -0.1499 -0.3459  0.7274
11081TIP3    H154658   2.541   0.781  14.724  2.1287  1.8497 -0.9243
11081TIP3    H254659   2.608   0.648  14.699  2.1254  1.4934  0.8125
11082TIP3   OH254660   1.147   0.834  14.001  0.0798 -0.5505  0.1873
11082TIP3    H154661   1.158   0.837  13.906 -0.0188  2.1409  0.1785
11082TIP3    H254662   1.233   0.807  14.035  1.4465  2.4181 -0.5891
11083TIP3   OH254663   2.920   4.730  16.019 -0.3482 -0.1354 -0.3882
11083TIP3    H154664   2.841   4.783  16.009 -0.8389 -0.9307 -0.8908
11083TIP3    H254665   2.888   4.641  16.033  0.4595 -0.3913 -0.0894
11084TIP3   OH254666   0.256   0.792  11.639  0.1546  0.0163  0.5447
11084TIP3    H154667   0.177   0.740  11.627  0.9540 -1.2758  0.6863
11084TIP3    H254668   0.231   0.880  11.612 -1.2690 -0.4054  0.4025
11085TIP3   OH254669   3.574   0.427  15.539  0.7095 -0.2226  0.7808
11085TIP3    H154670   3.651   0.449  15.486 -0.5197  1.7151 -0.3355
11085TIP3    H254671   3.590   0.468  15.624  0.9586  0.0722  0.5933
11086TIP3   OH254672   1.319   2.467  13.175  0.0593 -0.6040  0.1857
11086TIP3    H154673   1.390   2.405  13.158  1.3214  1.0215 -0.7798
11086TIP3    H254674   1.285   2.489  13.088  1.6277  2.2113  0.1552
11087TIP3   OH254675   5.510   5.606   5.997 -0.7187  0.1541  0.4889
11087TIP3    H154676   5.553   5.585   6.080 -0.5508  0.1694  0.4072
11087TIP3    H254677   5.428   5.648   6.022 -0.3855  0.7207  0.6529
11088TIP3   OH254678   2.804   1.505  16.265 -0.3052  0.0109  0.0919
11088TIP3    H154679   2.750   1.556  16.205 -1.8463 -0.4240  1.0305
11088TIP3    H254680   2.893   1.517  16.234 -1.0156 -0.0778 -2.1931
11089TIP3   OH254681   3.316   3.843   5.268  0.0325 -0.0480  0.0754
11089TIP3    H154682   3.300   3.929   5.230 -0.2652 -0.7054 -1.3680
11089TIP3    H254683   3.249   3.786   5.229  1.5785 -1.3848 -0.7707
11090TIP3   OH254684   2.749   2.910  16.547  0.6346 -0.8258 -0.2077
11090TIP3    H154685   2.706   2.868  16.472 -1.4964 -0.1210  0.5543
11090TIP3    H254686   2.730   3.004  16.536 -0.4230 -0.7847  1.5998
11091TIP3   OH254687   4.467   3.760  12.625  0.7559 -0.2060  0.0754
11091TIP3    H154688   4.555   3.780  12.657  0.4853  3.0792 -0.8463
11091TIP3    H254689   4.465   3.797  12.537 -1.6339  0.0026  0.1534
11092TIP3   OH254690   5.579   4.684  12.550  0.4803  0.2419 -0.1507
11092TIP3    H154691   5.496   4.648  12.520  1.5873 -0.9326 -1.9373
11092TIP3    H254692   5.608   4.625  12.620  0.0125  0.4534  0.2282
11093TIP3   OH254693   2.209   2.539  14.441 -0.0252 -0.2059 -0.2569
11093TIP3    H154694   2.243   2.538  14.531 -0.1756 -0.0436 -0.1973
11093TIP3    H254695   2.286   2.554  14.386  0.2974 -1.7078 -0.2605
11094TIP3   OH254696   4.469   3.361  14.533  0.0285 -1.5719  0.3806
11094TIP3    H154697   4.381   3.325  14.535 -0.2182 -1.1491 -1.4056
11094TIP3    H254698   4.492   3.365  14.440  0.6275  1.3823  0.5504
11095TIP3   OH254699   2.146   3.525   5.001 -0.3178 -0.0384 -0.3895
11095TIP3    H154700   2.167   3.508   5.093 -0.3871 -0.6329 -0.4818
11095TIP3    H254701   2.076   3.464   4.981  0.1899 -0.4227 -1.0412
11096TIP3   OH254702   3.331   2.599  13.853 -0.0474  0.1968 -0.2725
11096TIP3    H154703   3.243   2.630  13.830  0.4028  1.1028 -0.8357
11096TIP3    H254704   3.366   2.668  13.910 -0.7814 -1.5466  2.5066
11097TIP3   OH254705   1.815   4.019  11.609 -0.6726  0.2997  0.0389
11097TIP3    H154706   1.764   4.099  11.598 -0.5740  0.2094 -1.2015
11097TIP3    H254707   1.817   4.004  11.704 -2.0820  0.8587  0.1727
11098TIP3   OH254708   1.510   3.217   3.987 -0.2561 -0.0520  0.2859
11098TIP3    H154709   1.470   3.270   4.056 -1.1767 -0.7301  0.2965
11098TIP3    H254710   1.494   3.127   4.014 -0.3558 -0.3285 -0.6525
11099TIP3   OH254711   3.236   2.543  12.073  0.1839  0.0490 -0.5937
11099TIP3    H154712   3.265   2.453  12.086  0.0396 -0.2491 -2.1113
11099TIP3    H254713   3.205   2.545  11.982 -0.5899  1.4226 -0.3208
11100TIP3   OH254714   1.012   0.134  11.799  0.1067  0.1565  0.7514
11100TIP3    H154715   1.036   0.184  11.721  0.5778  1.7311  1.8793
11100TIP3    H254716   1.047   0.184  11.872  0.1998 -1.6023  1.9678
11101TIP3   OH254717   4.921   2.379   2.179  0.2205 -0.0608  0.0940
11101TIP3    H154718   4.869   2.404   2.102  0.8007  1.4667  0.1712
11101TIP3    H254719   4.920   2.283   2.178 -0.5463 -0.0668 -1.2912
11102TIP3   OH254720   2.430   4.146  13.447 -0.4654  0.1423  0.0252
11102TIP3    H154721   2.418   4.071  13.389  0.0613 -0.0080  0.1061
11102TIP3    H254722   2.417   4.112  13.535  0.6053 -0.0510  0.1259
11103TIP3   OH254723   2.512   1.579   2.670  0.4942  0.2420  0.8498
11103TIP3    H154724   2.431   1.622   2.641  0.8464 -0.0719 -0.6894
11103TIP3    H254725   2.486   1.532   2.750 -1.3496 -1.3191 -0.5411
11104TIP3   OH254726   2.384   0.675  16.109  0.3156 -0.4049 -0.2222
11104TIP3    H154727   2.340   0.672  16.194  3.2768 -1.2725  1.4338
11104TIP3    H254728   2.381   0.767  16.083 -2.4338 -0.4428 -0.2842
11105TIP3   OH254729   5.892   2.635   4.469  0.2063  0.3299 -0.3666
11105TIP3    H154730   5.896   2.605   4.560  1.9340  0.3429 -0.4052
11105TIP3    H254731   5.859   2.725   4.474 -1.0512 -0.1286  0.0975
11106TIP3   OH254732   3.059   3.793   1.852  0.4723 -0.3834 -0.0775
11106TIP3    H154733   3.110   3.713   1.842 -1.2866 -1.6240  0.4030
11106TIP3    H254734   3.067   3.838   1.768  2.8443 -0.1839  0.2009
11107TIP3   OH254735   4.626   2.787   6.746 -0.4370 -0.2507  0.2359
11107TIP3    H154736   4.620   2.825   6.659  0.1906 -2.4690 -0.8566
11107TIP3    H254737   4.575   2.706   6.740  1.8788 -1.8571  1.0578
11108TIP3   OH254738   6.649   0.914  16.489 -0.0396  0.3952 -0.0756
11108TIP3    H154739   6.672   0.832  16.533  2.4316  0.1177 -1.6619
11108TIP3    H254740   6.704   0.980  16.531  0.2673  0.6445 -0.8523
11109TIP3   OH254741   6.723   4.702  14.284  0.0263  0.6871  0.2511
11109TIP3    H154742   6.738   4.607  14.275 -2.6325  0.0385  1.7940
11109TIP3    H254743   6.735   4.736  14.195 -0.8639 -1.4078 -0.7399
11110TIP3   OH254744   4.063   5.673   4.822  0.0491  0.3201 -0.1571
11110TIP3    H154745   4.137   5.639   4.872 -0.2749  1.1638  0.9159
11110TIP3    H254746   4.015   5.594   4.795 -0.6077 -0.1348  2.1721
11111TIP3   OH254747   3.952   1.503  13.276  0.3319 -0.2153 -0.1699
11111TIP3    H154748   3.964   1.495  13.371  0.4391 -0.9598 -0.2380
11111TIP3    H254749   3.870   1.551  13.266  0.0839 -0.5339  0.3038
11112TIP3   OH254750   2.174   2.167   0.775 -0.4734  0.4650  0.1279
11112TIP3    H154751   2.169   2.110   0.698 -2.1096 -0.4551  0.8654
11112TIP3    H254752   2.115   2.239   0.754  1.1869  1.6737 -0.5797
11113TIP3   OH254753   1.449   2.103  15.052 -0.1035 -0.1644  0.2327
11113TIP3    H154754   1.472   2.089  15.144 -0.4664 -0.5334  0.2709
11113TIP3    H254755   1.514   2.052  15.003 -0.6784 -1.0098  0.3312
11114TIP3   OH254756   0.653   1.711   3.896 -0.1259  0.1963 -0.2754
11114TIP3    H154757   0.636   1.638   3.955  1.5728 -0.3251 -0.3809
11114TIP3    H254758   0.574   1.717   3.842 -1.8028  0.7899  2.0687
11115TIP3   OH254759   5.170   1.448   1.008 -0.0633 -0.4099  0.1123
11115TIP3    H154760   5.155   1.461   1.102  2.6246  0.0767  0.5577
11115TIP3    H254761   5.158   1.354   0.994 -0.0792 -0.5556  1.0329
11116TIP3   OH254762   5.265   5.148   4.701 -0.4207  0.4998 -0.3750
11116TIP3    H154763   5.276   5.059   4.665  0.9499 -0.2822  1.7862
11116TIP3    H254764   5.204   5.137   4.774 -1.8551  1.7486 -1.3306
11117TIP3   OH254765   4.886   3.735   3.051 -0.5915  0.2492 -0.2540
11117TIP3    H154766   4.921   3.766   3.135 -1.7548  0.5671  0.1274
11117TIP3    H254767   4.930   3.651   3.036  2.2082  1.7017 -1.0274
11118TIP3   OH254768   1.769   6.755   5.546 -0.0314 -0.1983 -0.0384
11118TIP3    H154769   1.763   6.832   5.602  0.5100  1.2347 -1.8365
11118TIP3    H254770   1.833   6.699   5.588  1.7417  1.6726 -0.1136
11119TIP3   OH254771   0.980   2.687  14.741 -0.3620 -0.2492  0.0960
11119TIP3    H154772   1.063   2.732  14.726 -0.6919 -0.3943 -2.5928
11119TIP3    H254773   1.006   2.602  14.778  0.5450  0.3199  0.8193
11120TIP3   OH254774   3.259   6.176  13.662  0.3357 -0.3181 -0.1871
11120TIP3    H154775   3.325   6.109  13.679  0.0225 -0.4923  0.3422
11120TIP3    H254776   3.296   6.256  13.699  0.3048 -0.3880 -0.0075
11121TIP3   OH254777   0.162   2.087   3.863  0.5267 -0.4299 -0.5864
11121TIP3    H154778   0.223   2.024   3.901 -0.3123 -1.6956 -1.2763
11121TIP3    H254779   0.080   2.038   3.852 -0.6606  1.2368  0.3680
11122TIP3   OH254780   1.231   2.066   5.087  0.3022  0.0870  0.2589
11122TIP3    H154781   1.245   2.149   5.042  0.4590  0.3203  0.7403
11122TIP3    H254782   1.318   2.040   5.117  0.4821 -0.8919 -0.9868
11123TIP3   OH254783   4.519   4.081  13.319 -0.3032 -0.0155  0.6836
11123TIP3    H154784   4.521   4.137  13.241 -0.0315 -1.2896 -0.2442
11123TIP3    H254785   4.537   4.141  13.391 -0.6538  1.2094 -0.2144
11124TIP3   OH254786   5.687   3.003   0.827  0.1359  0.5198 -0.0707
11124TIP3    H154787   5.634   3.057   0.768 -1.2368 -0.8286 -0.1181
11124TIP3    H254788   5.767   2.984   0.777 -1.9721 -2.6414 -2.6346
11125TIP3   OH254789   3.049   1.964   2.427 -0.3007  0.1441 -0.0320
11125TIP3    H154790   3.023   1.874   2.407 -0.8491  0.3841 -0.4504
11125TIP3    H254791   2.966   2.008   2.448  0.1977  0.0230  2.3897
11126TIP3   OH254792   1.021   1.739   3.119  0.0950 -0.0186  0.5796
11126TIP3    H154793   1.026   1.649   3.152 -1.4113  0.5450  2.5843
11126TIP3    H254794   0.958   1.782   3.177 -0.1211  2.0381 -1.0528
11127TIP3   OH254795   5.518   5.384   4.168  0.2517 -0.3009 -0.2408
11127TIP3    H154796   5.570   5.463   4.150 -0.8793  0.3705 -0.6166
11127TIP3    H254797   5.505   5.385   4.262 -0.8322  0.6664 -0.3831
11128TIP3   OH254798   5.047   3.534   6.343  0.2529  0.5153  0.0145
11128TIP3    H154799   5.030   3.615   6.391  0.1073  0.5614 -0.1137
11128TIP3    H254800   4.994   3.542   6.263  1.2617  0.9016 -0.6458
11129TIP3   OH254801   0.245   0.021   4.710  0.2669  0.6643  0.2831
11129TIP3    H154802   0.251  -0.070   4.680  1.6872  1.0772 -0.7658
11129TIP3    H254803   0.185   0.063   4.649 -0.5879  0.4065  0.9156
11130TIP3   OH254804   0.461   0.670   5.945  0.3095 -0.2543  0.0690
11130TIP3    H154805   0.495   0.650   6.032  1.1107  0.9329  0.0476
11130TIP3    H254806   0.454   0.765   5.942 -0.8461 -0.3404 -0.7615
11131TIP3   OH254807   5.464   5.133   0.630  0.2186  0.4717  0.0219
11131TIP3    H154808   5.465   5.139   0.534  1.9394 -1.4098 -0.1301
11131TIP3    H254809   5.461   5.224   0.659  1.1190  1.1454 -1.8254
11132TIP3   OH254810   0.946   1.757   4.387  0.2934  0.3672  0.1225
11132TIP3    H154811   0.992   1.841   4.390  1.3798 -0.0332 -2.6543
11132TIP3    H254812   0.870   1.773   4.331  0.1826 -0.3647  0.0529
11133TIP3   OH254813   1.956   2.748  11.357  0.4092 -0.4277  0.3967
11133TIP3    H154814   1.878   2.755  11.411 -1.4412 -1.8703 -1.8553
11133TIP3    H254815   1.966   2.834  11.317  0.4628 -0.0048  1.3070
11134TIP3   OH254816   1.024   3.729   5.666  0.1634  0.0878 -0.3677
11134TIP3    H154817   0.948   3.759   5.716  0.3544 -0.9272  0.5563
11134TIP3    H254818   1.065   3.663   5.721 -0.4327 -2.1723 -2.4827
11135TIP3   OH254819   1.205   2.976   0.860 -0.0012 -0.1237 -0.2376
11135TIP3    H154820   1.263   2.930   0.800  0.5194  0.5850 -0.3032
11135TIP3    H254821   1.227   2.941   0.946 -0.1110 -0.4993 -0.3632
11136TIP3   OH254822   1.047   2.308   6.807 -0.6512 -0.3626 -0.7122
11136TIP3    H154823   1.071   2.228   6.761 -0.0459 -0.9376  0.5501
11136TIP3    H254824   1.072   2.292   6.898  1.3274  1.9609 -0.7237
11137TIP3   OH254825   0.287   1.937  13.457  0.0293  0.7808  0.1594
11137TIP3    H154826   0.301   1.955  13.364 -1.1996 -0.9300 -0.4094
11137TIP3    H254827   0.242   1.853  13.459  2.5448 -0.6726  2.4544
11138TIP3   OH254828   4.157   5.386   3.938 -0.2135  0.0286 -0.2958
11138TIP3    H154829   4.177   5.459   3.879  1.7718 -0.7366 -0.6799
11138TIP3    H254830   4.159   5.309   3.881 -1.2978 -0.4398  0.2741
11139TIP3   OH254831   0.317   2.758  13.143  0.3115  0.0404  0.1135
11139TIP3    H154832   0.388   2.698  13.167 -1.0299 -1.0675  1.4364
11139TIP3    H254833   0.290   2.729  13.056  1.3971  0.4291 -0.3765
11140TIP3   OH254834   5.738   6.429  15.378  0.2682  0.0972 -0.4677
11140TIP3    H154835   5.748   6.434  15.473 -1.4129 -1.7641 -0.1273
11140TIP3    H254836   5.650   6.462  15.362  0.1363 -0.5938 -1.2336
11141TIP3   OH254837   1.034   6.260   0.232 -0.6871  0.3761 -0.2669
11141TIP3    H154838   1.082   6.297   0.306 -1.2377 -0.3121  0.4488
11141TIP3    H254839   0.987   6.335   0.195  0.8350  1.0448 -0.9297
11142TIP3   OH254840   2.864   3.500  12.336 -0.6257  0.4181 -0.3492
11142TIP3    H154841   2.916   3.425  12.306  0.8340  1.3103 -0.1314
11142TIP3    H254842   2.775   3.466  12.340  0.0976 -1.5784  0.6117
11143TIP3   OH254843   2.430   0.646  12.537  0.0492 -0.5645 -0.2208
11143TIP3    H154844   2.461   0.573  12.591 -3.1606 -2.1043 -0.2007
11143TIP3    H254845   2.452   0.620  12.447  0.3146 -0.8030 -0.0882
11144TIP3   OH254846   0.001   3.619   2.588  0.2502  0.2953 -0.0773
11144TIP3    H154847   0.087   3.659   2.572  0.9454 -0.8224  0.6508
11144TIP3    H254848  -0.036   3.671   2.660  0.7840  0.1528  0.3124
11145TIP3   OH254849   5.148   2.036  17.204 -0.2145 -0.0457  0.3313
11145TIP3    H154850   5.156   2.109  17.143 -1.1704 -1.2220 -1.3006
11145TIP3    H254851   5.075   1.984  17.169 -0.7138 -0.8678  2.4143
11146TIP3   OH254852   4.316   4.377   2.019  0.7462  0.3257  0.0452
11146TIP3    H154853   4.261   4.374   1.940  0.1297 -0.2419  0.4812
11146TIP3    H254854   4.335   4.470   2.031 -1.9718  0.8434  1.1026
11147TIP3   OH254855   0.257   3.743   2.716  0.5913  0.4984 -0.3548
11147TIP3    H154856   0.341   3.759   2.759  1.4124  2.9573 -2.5879
11147TIP3    H254857   0.193   3.742   2.788  2.2398  1.0296  1.1934
11148TIP3   OH254858   0.586   6.247  13.341 -0.0222  0.3596 -0.5495
11148TIP3    H154859   0.648   6.228  13.412 -0.3519  2.4571  0.3938
11148TIP3    H254860   0.500   6.229  13.379 -0.0945 -1.0264 -1.3267
11149TIP3   OH254861   3.861   3.682   5.532  0.0554 -0.4764 -0.3546
11149TIP3    H154862   3.925   3.693   5.602 -0.1564  4.3712 -0.5578
11149TIP3    H254863   3.777   3.677   5.578  0.0540  1.0408 -0.1293
11150TIP3   OH254864   5.522   5.143   2.475 -0.3406 -0.0466  0.0828
11150TIP3    H154865   5.556   5.221   2.431 -0.4897  0.2879  0.5508
11150TIP3    H254866   5.600   5.095   2.502 -0.2471 -0.0181 -0.1347
11151TIP3   OH254867   4.923   6.187  16.049 -0.5683  0.1664 -0.9070
11151TIP3    H154868   4.904   6.102  16.008  0.1748  0.2881 -1.5326
11151TIP3    H254869   4.841   6.235  16.043 -2.5155 -2.0171  3.5136
11152TIP3   OH254870   5.554   1.909  14.825 -0.0869 -0.0666  0.1528
11152TIP3    H154871   5.612   1.984  14.813 -1.5281  1.0369 -0.2575
11152TIP3    H254872   5.529   1.913  14.918 -0.6273  0.3398 -0.0024
11153TIP3   OH254873   4.473   2.402   4.709  0.0351 -0.3629 -0.1761
11153TIP3    H154874   4.469   2.496   4.688 -1.2877 -0.2178  0.6142
11153TIP3    H254875   4.393   2.386   4.759  1.2837 -1.4762  1.5423
11154TIP3   OH254876   1.193   1.488   5.290 -0.6871  0.1048 -0.2555
11154TIP3    H154877   1.267   1.483   5.352  0.1549  1.9155 -1.0418
11154TIP3    H254878   1.218   1.430   5.218 -0.7928 -0.5209  0.1970
11155TIP3   OH254879   3.914   1.780  11.372  0.8255  0.5457  0.1246
11155TIP3    H154880   3.873   1.864  11.392  0.8833  0.6689 -0.2776
11155TIP3    H254881   3.916   1.776  11.277  0.9880  0.1678  0.1428
11156TIP3   OH254882   0.003   1.765   1.063  0.1372  0.3598 -0.2704
11156TIP3    H154883   0.030   1.758   0.971  1.0718 -2.7910  0.1284
11156TIP3    H254884   0.080   1.799   1.108  0.3448  0.1071 -0.4270
11157TIP3   OH254885   1.787   4.819  12.930  0.0597 -0.5498  0.6276
11157TIP3    H154886   1.761   4.890  12.989 -1.2330 -0.8119  0.4126
11157TIP3    H254887   1.757   4.848  12.844  1.6068 -0.3338  0.1347
11158TIP3   OH254888   6.079   4.347  14.968 -0.3787  1.1387  0.3635
11158TIP3    H154889   6.070   4.299  15.050 -2.8943  3.0657  1.3507
11158TIP3    H254890   6.051   4.285  14.900 -1.3520  0.4814  1.3327
11159TIP3   OH254891   6.258   2.438   2.856  0.3139 -0.0294  0.3803
11159TIP3    H154892   6.249   2.473   2.767  2.3160  1.4960  0.7091
11159TIP3    H254893   6.197   2.491   2.908 -1.0475 -1.0916 -0.0750
11160TIP3   OH254894   5.896   4.081  17.150 -0.6847  0.3258 -0.1068
11160TIP3    H154895   5.933   4.007  17.198 -1.3127 -0.1289 -0.2999
11160TIP3    H254896   5.969   4.140  17.136 -0.4969  0.5629  1.5618
11161TIP3   OH254897   6.537   1.789   1.038 -0.6965  0.2369 -0.5925
11161TIP3    H154898   6.514   1.696   1.027 -0.3361  0.0887 -0.1377
11161TIP3    H254899   6.633   1.790   1.032 -0.7424  0.6698 -1.2294
11162TIP3   OH254900   2.377   5.188  16.408 -0.1315 -0.1930 -0.0482
11162TIP3    H154901   2.423   5.270  16.424  0.9668 -0.9640  1.0238
11162TIP3    H254902   2.441   5.134  16.361  0.0377 -1.2196  1.2972
11163TIP3   OH254903   2.765   2.673  15.833  0.1242  0.2305 -0.5663
11163TIP3    H154904   2.848   2.715  15.859  0.9090 -1.1917 -0.6969
11163TIP3    H254905   2.714   2.744  15.795  1.6322  0.9711 -1.3061
11164TIP3   OH254906   6.659   2.152  12.178 -0.1139  0.5619  0.4512
11164TIP3    H154907   6.747   2.178  12.150 -0.5627  0.5693 -1.0474
11164TIP3    H254908   6.640   2.074  12.126 -0.9213  0.4337  0.9293
11165TIP3   OH254909   1.198   6.565   1.577 -0.1575  0.0415 -0.2530
11165TIP3    H154910   1.189   6.528   1.489  1.1883  0.3381 -0.5322
11165TIP3    H254911   1.270   6.627   1.570 -1.3135  1.5360  0.6092
11166TIP3   OH254912   3.004   4.879  12.675 -0.1204 -0.6808  0.2268
11166TIP3    H154913   2.940   4.814  12.704 -1.0725  0.3629  0.5660
11166TIP3    H254914   2.980   4.898  12.584 -0.9074  0.3522  0.6144
11167TIP3   OH254915   4.845   0.312   5.738 -0.5475  0.1301 -0.3023
11167TIP3    H154916   4.750   0.320   5.732 -0.6851 -0.9609  0.1414
11167TIP3    H254917   4.867   0.246   5.674  0.1892  1.8435 -1.8961
11168TIP3   OH254918   3.109   2.062  13.678  0.3593 -0.0542 -0.0577
11168TIP3    H154919   3.046   2.012  13.627 -0.1980  2.6152 -2.2494
11168TIP3    H254920   3.057   2.132  13.717  1.7042  1.4676 -0.8686
11169TIP3   OH254921   0.953   1.610  11.791 -0.3760 -0.0634 -0.5685
11169TIP3    H154922   0.940   1.689  11.737 -0.4517 -0.2443 -0.8150
11169TIP3    H254923   0.918   1.634  11.877 -0.1816  0.2544 -0.5765
11170TIP3   OH254924   3.713   3.503   0.933  0.5459 -0.0492  0.1981
11170TIP3    H154925   3.696   3.554   0.854 -0.2642  0.6575  0.8124
11170TIP3    H254926   3.715   3.412   0.903 -2.6580 -0.0717 -0.2598
11171TIP3   OH254927   0.917   1.411   4.160 -0.0429 -0.3333 -0.0425
11171TIP3    H154928   0.844   1.414   4.220  0.2823 -0.6043  0.3728
11171TIP3    H254929   0.909   1.490   4.107  0.7261  0.8983  1.5991
11172TIP3   OH254930   2.423   5.989  16.765  0.0250 -0.1268 -0.7387
11172TIP3    H154931   2.412   5.902  16.725 -0.5408  0.4244 -1.8214
11172TIP3    H254932   2.439   5.970  16.858  1.7105 -1.4556 -1.2530
11173TIP3   OH254933   0.626   2.248  13.858  0.2367  0.1432 -0.2717
11173TIP3    H154934   0.576   2.260  13.939 -1.4895  1.0246 -1.4020
11173TIP3    H254935   0.647   2.337  13.830  0.5446 -0.1417 -0.9568
11174TIP3   OH254936   2.522   1.043   3.867 -0.1028 -0.0380  0.1951
11174TIP3    H154937   2.605   1.017   3.906 -0.2369 -1.1130 -0.2263
11174TIP3    H254938   2.491   1.114   3.924  0.2588 -0.8016  1.3951
11175TIP3   OH254939   4.069   1.163  11.225 -0.4156 -0.2064  0.2468
11175TIP3    H154940   4.029   1.248  11.207 -1.4066 -1.0250 -1.6313
11175TIP3    H254941   4.130   1.149  11.152  2.0974  0.1943  2.1078
11176TIP3   OH254942   4.007   4.270  14.216 -0.3668  0.0402  0.3601
11176TIP3    H154943   4.097   4.261  14.248 -0.9345 -1.3205  1.7133
11176TIP3    H254944   3.983   4.360  14.239  0.1769 -0.0411  1.3182
11177TIP3   OH254945   5.875   3.655   2.957  0.0996  0.1672  0.7673
11177TIP3    H154946   5.872   3.690   2.868  2.4845  0.3170  0.6933
11177TIP3    H254947   5.863   3.731   3.013 -0.8593  0.1519  0.6031
11178TIP3   OH254948   0.425   0.547  15.347 -0.5310 -0.2678 -0.4090
11178TIP3    H154949   0.463   0.460  15.363  0.2535  0.2146  0.4584
11178TIP3    H254950   0.387   0.572  15.431  1.9605  1.5090  0.2747
11179TIP3   OH254951   1.620   6.734   4.446 -0.5901 -0.0600 -0.0617
11179TIP3    H154952   1.629   6.811   4.503 -1.4599  0.3167 -0.4105
11179TIP3    H254953   1.617   6.660   4.506  1.6801  0.0238  0.2160
11180TIP3   OH254954   3.145   0.916  13.028 -0.3588 -0.0362 -0.4075
11180TIP3    H154955   3.105   0.957  12.953 -1.7822  0.3109  0.5064
11180TIP3    H254956   3.127   0.975  13.101 -1.3053 -1.5748  0.6870
11181TIP3   OH254957   1.807   1.583  15.373  0.4235 -0.7721 -0.7766
11181TIP3    H154958   1.838   1.496  15.399  2.2251 -0.1503 -0.6598
11181TIP3    H254959   1.772   1.622  15.453  0.9268 -0.8904 -0.4899
11182TIP3   OH254960   5.948   6.329   2.799 -0.0544  0.3887  0.1558
11182TIP3    H154961   6.004   6.301   2.872 -0.6829 -1.6468 -0.0748
11182TIP3    H254962   5.891   6.396   2.836  0.4132  0.2128  1.2357
11183TIP3   OH254963   4.194   2.957   5.962 -0.6131  0.1304 -0.1313
11183TIP3    H154964   4.153   2.913   6.037 -1.0417 -0.3443 -0.6368
11183TIP3    H254965   4.156   3.045   5.963  2.0460  1.4263  2.3496
11184TIP3   OH254966   6.223   5.648   0.674  0.0839 -0.3199  0.3908
11184TIP3    H154967   6.213   5.660   0.769  0.6902  0.1449  0.3987
11184TIP3    H254968   6.306   5.691   0.653 -0.4850  0.3730 -0.5039
11185TIP3   OH254969   4.909   4.664  12.063 -0.1005 -0.5083 -0.1765
11185TIP3    H154970   4.885   4.749  12.026  2.1769  0.0789 -0.4445
11185TIP3    H254971   4.836   4.607  12.040 -0.5836  0.7833 -2.1387
11186TIP3   OH254972   4.722   0.152  12.985 -0.1041  0.2325 -0.0234
11186TIP3    H154973   4.791   0.104  12.940  0.7246 -0.6882  2.0723
11186TIP3    H254974   4.658   0.085  13.009 -0.1099  0.5493  0.8735
11187TIP3   OH254975   6.471   5.869   4.265 -0.4149  1.0454  0.3609
11187TIP3    H154976   6.398   5.929   4.253 -0.1367  1.1353 -1.0684
11187TIP3    H254977   6.435   5.783   4.241  0.0850  1.1811 -0.9489
11188TIP3   OH254978   3.763   4.376  13.058  0.5652 -0.3434 -0.2939
11188TIP3    H154979   3.708   4.453  13.042  0.1970 -0.5808 -0.1988
11188TIP3    H254980   3.741   4.315  12.988  0.5099 -0.5454 -0.1035
11189TIP3   OH254981   5.327   0.315   3.885  0.2013  0.2410  0.3806
11189TIP3    H154982   5.315   0.336   3.978  1.5351  1.8050  0.2438
11189TIP3    H254983   5.387   0.382   3.853 -0.8914  0.2503 -1.8380
11190TIP3   OH254984   1.072   1.444  12.831  0.3228  0.0213  0.0011
11190TIP3    H154985   1.050   1.533  12.802  1.2336 -0.2202 -1.5459
11190TIP3    H254986   1.003   1.389  12.794  0.6759 -0.1087 -0.4725
11191TIP3   OH254987   2.661   4.065  11.804  0.0379  0.0345  0.2967
11191TIP3    H154988   2.682   3.973  11.823  0.2828  0.0023 -0.1079
11191TIP3    H254989   2.737   4.113  11.836  0.1802  0.0372 -0.0423
11192TIP3   OH254990   3.931   3.107   0.709 -0.5917  0.2917  0.1616
11192TIP3    H154991   3.879   3.098   0.629 -2.4644 -0.1248  1.3516
11192TIP3    H254992   4.021   3.090   0.682 -0.9954  1.3853 -2.0716
11193TIP3   OH254993   6.526   5.503  14.381 -0.7481 -0.1015  0.2565
11193TIP3    H154994   6.496   5.480  14.470  0.0753  0.1993  0.6175
11193TIP3    H254995   6.615   5.534  14.393 -0.5026 -0.4019 -0.7394
11194TIP3   OH254996   4.437   3.461   0.924  0.6907  0.2016  0.8001
11194TIP3    H154997   4.508   3.399   0.942  1.0719  0.9008  1.8381
11194TIP3    H254998   4.448   3.529   0.990 -0.1730  0.9933  0.1544
11195TIP3   OH254999   5.267   2.009   5.441 -0.0579  0.3493  0.3050
11195TIP3    H155000   5.308   2.059   5.370 -0.2066 -1.1948 -0.9206
11195TIP3    H255001   5.335   2.002   5.508 -0.0120  2.1021  0.4961
11196TIP3   OH255002   4.961   5.394  15.444  0.1468 -0.4433 -0.0889
11196TIP3    H155003   4.987   5.302  15.438 -2.0346 -1.1607  0.5046
11196TIP3    H255004   4.899   5.406  15.371 -0.8221  0.0859  0.7968
11197TIP3   OH255005   5.094   4.554   5.765  0.4890 -0.5035 -0.1043
11197TIP3    H155006   5.127   4.514   5.685  2.3337 -0.4757  0.5984
11197TIP3    H255007   5.141   4.510   5.835 -0.3504  0.1823  0.9218
11198TIP3   OH255008   2.231   2.701  16.444  0.1069  0.5361  0.2509
11198TIP3    H155009   2.164   2.749  16.397  0.6419  2.0607  0.9470
11198TIP3    H255010   2.273   2.767  16.499  2.1141 -0.3686 -0.0937
11199TIP3   OH255011   0.238   5.985  13.825  0.2615 -0.5713  0.1051
11199TIP3    H155012   0.303   6.053  13.841  1.4223 -1.1679 -1.8678
11199TIP3    H255013   0.158   6.034  13.804 -0.5245  0.2020  4.0906
11200TIP3   OH255014   6.762   0.381  14.162  0.3094 -0.3462  0.0169
11200TIP3    H155015   6.701   0.389  14.088  2.2793 -0.5468 -1.6974
11200TIP3    H255016   6.839   0.337  14.125  1.3130 -0.5826  2.2431
11201TIP3   OH255017   3.798   0.044   4.264 -0.2474  0.2299  0.1612
11201TIP3    H155018   3.706   0.021   4.276 -0.2550 -0.0603 -0.3953
11201TIP3    H255019   3.805   0.063   4.170  0.0557  1.1997  0.3702
11202TIP3   OH255020   2.531   1.609   1.679 -0.1265 -0.1795 -0.0895
11202TIP3    H155021   2.621   1.574   1.684 -0.4206 -0.7711  1.5319
11202TIP3    H255022   2.479   1.536   1.646  0.1570  0.6030 -2.5087
11203TIP3   OH255023   1.260   0.893   1.093 -0.1523 -0.1835  0.2876
11203TIP3    H155024   1.351   0.888   1.064  0.4148 -0.0868  1.9317
11203TIP3    H255025   1.242   0.809   1.134 -1.0657 -0.4792 -0.6661
11204TIP3   OH255026   5.501   0.520   3.792 -0.4706 -0.3697 -0.0615
11204TIP3    H155027   5.493   0.494   3.700 -0.4437 -0.7239  0.0354
11204TIP3    H255028   5.594   0.542   3.802 -0.8219  1.5188 -0.5980
11205TIP3   OH255029   3.087   0.107   6.299  0.1145 -0.3832 -0.0172
11205TIP3    H155030   3.075   0.202   6.302 -0.3736 -0.3413 -1.9746
11205TIP3    H255031   3.181   0.096   6.291  0.3455 -0.1717  1.8788
11206TIP3   OH255032   5.973   5.107  12.298 -0.1909 -0.6226  0.0210
11206TIP3    H155033   6.021   5.037  12.254  0.7153  0.6643 -1.1261
11206TIP3    H255034   6.012   5.188  12.264 -1.5843  0.4511  0.8700
11207TIP3   OH255035   1.908   1.707   2.330  0.4370  0.1774 -0.4254
11207TIP3    H155036   1.951   1.622   2.335  1.1986  0.5533 -0.5289
11207TIP3    H255037   1.957   1.763   2.391  0.6626  0.8510 -1.2116
11208TIP3   OH255038   0.546   6.485   3.755 -0.5508  0.0700 -0.2161
11208TIP3    H155039   0.567   6.408   3.807 -0.5966 -1.2011 -1.9920
11208TIP3    H255040   0.535   6.452   3.666 -0.6623  2.1234 -1.0248
11209TIP3   OH255041   0.488   0.278   4.855  0.6866  0.3266 -0.1924
11209TIP3    H155042   0.474   0.185   4.868  0.1796  0.7724  3.5459
11209TIP3    H255043   0.581   0.291   4.874  0.6445  0.6390 -0.1969
11210TIP3   OH255044   4.965   0.661  13.187 -0.0380  0.2058  0.4238
11210TIP3    H155045   4.967   0.752  13.158  0.7350 -0.0878 -0.4860
11210TIP3    H255046   4.875   0.632  13.169  0.1066  0.3784 -0.6140
11211TIP3   OH255047   4.832   1.598   3.627 -0.1606  0.2494  0.2924
11211TIP3    H155048   4.923   1.592   3.597 -0.1743  0.6319  0.1649
11211TIP3    H255049   4.780   1.564   3.554  0.0262 -3.3621  1.6263
11212TIP3   OH255050   2.275   1.918  12.765  0.1468  0.7149  0.7627
11212TIP3    H155051   2.192   1.924  12.719  0.6606  1.8798 -0.0778
11212TIP3    H255052   2.277   1.829  12.800 -1.1529  0.4589  0.2414
11213TIP3   OH255053   5.945   1.567  11.826  0.7399 -0.4153  0.2047
11213TIP3    H155054   6.040   1.556  11.824  1.2020  2.6591 -0.9488
11213TIP3    H255055   5.931   1.639  11.888 -0.7717 -0.5101  0.0033
11214TIP3   OH255056   6.114   5.685   2.380  0.2416  0.1463 -0.0910
11214TIP3    H155057   6.200   5.720   2.404  0.0884 -0.6060  1.7804
11214TIP3    H255058   6.122   5.658   2.289  2.0336 -0.0105  0.0931
11215TIP3   OH255059   3.689   0.855  15.227 -0.4691 -0.1090  0.0625
11215TIP3    H155060   3.717   0.776  15.274  1.7830  1.6763  1.9974
11215TIP3    H255061   3.654   0.912  15.295 -1.1851  0.9536 -1.1492
11216TIP3   OH255062   3.758   4.627  17.268 -0.0213 -0.2666  0.0717
11216TIP3    H155063   3.707   4.668  17.337  0.2017  1.9014 -0.9929
11216TIP3    H255064   3.837   4.681  17.259  0.3315 -0.9351 -1.3459
11217TIP3   OH255065   2.133   3.938   0.949 -0.1129  0.1320  0.1571
11217TIP3    H155066   2.115   4.032   0.955  1.3299  0.4486 -0.2384
11217TIP3    H255067   2.167   3.914   1.036  0.2112  0.1241  0.0268
11218TIP3   OH255068   0.090   1.088   1.849  0.6940  0.1581 -0.4845
11218TIP3    H155069   0.120   1.014   1.795 -0.0923 -1.5684  1.3235
11218TIP3    H255070   0.170   1.138   1.866  1.1374  0.1339 -2.2710
11219TIP3   OH255071   5.058   5.748   3.485 -0.1994  0.8448 -0.1460
11219TIP3    H155072   4.969   5.715   3.494 -0.8729  2.4292 -0.5851
11219TIP3    H255073   5.074   5.797   3.566 -0.0494  1.2819 -0.4364
11220TIP3   OH255074   5.519   6.580   2.839  0.4421  0.1598 -0.2357
11220TIP3    H155075   5.498   6.583   2.933  0.0633  0.0915 -0.3175
11220TIP3    H255076   5.438   6.606   2.796  1.1867  2.2697 -0.4862
11221TIP3   OH255077   3.841   6.403  15.885  0.3515  0.0733  0.2304
11221TIP3    H155078   3.806   6.425  15.971  0.8070 -0.7090  0.6357
11221TIP3    H255079   3.835   6.484  15.834 -0.1767  0.4696  0.9100
11222TIP3   OH255080   0.488   5.965  13.295 -0.1986 -1.1393  0.8028
11222TIP3    H155081   0.508   5.881  13.337  1.7874  0.4385  3.3247
11222TIP3    H255082   0.571   5.991  13.254 -0.6971 -0.2507  0.3432
11223TIP3   OH255083   0.615   4.964   2.349  0.8640 -0.5652 -0.0200
11223TIP3    H155084   0.658   5.006   2.423  2.8836  0.8392 -1.8407
11223TIP3    H255085   0.555   5.031   2.315  0.3978 -0.9807 -0.0354
11224TIP3   OH255086   2.627   5.023   1.808  0.0524 -0.1577  0.5651
11224TIP3    H155087   2.537   4.993   1.799  0.0245  0.2169 -0.5477
11224TIP3    H255088   2.649   5.060   1.723  1.5692 -1.0817  0.5082
11225TIP3   OH255089   0.266   1.113   0.048 -0.1292 -0.3797 -0.0710
11225TIP3    H155090   0.295   1.107   0.139 -1.3909 -2.1837  0.2631
11225TIP3    H255091   0.334   1.066  -0.001  0.5612  0.6088 -0.0902
11226TIP3   OH255092   0.250   5.500   5.145 -0.1823 -0.0843 -0.1651
11226TIP3    H155093   0.239   5.512   5.051 -1.3713  0.1998 -0.0126
11226TIP3    H255094   0.279   5.410   5.155 -2.2954 -0.8887 -0.6983
11227TIP3   OH255095   6.576   0.272  14.658  0.0192 -0.0434  0.3581
11227TIP3    H155096   6.621   0.314  14.584  0.2965 -2.1702 -0.7630
11227TIP3    H255097   6.533   0.196  14.619 -0.2808 -0.9133  2.3060
11228TIP3   OH255098   6.779   6.176  12.575 -0.2800  0.5903  0.3908
11228TIP3    H155099   6.850   6.114  12.594 -1.6384 -1.3689 -0.5604
11228TIP3    H255100   6.801   6.254  12.626  1.8808 -0.4119  1.1119
11229TIP3   OH255101   4.070   1.273   1.269 -0.2072 -0.5747  0.0008
11229TIP3    H155102   4.087   1.201   1.209  1.5154  1.0671 -1.6082
11229TIP3    H255103   4.088   1.238   1.355 -0.9873 -2.4880 -0.5618
11230TIP3   OH255104   4.814   1.162   2.098 -0.3316 -0.2342 -0.3321
11230TIP3    H155105   4.759   1.182   2.174  1.6216 -2.2261  1.7533
11230TIP3    H255106   4.852   1.247   2.073 -0.1652  0.3303  1.6614
11231TIP3   OH255107   1.639   0.001  11.632  0.2667  0.0494  0.8417
11231TIP3    H155108   1.623   0.091  11.603  2.0131  0.5611  1.3085
11231TIP3    H255109   1.596  -0.054  11.567  0.2692  1.2239 -0.1844
11232TIP3   OH255110   3.143   5.495  16.521  0.0229  0.3874  0.4338
11232TIP3    H155111   3.186   5.510  16.437 -0.7131 -1.2448 -0.2779
11232TIP3    H255112   3.076   5.564  16.527 -0.3836  0.1030 -0.6640
11233TIP3   OH255113   5.432   4.303  16.053  0.0814  0.0727  0.3566
11233TIP3    H155114   5.456   4.371  16.116 -1.6204  1.6878 -0.6353
11233TIP3    H255115   5.392   4.350  15.980  0.1187 -1.8978 -1.0322
11234TIP3   OH255116   2.833   4.075  12.904 -0.2415 -0.1194  0.3408
11234TIP3    H155117   2.836   4.164  12.940  1.1566 -0.4732  1.1735
11234TIP3    H255118   2.923   4.043  12.912 -0.9620 -2.0826  1.2669
11235TIP3   OH255119   2.348   3.969  11.266  0.4333  0.5371 -0.2463
11235TIP3    H155120   2.389   3.884  11.277  0.1698  0.1500 -1.9465
11235TIP3    H255121   2.332   3.977  11.172 -2.4678  1.0735  0.1730
11236TIP3   OH255122   5.732   1.106   0.307 -0.1143 -0.1385  0.0042
11236TIP3    H155123   5.728   1.029   0.363 -2.8936 -0.0963  0.0038
11236TIP3    H255124   5.733   1.180   0.367  1.8691 -0.1018 -0.0082
11237TIP3   OH255125   5.352   4.588  13.401 -0.4144  0.2992 -0.2960
11237TIP3    H155126   5.278   4.639  13.368 -0.9633 -0.1304  0.2604
11237TIP3    H255127   5.327   4.565  13.490  0.6037  0.5574  0.0662
11238TIP3   OH255128   4.151   2.811   3.405  0.2792 -0.0747  0.1544
11238TIP3    H155129   4.122   2.876   3.341  0.0842 -0.2814  0.0314
11238TIP3    H255130   4.144   2.727   3.359  3.4386  0.0494 -0.7340
11239TIP3   OH255131   1.560   4.547   0.456  0.1259 -0.1563 -0.2480
11239TIP3    H155132   1.492   4.577   0.396  0.2114  1.3003  0.3414
11239TIP3    H255133   1.622   4.499   0.402  0.5471  1.6728 -1.4741
11240TIP3   OH255134   3.761   6.179   0.310 -0.1239 -0.3256  0.4771
11240TIP3    H155135   3.682   6.128   0.327 -0.9685  1.1270  1.1675
11240TIP3    H255136   3.790   6.151   0.223 -2.1136 -0.0476 -0.3315
11241TIP3   OH255137   6.141   2.932  15.149 -0.7695  0.0704 -1.0847
11241TIP3    H155138   6.087   2.876  15.204 -0.3364 -0.1300 -0.8562
11241TIP3    H255139   6.151   3.013  15.198  0.3110 -0.4111 -0.4694
11242TIP3   OH255140   3.268   2.208   1.462 -0.2095 -0.2002 -0.0215
11242TIP3    H155141   3.261   2.113   1.461 -0.7467 -0.1812  0.8024
11242TIP3    H255142   3.177   2.239   1.454 -0.0161  0.2573 -0.5912
11243TIP3   OH255143   3.941   2.477  14.200  0.2742 -0.0415 -0.4433
11243TIP3    H155144   3.990   2.414  14.252  1.8546 -0.5672 -2.4444
11243TIP3    H255145   3.965   2.563  14.237 -0.6231 -0.4536  1.2326
11244TIP3   OH255146   5.435   0.284  12.642  0.3975  0.0622  0.1451
11244TIP3    H155147   5.418   0.363  12.592 -1.2032  1.1478  2.2688
11244TIP3    H255148   5.384   0.216  12.598  1.3670  0.2793 -1.3801
11245TIP3   OH255149   5.738   6.352  10.659 -0.3832  0.1598 -0.5200
11245TIP3    H155150   5.809   6.313  10.607  0.0434 -1.3164  1.0675
11245TIP3    H255151   5.674   6.282  10.670  0.3135 -0.1753  2.2753
11246TIP3   OH255152   5.000   2.518  14.377 -0.2513  0.2114 -0.8219
11246TIP3    H155153   4.914   2.535  14.339 -0.7109  0.6498  0.3724
11246TIP3    H255154   4.991   2.432  14.419 -0.4438  0.7151  0.1988
11247TIP3   OH255155   1.241   0.149  16.502  0.3222 -0.1296 -0.4575
11247TIP3    H155156   1.321   0.150  16.450 -0.8648 -1.9399 -2.4687
11247TIP3    H255157   1.254   0.219  16.566  2.3946  1.4170 -2.3857
11248TIP3   OH255158   4.557   4.705   1.844 -0.5704  0.0227 -0.0646
11248TIP3    H155159   4.575   4.660   1.762  0.0144 -0.1008  0.1256
11248TIP3    H255160   4.463   4.691   1.859 -0.2677 -1.7809  0.3605
11249TIP3   OH255161   4.843   6.312  12.619 -0.3307 -0.1005  0.4462
11249TIP3    H155162   4.789   6.241  12.655 -0.4154 -0.1877  0.1490
11249TIP3    H255163   4.894   6.343  12.694 -0.5339 -0.2545  0.6515
11250TIP3   OH255164   0.409   6.478  11.791 -0.9079 -0.2993  0.7421
11250TIP3    H155165   0.397   6.535  11.866 -2.9169  0.3348 -0.0069
11250TIP3    H255166   0.358   6.400  11.812 -0.7841 -0.4789  0.3852
11251TIP3   OH255167   4.778   5.010   1.778 -0.1646 -0.2025 -0.1750
11251TIP3    H155168   4.834   5.079   1.815  0.0611 -0.4718 -0.0176
11251TIP3    H255169   4.768   4.946   1.848 -1.1473  0.1213 -0.0090
11252TIP3   OH255170   5.384   5.476   3.519 -0.0197 -0.4811  0.0522
11252TIP3    H155171   5.349   5.483   3.607 -0.9712 -1.4302 -0.2265
11252TIP3    H255172   5.413   5.385   3.512 -0.9392 -0.7258 -0.9408
11253TIP3   OH255173   2.296   6.240   0.281 -0.5184 -0.7895  0.4325
11253TIP3    H155174   2.376   6.197   0.248 -0.3271 -0.9882  1.1361
11253TIP3    H255175   2.230   6.172   0.279 -0.5371 -0.7696  0.3564
11254TIP3   OH255176   5.577   4.806   0.044 -0.2604  0.0129  0.0926
11254TIP3    H155177   5.512   4.876   0.038  0.7753  1.1597  1.4583
11254TIP3    H255178   5.542   4.747   0.110 -0.5889 -0.1414 -0.2177
11255TIP3   OH255179   3.211   5.161  16.817  0.4209  0.0020  0.1470
11255TIP3    H155180   3.176   5.238  16.860 -0.9788 -1.1000  1.0934
11255TIP3    H255181   3.140   5.097  16.822  0.9896 -0.8731 -1.9325
11256TIP3   OH255182   1.611   4.817   4.174 -0.1103 -0.0841 -0.3951
11256TIP3    H155183   1.564   4.899   4.161  0.1824 -0.0660 -1.4893
11256TIP3    H255184   1.666   4.809   4.096  2.8328  0.6136  1.4759
11257TIP3   OH255185   5.163   3.687  11.535 -0.4508 -0.0118 -0.2147
11257TIP3    H155186   5.095   3.659  11.474 -0.7008  0.9147 -0.3725
11257TIP3    H255187   5.242   3.694  11.482 -0.6264  0.6068 -0.4096
11258TIP3   OH255188   0.441   4.237   6.212 -0.3738 -0.0141 -0.0962
11258TIP3    H155189   0.391   4.269   6.287 -0.8002 -0.4928 -0.1741
11258TIP3    H255190   0.532   4.237   6.242 -0.3379  1.3914 -0.1389
11259TIP3   OH255191   1.482   2.375   5.242  0.2330 -0.2807  0.5206
11259TIP3    H155192   1.524   2.417   5.317  0.6367 -0.4367  0.3843
11259TIP3    H255193   1.427   2.307   5.280 -1.0990  0.9139  0.8080
11260TIP3   OH255194   1.411   4.100   5.339 -0.5397 -0.1991  0.8315
11260TIP3    H155195   1.378   4.012   5.325  1.3879 -0.9852  0.8285
11260TIP3    H255196   1.433   4.102   5.433 -2.6451  1.0708  1.3419
11261TIP3   OH255197   0.923   0.367  14.458 -0.0406  0.7058  0.3838
11261TIP3    H155198   0.963   0.452  14.438  0.2613  0.6596  0.7694
11261TIP3    H255199   0.923   0.363  14.554  1.7014 -0.5207  0.3843
11262TIP3   OH255200   6.427   1.543   1.015 -0.1463 -0.1012  0.3338
11262TIP3    H155201   6.473   1.516   1.094  0.6929 -0.8532 -0.3959
11262TIP3    H255202   6.375   1.467   0.989 -0.1163  0.0038 -0.0488
11263TIP3   OH255203   6.233   5.239   4.054  0.0301 -0.2271  0.9171
11263TIP3    H155204   6.319   5.211   4.025 -0.6932 -2.6236  0.9022
11263TIP3    H255205   6.221   5.198   4.140 -0.3305  1.7223  1.8613
11264TIP3   OH255206   3.835   1.823   0.122  0.1109 -0.2447  0.5392
11264TIP3    H155207   3.876   1.737   0.120  1.8107  0.5184  0.9957
11264TIP3    H255208   3.811   1.841   0.031  0.1122 -1.0171  0.3815
11265TIP3   OH255209   2.406   1.346  15.203 -0.5119  0.2559  0.3490
11265TIP3    H155210   2.459   1.266  15.207 -0.3787  0.2898 -0.5351
11265TIP3    H255211   2.327   1.325  15.254 -0.5193 -0.4730  0.0503
11266TIP3   OH255212   4.166   1.730  13.490 -0.2823  0.3932  0.2107
11266TIP3    H155213   4.172   1.794  13.419 -0.8527 -0.4258 -0.6001
11266TIP3    H255214   4.144   1.648  13.446  1.5264 -0.6174  1.1091
11267TIP3   OH255215   0.695   3.742  15.417  0.5307  0.0144 -0.1007
11267TIP3    H155216   0.636   3.675  15.452  0.5115 -0.9742 -1.8985
11267TIP3    H255217   0.643   3.822  15.418 -0.0096 -0.3337  0.5821
11268TIP3   OH255218   5.083   0.083  13.742 -0.1224 -0.1162 -0.2936
11268TIP3    H155219   5.146   0.149  13.713  0.1059  0.1068  0.6806
11268TIP3    H255220   5.136   0.011  13.775 -0.3770 -0.1118  0.1261
11269TIP3   OH255221   6.572   2.772   1.332  0.1243 -0.3098 -0.1449
11269TIP3    H155222   6.587   2.678   1.323 -0.4319 -0.1640 -3.8039
11269TIP3    H255223   6.621   2.812   1.261  1.5754  2.4440  2.1698
11270TIP3   OH255224   5.070   0.464  10.400  0.4397  0.2871 -0.7731
11270TIP3    H155225   5.116   0.410  10.464  1.8525  0.8610 -1.2679
11270TIP3    H255226   5.061   0.549  10.442 -0.4781  0.1074 -0.5670
11271TIP3   OH255227   3.870   4.499  14.792  0.9985 -1.1413  0.4885
11271TIP3    H155228   3.787   4.494  14.839 -0.4581  0.5607 -1.6521
11271TIP3    H255229   3.925   4.556  14.846  0.3414 -1.3326  1.3731
11272TIP3   OH255230   2.554   3.200  16.067 -0.1867  0.0761  0.1027
11272TIP3    H155231   2.505   3.191  16.149 -1.4014 -0.9750 -0.6989
11272TIP3    H255232   2.627   3.257  16.089 -0.1811 -0.6074  2.0520
11273TIP3   OH255233   0.895   4.442  12.941 -0.1689 -0.1980  0.3454
11273TIP3    H155234   0.965   4.386  12.975 -0.3969 -2.6979 -2.7959
11273TIP3    H255235   0.940   4.506  12.886 -0.1285  1.1207  1.8263
11274TIP3   OH255236   1.508   3.841   3.071  0.0777 -0.2629  0.4014
11274TIP3    H155237   1.435   3.780   3.083 -1.7667  1.8772  0.6704
11274TIP3    H255238   1.512   3.890   3.153 -0.2666  1.7422 -0.7023
11275TIP3   OH255239   0.214   5.486  13.397  0.1581 -0.6192  0.1259
11275TIP3    H155240   0.133   5.486  13.449 -0.5665 -0.2182 -0.9667
11275TIP3    H255241   0.283   5.509  13.460 -0.8948  1.3434  0.6365
11276TIP3   OH255242   2.318   5.654  16.421  0.4337  0.0483 -0.0416
11276TIP3    H155243   2.334   5.562  16.443  0.0445 -0.1125 -0.3939
11276TIP3    H255244   2.376   5.704  16.478  0.0749 -0.3858  0.7084
11277TIP3   OH255245   6.282   6.425  13.756  0.3578  0.1761  0.3763
11277TIP3    H155246   6.304   6.332  13.757  0.6746  0.1209 -2.3884
11277TIP3    H255247   6.357   6.467  13.798 -0.2265 -0.8216  2.5333
11278TIP3   OH255248   2.775   4.160   3.348  0.4726  0.2129 -0.0063
11278TIP3    H155249   2.773   4.205   3.433 -2.0546  2.2551 -1.0247
11278TIP3    H255250   2.733   4.221   3.288  0.3484 -2.0127 -2.3315
11279TIP3   OH255251   0.247   5.272   3.481 -0.0126 -0.1571 -0.4101
11279TIP3    H155252   0.184   5.273   3.409 -0.3077 -1.0097 -0.1734
11279TIP3    H255253   0.311   5.339   3.457 -0.9706  0.6916 -0.6841
11280TIP3   OH255254   3.796   3.098  12.659  0.0852 -0.3984  0.0876
11280TIP3    H155255   3.717   3.150  12.645 -0.4984 -0.9688  1.1707
11280TIP3    H255256   3.866   3.162  12.665 -0.7328  0.3797  2.2647
11281TIP3   OH255257   3.828   2.256   5.575 -0.4552 -0.1720  0.2903
11281TIP3    H155258   3.788   2.172   5.555  0.1679 -0.2898 -0.5145
11281TIP3    H255259   3.790   2.317   5.511  0.8276 -0.3447 -0.6733
11282TIP3   OH255260   0.115   3.664  15.816 -0.1662  0.0076  0.0870
11282TIP3    H155261   0.101   3.627  15.903 -1.3689  0.6003  0.1665
11282TIP3    H255262   0.029   3.698  15.791  0.5830  1.4789 -0.5564
11283TIP3   OH255263   6.396   5.675   3.956 -0.3474 -0.0299  0.4975
11283TIP3    H155264   6.338   5.731   3.905  0.2021  2.0215  1.9772
11283TIP3    H255265   6.340   5.638   4.025 -0.6524 -1.1617 -0.3223
11284TIP3   OH255266   1.934   0.817   3.707  0.5692  0.1328  0.2400
11284TIP3    H155267   1.901   0.905   3.725 -1.0137 -0.5707  0.9243
11284TIP3    H255268   1.929   0.808   3.612  1.5560  1.0746  0.0856
11285TIP3   OH255269   5.711   0.062   0.914 -0.4903 -0.5663  0.3639
11285TIP3    H155270   5.790   0.010   0.900 -0.0926 -0.5737  2.2959
11285TIP3    H255271   5.643  -0.002   0.935 -0.3606 -0.4124  1.2818
11286TIP3   OH255272   4.780   6.212  16.594 -0.1261  0.2929 -0.1801
11286TIP3    H155273   4.730   6.253  16.524  0.6191 -0.8348 -1.4364
11286TIP3    H255274   4.871   6.232  16.572  0.0633  1.1335  1.2852
11287TIP3   OH255275   5.999   3.583  16.918  0.0238  0.1121  0.6118
11287TIP3    H155276   6.029   3.628  16.839 -0.2320  0.3010  0.6190
11287TIP3    H255277   6.057   3.615  16.988  0.0864  0.1407  0.5459
11288TIP3   OH255278   4.549   3.854   6.738  0.7823  0.8696 -0.1185
11288TIP3    H155279   4.525   3.939   6.702  2.6058  2.3116  1.8049
11288TIP3    H255280   4.644   3.850   6.729  0.8144 -0.6354  0.5470
11289TIP3   OH255281   0.671   4.994   4.149 -0.0420  0.4403 -0.4383
11289TIP3    H155282   0.688   4.924   4.087  0.9578 -0.2645  0.5919
11289TIP3    H255283   0.583   5.025   4.127 -0.3150 -0.8165 -1.2125
11290TIP3   OH255284   6.720   6.132  15.979 -0.0567 -0.0010  0.3068
11290TIP3    H155285   6.657   6.172  16.040 -0.2747 -0.9299  0.7259
11290TIP3    H255286   6.704   6.176  15.896  0.6523  1.7138  1.0433
11291TIP3   OH255287   5.918   0.882  16.672  0.0878  0.1160 -0.3812
11291TIP3    H155288   5.998   0.931  16.690 -0.1080  0.5052 -0.5740
11291TIP3    H255289   5.850   0.948  16.667 -0.4934 -0.3173  1.1481
11292TIP3   OH255290   2.959   2.882  15.954  0.1375  0.5296  0.4095
11292TIP3    H155291   2.981   2.969  15.988 -0.3769  0.9912 -0.4177
11292TIP3    H255292   2.968   2.891  15.859 -0.7658 -0.0762  0.2589
11293TIP3   OH255293   6.087   5.994  15.537 -0.0794  0.8080  0.1281
11293TIP3    H155294   6.000   5.977  15.502 -0.2870  0.7662  0.6499
11293TIP3    H255295   6.147   5.952  15.476 -0.4191  0.9301 -0.2917
11294TIP3   OH255296   3.283   4.099  15.580 -0.3934  0.6072  0.4228
11294TIP3    H155297   3.262   4.011  15.610  0.4592  0.9410  2.0888
11294TIP3    H255298   3.259   4.156  15.652  1.7055  1.4394  0.5382
11295TIP3   OH255299   4.243   6.151  14.578 -0.4575 -0.3160 -0.1731
11295TIP3    H155300   4.334   6.176  14.561 -0.8526  0.6594 -0.9479
11295TIP3    H255301   4.212   6.215  14.641 -0.1540 -1.6117  1.3453
11296TIP3   OH255302   0.151   2.492  12.546  0.9538  0.7974 -0.6393
11296TIP3    H155303   0.157   2.579  12.585  0.4706  0.7721 -0.4955
11296TIP3    H255304   0.187   2.434  12.613  1.2935  0.8877 -0.7431
11297TIP3   OH255305   1.967   6.189  13.328  0.3013  0.1102 -0.0185
11297TIP3    H155306   2.027   6.233  13.388  1.0255 -2.1193  0.9970
11297TIP3    H255307   1.888   6.172  13.380 -0.1358  0.5552 -0.5206
11298TIP3   OH255308   3.508   3.712  15.714 -0.2747  0.2400  0.3422
11298TIP3    H155309   3.438   3.673  15.662 -0.1978 -0.0979  0.4909
11298TIP3    H255310   3.481   3.699  15.805  0.1898 -0.2796  0.4069
11299TIP3   OH255311   0.295   3.162  13.323 -0.4535 -0.2635  0.4825
11299TIP3    H155312   0.374   3.115  13.294 -1.0314  0.2136 -2.1323
11299TIP3    H255313   0.296   3.154  13.418  1.1650 -2.8127  0.3502
11300TIP3   OH255314   3.713   1.663  16.169 -0.3177  0.1513  0.4413
11300TIP3    H155315   3.697   1.603  16.096 -1.1372 -0.0249  0.7525
11300TIP3    H255316   3.703   1.609  16.248  3.1650 -0.3052  0.7171
11301TIP3   OH255317   3.046   2.179  15.180 -0.0474 -0.2271  0.1151
11301TIP3    H155318   2.991   2.206  15.253 -0.8996  0.3439 -0.7025
11301TIP3    H255319   3.053   2.257  15.125 -0.5815 -1.0065 -1.1019
11302TIP3   OH255320   6.350   4.444  13.396  0.2647 -0.3461  0.2324
11302TIP3    H155321   6.255   4.452  13.403  0.2313 -0.0530 -0.4716
11302TIP3    H255322   6.364   4.373  13.334  0.5046 -0.4311  0.3818
11303TIP3   OH255323   0.237   4.407   0.227  0.1212 -0.0811 -0.1278
11303TIP3    H155324   0.261   4.406   0.134 -0.1090  0.0399 -0.1906
11303TIP3    H255325   0.148   4.442   0.228 -0.0573 -0.5301  0.0981
11304TIP3   OH255326   4.133   6.228  13.317 -0.0048  0.3752  0.1120
11304TIP3    H155327   4.126   6.133  13.313  0.9095  0.2939  0.1571
11304TIP3    H255328   4.049   6.260  13.285 -0.4048 -0.4470  0.3165
11305TIP3   OH255329   2.643   2.771  12.304  0.3116 -0.2300 -0.0829
11305TIP3    H155330   2.606   2.684  12.323 -1.2415  0.8481  2.2204
11305TIP3    H255331   2.601   2.829  12.366  1.6585  2.1508 -1.2668
11306TIP3   OH255332   2.480   0.457   0.649 -0.1586 -0.2536 -0.0999
11306TIP3    H155333   2.407   0.455   0.711 -1.6085  0.3446 -1.7247
11306TIP3    H255334   2.494   0.551   0.631 -1.5296 -0.4540 -2.6140
11307TIP3   OH255335   5.516   4.178   4.468  0.3009  0.1218 -0.0562
11307TIP3    H155336   5.591   4.237   4.461 -0.3408  0.9472 -0.2529
11307TIP3    H255337   5.521   4.123   4.390  1.5823 -0.9242  0.7405
11308TIP3   OH255338   1.392   5.393   3.585 -0.1878 -0.0274 -0.1219
11308TIP3    H155339   1.328   5.363   3.650 -0.3531 -0.8778 -0.6515
11308TIP3    H255340   1.341   5.449   3.526 -0.8880 -1.9548 -1.4700
11309TIP3   OH255341   4.800   0.598   0.378 -0.2555  0.7185 -0.2348
11309TIP3    H155342   4.740   0.523   0.375 -0.4516  0.7442  1.7898
11309TIP3    H255343   4.873   0.568   0.433  0.0420  1.7560 -0.0438
11310TIP3   OH255344   4.055   5.312  16.796 -0.0608 -0.2774  0.2449
11310TIP3    H155345   3.982   5.303  16.735  1.3192 -2.8998 -1.2289
11310TIP3    H255346   4.015   5.308  16.883 -1.6879 -2.5376 -0.5158
11311TIP3   OH255347   1.687   1.992  15.890  0.1240 -0.3965 -0.2588
11311TIP3    H155348   1.772   1.955  15.915 -0.0958 -0.9586 -0.3331
11311TIP3    H255349   1.624   1.922  15.908 -0.2995 -0.0572 -0.4057
11312TIP3   OH255350   4.115   3.858  10.645 -0.2375 -0.2638 -0.3363
11312TIP3    H155351   4.124   3.796  10.572 -0.9196 -0.3989 -0.3172
11312TIP3    H255352   4.170   3.821  10.715 -0.1626 -0.5256 -0.5330
11313TIP3   OH255353   6.781   1.963   3.671  0.5256 -0.3393  0.2633
11313TIP3    H155354   6.743   1.945   3.757 -1.2226 -1.6099 -0.7089
11313TIP3    H255355   6.722   1.920   3.610  0.2004  2.7146 -1.7936
11314TIP3   OH255356   6.441   3.909   0.921  0.5633 -0.0407  0.0175
11314TIP3    H155357   6.477   3.972   0.857  0.7470  0.8796  1.0033
11314TIP3    H255358   6.411   3.964   0.994 -0.1143 -1.0414  0.5041
11315TIP3   OH255359   3.487   4.334  14.100 -0.5151  0.4271  0.6634
11315TIP3    H155360   3.395   4.358  14.107 -0.5346  0.0924  1.8279
11315TIP3    H255361   3.531   4.387  14.167  0.4899  2.0992 -1.2037
11316TIP3   OH255362   2.873   3.325  13.486 -0.1789  0.4878 -0.6137
11316TIP3    H155363   2.958   3.315  13.530 -0.9926 -1.6873  0.6591
11316TIP3    H255364   2.867   3.248  13.429 -0.9836  1.0237 -1.2739
11317TIP3   OH255365   3.212   4.555   2.200 -0.0893  0.3330  0.7168
11317TIP3    H155366   3.282   4.618   2.184  0.6861 -0.6659  0.0634
11317TIP3    H255367   3.164   4.550   2.117 -1.2487  1.3516  1.2925
11318TIP3   OH255368   4.763   0.703  15.878  0.0389 -0.1583  0.0400
11318TIP3    H155369   4.813   0.776  15.841 -0.8661  1.6263  2.1293
11318TIP3    H255370   4.686   0.696  15.822 -0.6288  1.5580  0.6868
11319TIP3   OH255371   0.107   2.505   5.370  0.0335 -0.3603  0.5370
11319TIP3    H155372   0.150   2.430   5.328  0.1966  0.1138 -0.1620
11319TIP3    H255373   0.179   2.556   5.407 -0.1905 -1.4290  2.5394
11320TIP3   OH255374   3.854   0.630   5.545  0.0397 -0.5534 -0.0107
11320TIP3    H155375   3.780   0.687   5.526 -0.4943 -1.5179 -0.9492
11320TIP3    H255376   3.821   0.567   5.609  0.4272 -0.2479  0.5045
11321TIP3   OH255377   1.333   1.193  14.622  0.1558 -0.3941 -0.0071
11321TIP3    H155378   1.325   1.101  14.597  1.2046 -0.1317 -1.3819
11321TIP3    H255379   1.249   1.213  14.663 -0.1096 -1.9391  0.2801
11322TIP3   OH255380   0.601   3.507   6.547 -0.6243  0.4947  0.2014
11322TIP3    H155381   0.625   3.599   6.551  1.3902  0.1011 -1.1020
11322TIP3    H255382   0.527   3.504   6.487  0.2935  1.1403 -1.0116
11323TIP3   OH255383   0.849   3.007   4.141  0.2653  0.4913  0.4720
11323TIP3    H155384   0.822   3.029   4.052 -0.0601  1.4960  0.8046
11323TIP3    H255385   0.781   2.947   4.173  1.0946 -0.9778 -0.4012
11324TIP3   OH255386   1.805   5.641   3.482  0.7289  0.1931  0.2911
11324TIP3    H155387   1.818   5.576   3.414  0.7132 -1.5487  1.8839
11324TIP3    H255388   1.732   5.608   3.534  0.6069  1.5759  1.0617
11325TIP3   OH255389   1.997   2.728   1.764  0.7249  0.1018  0.2619
11325TIP3    H155390   1.981   2.796   1.699 -0.3043  0.8320  1.2355
11325TIP3    H255391   1.917   2.676   1.766 -0.0595  1.2581  2.2445
11326TIP3   OH255392   3.605   0.230  11.413 -0.4295  0.2451 -0.8178
11326TIP3    H155393   3.640   0.167  11.349 -2.4528 -0.0491 -1.7063
11326TIP3    H255394   3.551   0.290  11.360 -0.2624  1.4326  0.3157
11327TIP3   OH255395   4.870   0.697  16.811 -0.6655  0.4540 -0.1637
11327TIP3    H155396   4.908   0.632  16.869 -0.4166  0.7262 -0.0166
11327TIP3    H255397   4.835   0.647  16.738 -1.6762  0.0360  0.5856
11328TIP3   OH255398   6.790   5.610  11.848 -0.4579  0.6129 -0.2491
11328TIP3    H155399   6.719   5.590  11.786 -0.8328  1.3335 -0.0665
11328TIP3    H255400   6.870   5.603  11.797 -0.6188 -0.6467 -0.3582
11329TIP3   OH255401   2.363   6.729   3.702  0.3470  0.5142 -0.1652
11329TIP3    H155402   2.368   6.634   3.694 -0.7999  0.4478 -0.2016
11329TIP3    H255403   2.452   6.760   3.682  0.1447 -0.3596 -2.7020
11330TIP3   OH255404   1.382   4.057  15.802  0.0248  0.5898 -0.6222
11330TIP3    H155405   1.424   4.096  15.726  2.4549  2.8137  1.6638
11330TIP3    H255406   1.399   3.963  15.793  0.5637  0.8301 -2.5838
11331TIP3   OH255407   6.205   1.928  15.170  0.0401  0.1996  0.0553
11331TIP3    H155408   6.257   2.008  15.164 -0.4057  0.5104  0.2782
11331TIP3    H255409   6.270   1.859  15.182  0.4911  0.3911 -1.1950
11332TIP3   OH255410   5.660   5.666   5.784  0.7014  0.0861 -0.1701
11332TIP3    H155411   5.610   5.648   5.863 -0.8018  1.3153 -0.7700
11332TIP3    H255412   5.683   5.580   5.749  0.2702 -0.4862  0.9304
11333TIP3   OH255413   0.760   4.705   3.539  0.0116 -0.1337 -0.2494
11333TIP3    H155414   0.753   4.648   3.463 -0.4169  1.1042 -1.1770
11333TIP3    H255415   0.767   4.793   3.502  1.2037  0.3889  1.1186
11334TIP3   OH255416   3.641   1.402   5.092 -0.2853  0.2336  0.6210
11334TIP3    H155417   3.553   1.388   5.057 -0.4490  1.3645  0.5642
11334TIP3    H255418   3.638   1.367   5.181 -0.9020  0.6096  0.7490
11335TIP3   OH255419   1.359   6.665  14.945  0.0745  0.2081  0.1116
11335TIP3    H155420   1.449   6.694  14.965  0.9063 -2.4093  0.6022
11335TIP3    H255421   1.358   6.573  14.973 -1.9017 -0.6715 -2.5572
11336TIP3   OH255422   6.318   4.817   5.643 -0.1782 -0.1646  0.3922
11336TIP3    H155423   6.366   4.823   5.560 -1.6206 -0.7294 -0.5146
11336TIP3    H255424   6.324   4.906   5.679  0.9611 -0.0517 -0.0185
11337TIP3   OH255425   3.006   2.616   1.795 -0.0204  0.0479  0.4299
11337TIP3    H155426   3.035   2.595   1.706 -1.1580 -0.0132  0.0644
11337TIP3    H255427   3.036   2.542   1.847  1.2935  0.4211  0.2501
11338TIP3   OH255428   1.658   5.448   3.629  0.0462 -0.4335 -0.0638
11338TIP3    H155429   1.690   5.394   3.700  1.5889 -0.3676 -0.6710
11338TIP3    H255430   1.575   5.408   3.604 -0.0864 -0.9677  1.1780
11339TIP3   OH255431   2.522   6.260   4.558  0.1190 -0.4009 -0.6242
11339TIP3    H155432   2.481   6.193   4.502  4.2105 -1.8723 -2.2107
11339TIP3    H255433   2.542   6.332   4.498 -0.4542  0.4854  0.2185
11340TIP3   OH255434   3.823   5.378   5.416  0.4547 -0.1786  0.0992
11340TIP3    H155435   3.833   5.416   5.504  1.2294  0.4377 -0.2411
11340TIP3    H255436   3.875   5.298   5.418  0.3831 -0.2228  0.2292
11341TIP3   OH255437   2.589   0.819   0.758  0.3456  0.5460  0.3726
11341TIP3    H155438   2.604   0.873   0.835 -0.0154  1.3621 -0.1156
11341TIP3    H255439   2.567   0.733   0.793 -0.1223  0.9858  1.1870
11342TIP3   OH255440   3.899   1.023  15.160 -0.1094  0.3537  0.0674
11342TIP3    H155441   3.825   0.971  15.191  1.2256 -0.8148  1.4300
11342TIP3    H255442   3.919   0.988  15.073  0.9207 -1.6418  1.0652
11343TIP3   OH255443   3.232   3.608  12.691 -0.9196  0.4012  0.5256
11343TIP3    H155444   3.196   3.592  12.779  0.0035  0.7507  0.9847
11343TIP3    H255445   3.156   3.613  12.634 -1.6445  1.6496  1.5499
11344TIP3   OH255446   4.824   3.477   2.288 -0.6627 -0.2194 -0.5312
11344TIP3    H155447   4.851   3.500   2.199 -0.3339 -0.6879 -0.5561
11344TIP3    H255448   4.905   3.452   2.331 -0.3356  2.5831  0.7397
11345TIP3   OH255449   6.486   3.482   5.356 -0.5151 -0.2075 -0.0222
11345TIP3    H155450   6.486   3.477   5.260  1.0123 -1.0004 -0.0110
11345TIP3    H255451   6.524   3.567   5.376  0.7565 -0.7371 -0.1296
11346TIP3   OH255452   6.086   1.277   5.360 -0.8883  0.3323 -0.3866
11346TIP3    H155453   6.010   1.276   5.419  0.4623  0.1102  1.4443
11346TIP3    H255454   6.157   1.239   5.412  0.1895 -0.7081 -2.4924
11347TIP3   OH255455   3.872   4.566   1.821  0.6795 -0.2335  0.6437
11347TIP3    H155456   3.835   4.626   1.756  1.8141 -0.2057 -0.0034
11347TIP3    H255457   3.797   4.539   1.874  0.3120  2.6932  1.7526
11348TIP3   OH255458   4.106   4.994   4.004 -0.2251  0.0220  0.2395
11348TIP3    H155459   4.183   4.953   4.044 -0.6797 -1.5894 -0.4456
11348TIP3    H255460   4.062   5.038   4.077  1.2446  0.8560  0.6664
11349TIP3   OH255461   6.768   0.040  13.453  0.5176  0.2108  1.4005
11349TIP3    H155462   6.846   0.010  13.407 -1.1112  1.2102 -2.3333
11349TIP3    H255463   6.773   0.135  13.452 -1.2747  0.3456 -0.0712
11350TIP3   OH255464   3.096   4.532   5.534 -0.6189 -0.7315  0.1980
11350TIP3    H155465   3.163   4.599   5.522  0.9248 -2.3441 -0.7941
11350TIP3    H255466   3.034   4.546   5.463 -0.5260 -0.1317  0.2326
11351TIP3   OH255467   3.011   3.763  13.835  0.2569 -0.3840 -0.1045
11351TIP3    H155468   2.963   3.723  13.762 -0.6962  2.0691 -0.9141
11351TIP3    H255469   3.089   3.802  13.794 -0.0114  0.5448  0.2431
11352TIP3   OH255470   3.141   5.674  13.156  0.1290 -0.3405  0.3623
11352TIP3    H155471   3.064   5.697  13.208 -0.4670 -1.2133 -0.1093
11352TIP3    H255472   3.108   5.615  13.088  1.4747 -2.1403  1.1838
11353TIP3   OH255473   4.532   0.070   0.758 -0.3403 -0.0520  0.1100
11353TIP3    H155474   4.597   0.053   0.690 -0.2825 -0.0214  0.1572
11353TIP3    H255475   4.466   0.125   0.715  0.1079  0.6508  0.2951
11354TIP3   OH255476   5.481   5.692   2.576 -0.0187  0.0837 -0.3147
11354TIP3    H155477   5.514   5.778   2.603  2.1255 -1.4592  2.5898
11354TIP3    H255478   5.559   5.647   2.543 -0.6112 -1.4713  0.3340
11355TIP3   OH255479   0.164   6.453  14.873 -0.6162 -0.4676 -0.4873
11355TIP3    H155480   0.168   6.470  14.779 -1.4798 -1.6696 -0.7607
11355TIP3    H255481   0.087   6.500  14.903 -0.8019 -0.7385 -0.5349
11356TIP3   OH255482   2.883   2.393  16.536 -0.7448  0.2300 -0.0399
11356TIP3    H155483   2.947   2.351  16.478 -0.2049 -1.5431  1.7087
11356TIP3    H255484   2.930   2.467  16.574  0.0768 -0.6451  0.6976
11357TIP3   OH255485   5.828   6.584   1.728  0.2166  0.0799 -0.2452
11357TIP3    H155486   5.801   6.632   1.650 -1.4842 -0.8446 -0.2603
11357TIP3    H255487   5.872   6.650   1.782  2.6426  0.4518 -2.4971
11358TIP3   OH255488   5.200   0.603  11.756  0.0272  0.2202 -0.2633
11358TIP3    H155489   5.189   0.620  11.662 -0.4169 -0.0556 -0.2675
11358TIP3    H255490   5.189   0.508  11.764  1.9137 -0.0185 -0.1720
11359TIP3   OH255491   4.953   0.182   5.481  0.1519  0.3054  0.5909
11359TIP3    H155492   4.940   0.100   5.434  0.4460 -0.8224  2.3428
11359TIP3    H255493   5.041   0.210   5.457 -0.5006  0.9238 -1.1622
11360TIP3   OH255494   3.827   2.781   2.230 -0.2375  0.6483 -0.1153
11360TIP3    H155495   3.831   2.855   2.291 -0.1187 -0.2102  0.9521
11360TIP3    H255496   3.888   2.717   2.266 -0.8003 -0.2204 -0.6634
11361TIP3   OH255497   5.302   1.407  13.975  0.5581  0.3841 -0.3246
11361TIP3    H155498   5.319   1.434  14.065  0.9887 -1.9791  0.3798
11361TIP3    H255499   5.388   1.409  13.933  0.6106  0.0568 -0.2383
11362TIP3   OH255500   0.647   6.082   6.259  0.1516 -0.0290 -0.1154
11362TIP3    H155501   0.589   6.058   6.187  0.0035  0.5398 -0.1947
11362TIP3    H255502   0.664   6.000   6.305 -1.4024 -0.0959  0.4094
11363TIP3   OH255503   1.926   2.241   5.841  0.2750  0.4477 -0.4133
11363TIP3    H155504   1.993   2.302   5.808 -0.4280  1.5426  0.1030
11363TIP3    H255505   1.950   2.157   5.803 -0.4525  1.5965 -3.7341
11364TIP3   OH255506   4.551   0.401   0.960 -0.2131  0.6264  0.7487
11364TIP3    H155507   4.518   0.411   0.870  0.5565 -1.4260  0.1707
11364TIP3    H255508   4.646   0.403   0.951 -0.0725 -1.3947  1.1904
11365TIP3   OH255509   0.083   5.688  16.002 -0.1109  0.1370  0.4189
11365TIP3    H155510   0.160   5.644  16.038  0.9413  1.5090 -0.0573
11365TIP3    H255511   0.028   5.707  16.079 -1.5081 -3.4856  0.4966
11366TIP3   OH255512   6.220   0.540  11.372  0.2871  0.3554  0.1525
11366TIP3    H155513   6.294   0.592  11.340  0.4625  0.4378  0.6882
11366TIP3    H255514   6.259   0.472  11.426  0.0514 -0.3208 -0.5199
11367TIP3   OH255515   4.646   1.047  15.568 -0.1422  0.4578  0.0422
11367TIP3    H155516   4.617   0.988  15.499 -0.3895 -0.5007  0.9392
11367TIP3    H255517   4.738   1.066  15.547  0.4479 -1.5405  0.5731
11368TIP3   OH255518   4.394   1.919   4.246 -0.3987 -0.0290 -0.0526
11368TIP3    H155519   4.357   1.855   4.307  0.9113 -0.5546  0.2050
11368TIP3    H255520   4.487   1.923   4.268 -0.2981  1.3262 -0.6438
11369TIP3   OH255521   1.825   5.744  12.493 -0.0646  0.0389  0.1322
11369TIP3    H155522   1.733   5.748  12.465 -0.1854 -0.3632  0.4617
11369TIP3    H255523   1.825   5.786  12.579  0.2507  0.9939 -0.3199
11370TIP3   OH255524   5.852   5.517  11.697 -0.2749  0.4116 -0.3662
11370TIP3    H155525   5.782   5.531  11.761  2.1403  0.8022  2.4371
11370TIP3    H255526   5.879   5.605  11.672  0.1923  0.3110 -0.2283
11371TIP3   OH255527   6.611   0.069   3.434  0.1323 -0.4463 -0.3170
11371TIP3    H155528   6.538   0.015   3.401 -1.0105  0.4789  0.5907
11371TIP3    H255529   6.668   0.081   3.359 -1.2207 -0.3116 -1.3672
11372TIP3   OH255530   2.687   3.414   2.035  0.7041 -0.3704  0.7325
11372TIP3    H155531   2.621   3.383   1.973  0.6423  0.9747  0.0831
11372TIP3    H255532   2.698   3.342   2.097 -0.5384 -1.0564  0.1893
11373TIP3   OH255533   0.348   3.117   4.188  0.0040  0.1489  0.1876
11373TIP3    H155534   0.406   3.174   4.239 -2.0446  2.2545  0.3083
11373TIP3    H255535   0.269   3.108   4.241 -0.4311 -1.4076 -0.6343
11374TIP3   OH255536   0.306   2.539  12.895  0.2669  0.8298  0.6976
11374TIP3    H155537   0.382   2.531  12.952 -0.3735  1.5383  1.6858
11374TIP3    H255538   0.325   2.614  12.839  0.2399  1.1278  1.0756
11375TIP3   OH255539   4.279   2.215   0.152 -0.4175 -0.0157  0.4648
11375TIP3    H155540   4.188   2.246   0.155 -0.9027 -1.4228  0.8503
11375TIP3    H255541   4.330   2.294   0.134 -1.9066  0.4417 -2.3184
11376TIP3   OH255542   4.558   4.094   2.660  0.1344  0.0547 -0.5126
11376TIP3    H155543   4.539   4.063   2.572 -1.1388  0.1726 -0.3041
11376TIP3    H255544   4.482   4.067   2.712  0.7122  0.2715  0.4788
11377TIP3   OH255545   4.070   2.216   1.661  0.0682 -0.3173 -0.2312
11377TIP3    H155546   4.116   2.273   1.722  1.2996  0.7118 -2.0142
11377TIP3    H255547   3.979   2.244   1.665  0.5804  1.5645 -0.7598
11378TIP3   OH255548   0.155   5.845  12.845  0.0693 -0.5995  0.0527
11378TIP3    H155549   0.211   5.770  12.827  0.0062 -0.4290 -0.9608
11378TIP3    H255550   0.203   5.897  12.909 -0.0853 -1.7104  1.0856
11379TIP3   OH255551   5.905   4.375  13.059  0.1421 -0.1099 -1.0546
11379TIP3    H155552   5.896   4.393  13.153 -0.6311 -1.4459 -0.8350
11379TIP3    H255553   5.862   4.449  13.017  0.4343  0.4748 -0.3555
11380TIP3   OH255554   1.592   4.685  15.217  0.3076 -0.1504  0.2102
11380TIP3    H155555   1.612   4.632  15.294  0.7830  0.0016  0.1969
11380TIP3    H255556   1.544   4.626  15.159 -0.0128 -0.2793  0.5997
11381TIP3   OH255557   3.217   2.402  14.773  0.7174 -0.0391 -0.4526
11381TIP3    H155558   3.229   2.333  14.707  1.3750 -1.2297  0.8422
11381TIP3    H255559   3.123   2.420  14.772  0.5576 -0.8283 -0.9697
11382TIP3   OH255560   3.437   5.098   2.845  0.4194 -0.2684 -0.2394
11382TIP3    H155561   3.401   5.077   2.931  2.2551  0.6638  0.8060
11382TIP3    H255562   3.362   5.090   2.785 -1.2686  0.5906  1.6615
11383TIP3   OH255563   1.159   6.465  16.772 -0.0161  0.2650  0.2763
11383TIP3    H155564   1.164   6.537  16.708  1.5352 -0.7963 -0.9021
11383TIP3    H255565   1.249   6.455  16.803  0.2921 -2.4898 -1.2005
11384TIP3   OH255566   3.154   0.436   5.999 -0.0939 -0.3748 -0.0577
11384TIP3    H155567   3.245   0.455   6.020 -0.3100  0.6979 -0.0274
11384TIP3    H255568   3.158   0.359   5.942  0.7855 -0.6389  0.3437
11385TIP3   OH255569   3.921   0.961   6.082  0.1889  0.6446 -0.6213
11385TIP3    H155570   3.974   0.910   6.142 -0.8637 -0.2682 -0.4238
11385TIP3    H255571   3.954   1.050   6.089  0.8726  0.3212  0.3971
11386TIP3   OH255572   0.675   2.374  15.764 -0.0919  0.2726  0.6483
11386TIP3    H155573   0.734   2.330  15.703 -2.7680 -1.3992 -0.9276
11386TIP3    H255574   0.684   2.325  15.846  0.8629  0.2447  0.5394
11387TIP3   OH255575   5.060   3.374   2.457  0.0700 -0.2049  0.0003
11387TIP3    H155576   5.007   3.294   2.450 -1.4806  0.6558  1.2107
11387TIP3    H255577   5.122   3.356   2.526 -0.0584 -0.4842  0.0454
11388TIP3   OH255578   4.116   4.865  12.938 -0.2427 -0.9019  0.3916
11388TIP3    H155579   4.065   4.846  13.017 -1.0884 -0.1070  0.0626
11388TIP3    H255580   4.052   4.902  12.877  0.7910  0.5057  0.1057
11389TIP3   OH255581   1.533   6.041  16.294 -0.0462 -0.0691 -0.0594
11389TIP3    H155582   1.460   5.980  16.285 -1.1296  0.9329  1.3285
11389TIP3    H255583   1.593   5.998  16.356 -0.6438  0.0927  0.6530
11390TIP3   OH255584   0.705   6.187   5.900  0.1947  0.4717  0.2184
11390TIP3    H155585   0.726   6.275   5.933 -0.6769  0.5672  0.5663
11390TIP3    H255586   0.773   6.131   5.937  0.2422  0.8631  0.7539
11391TIP3   OH255587   3.177   0.739  14.139 -0.0797 -0.2117 -0.6369
11391TIP3    H155588   3.104   0.800  14.137  0.1948  0.1394 -0.1556
11391TIP3    H255589   3.203   0.730  14.047  1.6108  2.5331 -0.5557
11392TIP3   OH255590   4.719   3.278  16.535 -0.0754  0.0285  0.0352
11392TIP3    H155591   4.742   3.220  16.462 -1.6836  0.4116 -0.8193
11392TIP3    H255592   4.650   3.230  16.582 -0.9742  0.9414 -0.3150
11393TIP3   OH255593   0.378   2.421  13.809  0.2195 -0.4003 -0.4548
11393TIP3    H155594   0.360   2.341  13.760 -0.3136 -0.0196 -0.8921
11393TIP3    H255595   0.298   2.472  13.801  0.9386  0.6672 -1.1352
11394TIP3   OH255596   0.472   5.764   4.526  0.0127 -0.5377  0.1420
11394TIP3    H155597   0.408   5.760   4.598 -0.1432 -2.7430 -0.0354
11394TIP3    H255598   0.493   5.672   4.509  1.4697  0.0442 -1.3917
11395TIP3   OH255599   0.295   2.633  13.983  0.2697 -0.0106 -0.4177
11395TIP3    H155600   0.308   2.710  14.039  0.1382  0.7861 -1.4496
11395TIP3    H255601   0.311   2.558  14.041  0.8493  0.7949  0.4992
11396TIP3   OH255602   0.936   3.172  17.055  0.1781 -0.1856  0.1370
11396TIP3    H155603   0.882   3.097  17.031 -0.6109  0.8226 -1.3996
11396TIP3    H255604   0.932   3.229  16.978  2.0551  0.7035  0.6554
11397TIP3   OH255605   4.076   5.989   0.315 -0.0021  0.2034 -0.2962
11397TIP3    H155606   4.074   6.017   0.224  1.0990  2.0774  0.1974
11397TIP3    H255607   4.027   6.057   0.362 -1.0330 -1.0252  0.4640
11398TIP3   OH255608   3.057   4.798   2.532  0.1154  0.1988  0.1481
11398TIP3    H155609   3.048   4.703   2.546 -2.3018  0.2659 -0.4442
11398TIP3    H255610   3.044   4.810   2.438 -0.5755  1.1730  0.3486
11399TIP3   OH255611   4.286   4.484  16.761 -0.0562 -0.2522  0.0208
11399TIP3    H155612   4.307   4.408  16.815 -0.8224  0.1858  0.9519
11399TIP3    H255613   4.331   4.557  16.804  0.6361 -0.1465 -0.8441
11400TIP3   OH255614   6.412   3.278   1.882  0.3774  0.8232  0.6997
11400TIP3    H155615   6.486   3.318   1.929  0.5403  1.4112 -0.0314
11400TIP3    H255616   6.452   3.210   1.828  0.5097  1.6425 -0.2693
11401TIP3   OH255617   1.040   1.306   2.130  0.3702 -0.1882  0.0025
11401TIP3    H155618   1.100   1.276   2.198 -0.6026 -1.9355  0.1469
11401TIP3    H255619   1.037   1.401   2.140  0.7050 -0.3629  2.0204
11402TIP3   OH255620   3.874   1.922  16.147  0.4965  0.1976 -0.4006
11402TIP3    H155621   3.792   1.881  16.120  0.8844 -0.4184 -0.6546
11402TIP3    H255622   3.934   1.849  16.163  0.8801  0.6287  0.1765
11403TIP3   OH255623   4.173   6.218   4.935 -0.0712  0.0410 -0.1602
11403TIP3    H155624   4.080   6.223   4.957  0.2515  1.6590  1.0213
11403TIP3    H255625   4.174   6.190   4.843 -1.7665  1.1657 -0.5711
11404TIP3   OH255626   5.063   4.020   2.245 -0.3000 -0.0612 -0.2301
11404TIP3    H155627   4.976   3.994   2.215 -0.2953 -0.1552 -0.1640
11404TIP3    H255628   5.083   4.099   2.195 -0.2891 -0.2188 -0.4791
11405TIP3   OH255629   4.309   6.651   0.640  0.3043  0.5385  0.5603
11405TIP3    H155630   4.219   6.654   0.673  0.4299  3.8433  0.9172
11405TIP3    H255631   4.364   6.648   0.718  0.5594 -0.7118  0.3571
11406TIP3   OH255632   6.267   4.532  15.125 -0.3581 -0.1339 -0.4096
11406TIP3    H155633   6.187   4.498  15.086 -0.0063  0.3579 -1.6084
11406TIP3    H255634   6.238   4.607  15.177 -0.8119 -0.6680  0.1157
11407TIP3   OH255635   4.133   6.348  16.818  0.3787 -0.4112 -0.1511
11407TIP3    H155636   4.099   6.427  16.778 -1.5714 -1.0237  0.1865
11407TIP3    H255637   4.160   6.375  16.906 -0.3123 -0.1224 -0.0235
11408TIP3   OH255638   4.820   6.659  14.368  0.2034 -0.0981  0.8505
11408TIP3    H155639   4.781   6.595  14.428  0.9288 -1.0111  0.3895
11408TIP3    H255640   4.840   6.608  14.289  1.2630  0.5819  0.6604
11409TIP3   OH255641   6.466   1.133  11.945 -0.0917  0.4987 -0.0457
11409TIP3    H155642   6.504   1.129  12.032 -0.3182 -2.5429  0.0039
11409TIP3    H255643   6.411   1.212  11.946  0.8706  1.1822  2.1176
11410TIP3   OH255644   1.721   3.071  12.126 -0.0213 -0.6653 -0.7393
11410TIP3    H155645   1.633   3.035  12.117 -1.2523  1.2185  2.1854
11410TIP3    H255646   1.731   3.129  12.051 -1.0334 -1.3257 -1.4167
11411TIP3   OH255647   2.000   6.297   0.058  0.2301  0.5840  0.0249
11411TIP3    H155648   2.028   6.207   0.040  0.5618  0.4867  0.9790
11411TIP3    H255649   1.906   6.290   0.075  0.7545 -0.0919  3.1326
11412TIP3   OH255650   3.504   2.299   0.808 -0.1309  0.5603  0.6639
11412TIP3    H155651   3.586   2.296   0.856  0.3519 -0.1024 -0.1871
11412TIP3    H255652   3.489   2.393   0.792  2.0231  0.5960 -1.7881
11413TIP3   OH255653   6.092   6.693  11.990  0.6215  0.2440 -0.2730
11413TIP3    H155654   6.062   6.704  11.899  0.0181  0.9240 -0.0021
11413TIP3    H255655   6.113   6.782  12.018  2.8656 -0.1985 -0.4220
11414TIP3   OH255656   6.439   6.157  12.097 -0.3472  0.5765 -0.1238
11414TIP3    H155657   6.430   6.230  12.036  1.0855  0.5299 -0.4218
11414TIP3    H255658   6.511   6.104  12.062 -2.1211 -1.6840 -0.5888
11415TIP3   OH255659   3.278   1.909   3.872  0.1574  0.2796  0.3858
11415TIP3    H155660   3.198   1.861   3.852  0.9842 -0.7307 -0.6524
11415TIP3    H255661   3.340   1.882   3.804  1.6907  0.2636  1.7146
11416TIP3   OH255662   0.384   6.439   0.060 -0.9410 -0.1075  0.4534
11416TIP3    H155663   0.478   6.426   0.072 -0.9669 -1.8601 -0.8336
11416TIP3    H255664   0.347   6.432   0.148 -0.1030 -2.0690  0.7047
11417TIP3   OH255665   6.558   2.223  14.361 -0.3221 -0.1636 -0.4836
11417TIP3    H155666   6.616   2.299  14.359  0.2714 -0.5224  1.3979
11417TIP3    H255667   6.477   2.255  14.321 -0.0200  1.4130  0.0814
11418TIP3   OH255668   0.472   1.295  14.591 -0.3200  0.2426  0.0015
11418TIP3    H155669   0.543   1.253  14.640  0.6035 -0.3449 -1.7495
11418TIP3    H255670   0.503   1.295  14.500 -2.1414  0.9086 -0.6544
11419TIP3   OH255671   1.540   1.020  14.237  0.2435  0.0618  0.0829
11419TIP3    H155672   1.593   0.971  14.174  0.8614  0.4915  0.2580
11419TIP3    H255673   1.455   1.030  14.194  1.1832  1.9221 -1.5209
11420TIP3   OH255674   3.150   4.053   5.507 -0.2921 -0.2180  0.4165
11420TIP3    H155675   3.109   4.017   5.429  1.0560  0.0602 -0.4513
11420TIP3    H255676   3.214   3.986   5.534  0.5327  0.4564  0.1968
11421TIP3   OH255677   1.975   2.427  16.188 -0.2805  0.3744 -0.5290
11421TIP3    H155678   1.933   2.512  16.173 -0.0984  0.8863  1.6067
11421TIP3    H255679   1.903   2.365  16.186 -1.0617  1.1068  1.9213
11422TIP3   OH255680   5.755   4.736  14.964 -0.2618 -0.5954  0.0439
11422TIP3    H155681   5.690   4.802  14.990 -1.1027 -1.9337  1.5049
11422TIP3    H255682   5.705   4.656  14.952  0.8491 -1.1739 -0.9694
11423TIP3   OH255683   3.479   2.885   5.702 -0.2384 -0.6992  0.6316
11423TIP3    H155684   3.523   2.839   5.774  1.8725 -2.4642 -1.5808
11423TIP3    H255685   3.438   2.815   5.652  2.0551 -0.2166 -2.2044
11424TIP3   OH255686   6.465   0.620  12.205  0.3368  0.0950 -0.0979
11424TIP3    H155687   6.484   0.626  12.298 -0.9032 -0.7659  0.2457
11424TIP3    H255688   6.550   0.628  12.162  0.9681  0.1251  1.1206
11425TIP3   OH255689   1.794   0.729  12.955  0.0337  0.7648  0.4291
11425TIP3    H155690   1.728   0.722  13.024  0.0945  0.0592  0.4286
11425TIP3    H255691   1.840   0.810  12.973 -1.5071  1.8175 -0.1748
11426TIP3   OH255692   6.780   0.491  17.116  0.8571 -0.0969  0.6446
11426TIP3    H155693   6.740   0.577  17.107 -1.1823 -0.9088  1.2506
11426TIP3    H255694   6.864   0.507  17.159 -0.6391  1.3978  3.2865
11427TIP3   OH255695   3.804   0.237   4.479 -0.0940 -0.4793  0.3200
11427TIP3    H155696   3.737   0.244   4.548 -0.9208 -1.8229 -0.3123
11427TIP3    H255697   3.793   0.149   4.443  0.1760  0.2505 -1.6824
11428TIP3   OH255698   5.722   6.484   2.048 -0.0174  0.4119 -0.3043
11428TIP3    H155699   5.679   6.531   1.976 -0.6257  1.2975  0.6158
11428TIP3    H255700   5.761   6.554   2.102  1.3694 -0.2957 -0.3417
11429TIP3   OH255701   4.742   0.111  13.678  0.6470 -0.2991 -0.4338
11429TIP3    H155702   4.812   0.124  13.742  1.0001  0.3948 -0.9473
11429TIP3    H255703   4.786   0.118  13.593 -0.0036 -0.0855 -0.7579
11430TIP3   OH255704   4.604   0.627  14.122  0.1684  0.6186 -0.2797
11430TIP3    H155705   4.540   0.667  14.063 -0.2016 -0.1751 -0.4189
11430TIP3    H255706   4.594   0.675  14.204 -0.0241  1.0448 -0.5449
11431TIP3   OH255707   6.713   4.770   1.477  0.4064 -0.0829  0.3047
11431TIP3    H155708   6.727   4.682   1.443  1.1202  0.3193 -0.4962
11431TIP3    H255709   6.801   4.810   1.476  0.6753 -0.3105  3.4414
11432TIP3   OH255710   3.782   1.199   2.694 -0.2680 -0.1326  0.7130
11432TIP3    H155711   3.778   1.208   2.789  0.0871  1.4447  0.5971
11432TIP3    H255712   3.741   1.278   2.660  1.2814  0.2313 -0.4298
11433TIP3   OH255713   3.316   5.270  11.588  0.1721  0.0633 -0.1786
11433TIP3    H155714   3.262   5.259  11.509 -0.8318 -2.4948  0.7596
11433TIP3    H255715   3.405   5.279  11.554 -0.3156 -0.2240 -1.6430
11434TIP3   OH255716   4.175   0.458   0.715  0.5875 -0.1915 -0.7666
11434TIP3    H155717   4.144   0.467   0.625  0.8941 -0.1431 -0.8677
11434TIP3    H255718   4.230   0.535   0.730  1.0435 -0.5123 -0.7495
11435TIP3   OH255719   3.886   1.773   6.133 -0.6353 -0.1029  0.1876
11435TIP3    H155720   3.904   1.843   6.070  0.4120  0.2466  0.8544
11435TIP3    H255721   3.935   1.798   6.211 -1.0363 -1.0901  0.7702
11436TIP3   OH255722   0.629   3.863  16.829 -0.1096 -0.0443 -0.0876
11436TIP3    H155723   0.682   3.884  16.906 -1.1436  1.0051  0.3868
11436TIP3    H255724   0.640   3.769  16.817  0.6402 -0.1052  0.9166
11437TIP3   OH255725   2.768   3.591   4.278 -0.5289  0.6393  0.0562
11437TIP3    H155726   2.697   3.577   4.216 -0.1201 -0.4057 -0.1900
11437TIP3    H255727   2.759   3.682   4.305 -1.8434  0.5730 -0.1145
11438TIP3   OH255728   5.470   5.372  16.487  0.2166  0.3888 -0.5800
11438TIP3    H155729   5.489   5.435  16.417  0.5394 -0.3307 -1.1557
11438TIP3    H255730   5.468   5.287  16.443  1.3391 -0.1959  0.4115
11439TIP3   OH255731   6.303   2.414   1.049 -0.4957 -1.0365  0.0088
11439TIP3    H155732   6.388   2.433   1.012 -1.5390  0.7839 -1.5815
11439TIP3    H255733   6.310   2.323   1.080  1.8058 -1.0980 -0.5606
11440TIP3   OH255734   4.967   0.196  17.103 -0.2383  0.2747  0.1502
11440TIP3    H155735   5.022   0.140  17.158 -1.7049 -0.3977  0.9958
11440TIP3    H255736   4.972   0.156  17.016  0.7880  0.3756  0.1437
11441TIP3   OH255737   5.878   1.727   5.584  0.0142  0.0223 -0.0131
11441TIP3    H155738   5.828   1.784   5.525 -0.6451 -1.3164 -0.7758
11441TIP3    H255739   5.946   1.689   5.529 -0.9231 -1.6431 -0.0546
11442TIP3   OH255740   2.121   1.798  13.812  0.9576  0.0873  0.0992
11442TIP3    H155741   2.039   1.782  13.764  0.7099  0.5507  0.3606
11442TIP3    H255742   2.179   1.839  13.749  1.4512 -1.3949 -0.4597
11443TIP3   OH255743   2.394   5.641  14.191 -0.2575 -0.8466 -0.1590
11443TIP3    H155744   2.333   5.568  14.192 -0.1117 -1.0896 -2.9330
11443TIP3    H255745   2.451   5.625  14.116  2.8525 -0.2575  1.8562
11444TIP3   OH255746   5.577   6.781   6.356 -0.2511  0.0049  0.2064
11444TIP3    H155747   5.592   6.686   6.355  0.7725  0.1604 -0.8608
11444TIP3    H255748   5.516   6.796   6.283  1.9737  0.4895 -1.6590
11445TIP3   OH255749   0.001   2.667   2.638  0.2492  0.4922 -0.2537
11445TIP3    H155750  -0.011   2.592   2.579 -0.7243  2.1996 -2.3678
11445TIP3    H255751  -0.086   2.686   2.672  0.3831  0.9916 -0.1805
11446TIP3   OH255752   0.102   5.513   0.084  0.7357 -0.5344 -0.4337
11446TIP3    H155753   0.016   5.525   0.043  0.6723  0.8879  0.0672
11446TIP3    H255754   0.083   5.505   0.177  1.1627  0.2809 -0.2632
11447TIP3   OH255755   5.842   0.390   1.272 -0.2066 -0.2508 -0.4334
11447TIP3    H155756   5.783   0.430   1.336 -0.3019  0.4075 -0.9298
11447TIP3    H255757   5.880   0.316   1.319 -0.3035  0.1993  0.3802
11448TIP3   OH255758   3.139   5.759  11.718 -0.0370 -0.6242 -0.3188
11448TIP3    H155759   3.122   5.755  11.812  0.3400 -2.1947 -0.2846
11448TIP3    H255760   3.064   5.714  11.678  0.1677 -0.6193 -0.7169
11449TIP3   OH255761   6.727   5.861  11.134  0.3220  0.3531 -0.9081
11449TIP3    H155762   6.715   5.787  11.194  2.5137 -0.2053 -1.0583
11449TIP3    H255763   6.639   5.883  11.105 -0.5451 -1.1159  0.4374
11450TIP3   OH255764   0.644   2.940   2.520 -0.4768  0.1700  0.8781
11450TIP3    H155765   0.577   2.961   2.585 -2.9230 -0.5861 -1.2055
11450TIP3    H255766   0.713   3.004   2.534 -3.7428  4.2927  0.1855
11451TIP3   OH255767   1.217   6.185  12.472 -0.4168 -0.5280  0.2222
11451TIP3    H155768   1.282   6.116  12.472  0.1633 -0.0166  1.1993
11451TIP3    H255769   1.142   6.149  12.426  0.7848 -0.8963 -1.5249
11452TIP3   OH255770   1.525   4.648  10.655  0.1059 -0.2099 -0.2509
11452TIP3    H155771   1.431   4.631  10.664 -0.0419  1.1978  1.2613
11452TIP3    H255772   1.539   4.733  10.697  1.9004  0.0936 -1.3458
11453TIP3   OH255773   2.293   3.924  17.172 -0.6179 -0.2291  0.0681
11453TIP3    H155774   2.269   3.889  17.257 -0.7935  0.1968  0.1970
11453TIP3    H255775   2.332   3.850  17.125  0.2024 -0.2741  0.7941
11454TIP3   OH255776   4.373   5.785  11.383  0.1482 -0.6318  0.2944
11454TIP3    H155777   4.439   5.842  11.343  0.7368 -1.2644  0.3382
11454TIP3    H255778   4.319   5.844  11.435  0.0486  0.0485 -0.5443
11455TIP3   OH255779   4.669   4.354  17.266 -0.4544 -0.0796 -0.4574
11455TIP3    H155780   4.734   4.425  17.266 -1.4415  0.8529 -0.8803
11455TIP3    H255781   4.655   4.335  17.359  0.0873  0.0316 -0.3492
11456TIP3   OH255782   1.629   1.191   1.860  0.4580 -0.0591 -0.0363
11456TIP3    H155783   1.626   1.184   1.955  2.2365  2.0546  0.2517
11456TIP3    H255784   1.549   1.148   1.830 -2.5218  3.0643  2.6679
11457TIP3   OH255785   4.424   6.347  11.615 -0.1640 -0.2734  0.2411
11457TIP3    H155786   4.505   6.312  11.654  1.0072  0.2582 -1.5762
11457TIP3    H255787   4.438   6.441  11.610 -1.1472 -0.1108  0.4401
11458TIP3   OH255788   1.728   6.466   2.859  0.4059  0.9862  0.2695
11458TIP3    H155789   1.719   6.434   2.769  0.0819  2.8379 -0.4060
11458TIP3    H255790   1.817   6.439   2.884  0.1989 -0.2859 -0.2740
11459TIP3   OH255791   6.773   1.074   2.887 -0.6296  0.6662  0.5135
11459TIP3    H155792   6.793   1.074   2.981 -1.7174 -1.6736  0.8175
11459TIP3    H255793   6.678   1.063   2.883 -0.3959 -1.4581 -0.8040
11460TIP3   OH255794   3.834   2.184  14.211  0.0530 -0.0098 -0.2902
11460TIP3    H155795   3.898   2.147  14.150  1.0875  0.8191  0.2536
11460TIP3    H255796   3.864   2.155  14.297  1.2441  2.4725  0.2148
11461TIP3   OH255797   3.632   6.477  13.190  0.1015 -0.0174  0.3461
11461TIP3    H155798   3.699   6.530  13.232 -1.1937  0.5402  1.8092
11461TIP3    H255799   3.579   6.444  13.263  0.8002 -3.3096 -0.4769
11462TIP3   OH255800   6.185   4.327   3.814 -0.4373 -0.6747  0.4914
11462TIP3    H155801   6.111   4.346   3.755  0.1304  1.7439  0.4426
11462TIP3    H255802   6.157   4.363   3.899  0.6964  0.3501  0.4469
11463TIP3   OH255803   4.096   1.104  16.290 -0.1973 -0.0970 -0.0968
11463TIP3    H155804   4.160   1.175  16.302 -0.4510  0.1545 -0.2303
11463TIP3    H255805   4.126   1.035  16.349 -0.5353  0.5192  0.8161
11464TIP3   OH255806   4.831   4.636  11.122  0.2305 -0.0894  0.9450
11464TIP3    H155807   4.783   4.590  11.191 -2.1723 -0.4965 -0.8686
11464TIP3    H255808   4.791   4.723  11.119 -0.7521 -0.5441 -0.8294
11465TIP3   OH255809   4.123   4.324  15.198  0.4622  0.1647 -0.0508
11465TIP3    H155810   4.170   4.382  15.257 -0.6326 -1.0596  2.1375
11465TIP3    H255811   4.187   4.303  15.130  1.9602  1.2121  0.9674
11466TIP3   OH255812   4.153   4.420  12.480 -0.3131 -0.0218  0.0679
11466TIP3    H155813   4.241   4.441  12.513 -0.8452 -0.5000  1.8940
11466TIP3    H255814   4.168   4.389  12.391  1.5623 -1.4983  0.8232
11467TIP3   OH255815   3.659   3.730  16.547  0.5958  0.1425 -0.0799
11467TIP3    H155816   3.578   3.687  16.522  0.0782  2.0781 -2.1200
11467TIP3    H255817   3.636   3.823  16.553  2.6062  0.7320 -0.6391
11468TIP3   OH255818   1.533   4.532   4.199 -0.0142  0.5985  0.1433
11468TIP3    H155819   1.626   4.511   4.202 -0.0214  0.1362 -1.7222
11468TIP3    H255820   1.530   4.625   4.180  0.0767  0.5601 -0.0619
11469TIP3   OH255821   5.790   4.301   2.610 -0.3565  0.2838 -0.0096
11469TIP3    H155822   5.733   4.224   2.609  0.1275 -0.0780 -0.4098
11469TIP3    H255823   5.798   4.326   2.517 -0.6400  0.9111  0.1333
11470TIP3   OH255824   2.196   6.481   0.137 -0.5896 -0.4874 -0.1445
11470TIP3    H155825   2.121   6.434   0.101 -1.4295  1.3051 -0.8628
11470TIP3    H255826   2.231   6.422   0.204 -1.3219 -2.2752 -1.2441
11471TIP3   OH255827   3.616   0.901  14.512 -0.1388 -0.0837  0.1101
11471TIP3    H155828   3.562   0.822  14.508  0.7828 -0.7042 -0.4481
11471TIP3    H255829   3.626   0.918  14.606 -0.4815 -0.5265  0.2312
11472TIP3   OH255830   6.419   1.750  16.481 -0.0486 -0.1182  0.0130
11472TIP3    H155831   6.511   1.767  16.464  0.6563 -2.0851  1.5654
11472TIP3    H255832   6.394   1.817  16.545  0.4005  0.1351 -0.0711
11473TIP3   OH255833   2.052   2.058   2.916 -0.0023 -0.0204  0.7376
11473TIP3    H155834   2.118   1.988   2.916 -0.6434 -0.7112 -1.6002
11473TIP3    H255835   1.968   2.012   2.924 -0.3463  0.6646  1.1968
11474TIP3   OH255836   0.974   0.210   2.866 -0.8667 -0.6236  0.2367
11474TIP3    H155837   0.983   0.163   2.949 -0.0523 -0.1217  0.4468
11474TIP3    H255838   0.880   0.208   2.847 -1.0975 -0.5179  1.3050
11475TIP3   OH255839   1.466   5.504  12.601  0.7351 -0.0901  0.0370
11475TIP3    H155840   1.473   5.591  12.640 -1.1288 -0.1820  0.6600
11475TIP3    H255841   1.488   5.444  12.673 -1.1170 -0.2002  0.5719
11476TIP3   OH255842   1.684   4.122   3.823 -0.1022  0.3763  0.2932
11476TIP3    H155843   1.620   4.161   3.764 -1.1876  0.8305  1.7040
11476TIP3    H255844   1.675   4.171   3.904  1.3550 -0.2128  0.8551
11477TIP3   OH255845   6.358   4.296  15.788 -0.4362 -0.0639  0.3588
11477TIP3    H155846   6.417   4.239  15.838 -1.4909  0.2169  2.0143
11477TIP3    H255847   6.416   4.351  15.736  0.7564 -0.1433  1.5511
11478TIP3   OH255848   0.119   2.743  13.529  0.3636 -0.2901  0.2763
11478TIP3    H155849   0.081   2.655  13.529 -0.2056 -0.0662 -1.0272
11478TIP3    H255850   0.193   2.738  13.590 -0.5683 -1.2576  1.3661
11479TIP3   OH255851   5.143   0.711   2.650  0.0375  0.2797  0.2649
11479TIP3    H155852   5.064   0.659   2.668  0.1618 -0.2498 -0.6495
11479TIP3    H255853   5.111   0.799   2.633 -0.1685  0.5644  1.9745
11480TIP3   OH255854   0.356   4.807  15.240 -0.1280  0.4266  0.1151
11480TIP3    H155855   0.302   4.871  15.287 -0.6031  0.8534 -0.9813
11480TIP3    H255856   0.352   4.835  15.148  0.3330 -0.7055 -0.2667
11481TIP3   OH255857   5.946   1.404  17.001 -0.6550  0.4302  0.5010
11481TIP3    H155858   5.889   1.380  17.074 -1.4013 -0.8901 -0.4809
11481TIP3    H255859   5.889   1.401  16.924  0.1473  1.6479 -0.1822
11482TIP3   OH255860   0.878   2.499  15.947  0.1945 -0.3850  0.7881
11482TIP3    H155861   0.859   2.409  15.975 -1.0565 -0.3897  0.0127
11482TIP3    H255862   0.804   2.523  15.891  2.7314 -0.5727 -2.9969
11483TIP3   OH255863   5.693   0.576   6.543  0.1637  0.1173  0.4084
11483TIP3    H155864   5.620   0.585   6.482  0.8081  0.7942 -0.2963
11483TIP3    H255865   5.767   0.618   6.498  1.1117 -0.9727  0.8875
11484TIP3   OH255866   3.234   2.190  11.757 -0.3022  0.2288 -0.5106
11484TIP3    H155867   3.276   2.155  11.836 -0.7521 -0.2739 -0.4848
11484TIP3    H255868   3.225   2.283  11.773 -1.6791 -0.0679  0.6427
11485TIP3   OH255869   0.036   5.155   5.327  0.2306  0.1968 -0.2726
11485TIP3    H155870   0.065   5.150   5.235  1.7383 -0.2866  0.1970
11485TIP3    H255871   0.104   5.207   5.370 -0.3243  0.1922  0.6259
11486TIP3   OH255872   4.664   6.226  10.886  0.6159 -0.1577 -0.1242
11486TIP3    H155873   4.592   6.213  10.947  0.8748  0.1576  0.2634
11486TIP3    H255874   4.641   6.305  10.837  0.1448 -0.7303 -0.8321
11487TIP3   OH255875   3.793   4.051  12.463  0.6199 -0.4977  0.2701
11487TIP3    H155876   3.882   4.081  12.448  0.1136  0.7421 -0.3588
11487TIP3    H255877   3.758   4.035  12.375 -0.2940  0.6340  0.4019
11488TIP3   OH255878   0.946   4.960  11.785 -0.1210 -0.5486  0.2336
11488TIP3    H155879   0.967   4.882  11.837 -3.0906 -0.1697  2.2439
11488TIP3    H255880   0.972   5.033  11.841  1.2302 -0.0206 -1.0053
11489TIP3   OH255881   5.506   3.673   3.196  0.1260 -0.0053 -1.1406
11489TIP3    H155882   5.565   3.598   3.199 -0.5827 -0.5422 -0.1861
11489TIP3    H255883   5.440   3.649   3.130  0.6296  0.3482 -1.7849
11490TIP3   OH255884   3.184   2.523  16.448 -0.4945 -0.1746 -0.3110
11490TIP3    H155885   3.214   2.584  16.381  2.2836 -1.2026 -0.1533
11490TIP3    H255886   3.215   2.438  16.418  0.6065 -0.6980  2.0748
11491TIP3   OH255887   3.150   4.501   0.211  0.0896 -0.4373  0.4497
11491TIP3    H155888   3.106   4.475   0.293  1.1173 -0.5090  0.9932
11491TIP3    H255889   3.235   4.457   0.215  0.3716  0.0214 -0.4009
11492TIP3   OH255890   1.247   0.032  11.262 -0.0683  0.2557  0.0592
11492TIP3    H155891   1.208   0.119  11.251 -1.3364 -0.0520  1.7754
11492TIP3    H255892   1.301   0.040  11.341  0.5258 -0.2926 -0.2859
11493TIP3   OH255893   0.300   5.626  12.814 -0.5868  0.4656 -0.0565
11493TIP3    H155894   0.265   5.565  12.880  0.4661 -0.4376 -0.3120
11493TIP3    H255895   0.265   5.594  12.731  0.3272 -0.0677 -0.2421
11494TIP3   OH255896   2.770   0.148  12.089 -0.2244 -0.3430  0.6355
11494TIP3    H155897   2.826   0.085  12.043 -0.3853 -0.2603  0.3227
11494TIP3    H255898   2.831   0.216  12.120  0.1451 -1.3214  2.1630
11495TIP3   OH255899   6.252   5.285   2.663  0.2289 -0.2356 -0.4982
11495TIP3    H155900   6.340   5.323   2.660  0.2872 -0.1026  1.4726
11495TIP3    H255901   6.199   5.351   2.709 -0.6574 -0.7451 -0.7591
11496TIP3   OH255902   1.694   6.242  16.355  0.2276 -0.2839 -0.3050
11496TIP3    H155903   1.646   6.316  16.316  1.7248  0.1314 -1.4564
11496TIP3    H255904   1.644   6.165  16.329  0.1759  0.1384 -1.5105
11497TIP3   OH255905   5.029   0.345   0.327  0.0509  0.2828  0.2914
11497TIP3    H155906   4.978   0.357   0.246 -1.8746 -2.0693  1.0143
11497TIP3    H255907   5.099   0.284   0.302 -0.4552 -0.3276  0.3333
11498TIP3   OH255908   1.037   0.648  14.470 -0.2670 -0.2386  0.0158
11498TIP3    H155909   0.965   0.711  14.469 -0.3454 -0.3155 -1.3900
11498TIP3    H255910   1.091   0.672  14.394  0.2418 -1.2428  0.0363
11499TIP3   OH255911   6.751   4.810  13.734 -0.1467 -0.1465  0.1607
11499TIP3    H155912   6.744   4.862  13.814  1.6232 -1.4164  1.2100
11499TIP3    H255913   6.730   4.721  13.760  1.9013 -0.8547 -0.3732
11500TIP3   OH255914   3.674   3.910  14.333 -0.3415  0.2759 -0.0378
11500TIP3    H155915   3.621   3.918  14.413  0.1274 -0.1078  0.3163
11500TIP3    H255916   3.656   3.991  14.285 -1.0542  0.2657  0.1926
11501TIP3   OH255917   5.186   1.686  14.439 -0.4135 -0.1181  0.3450
11501TIP3    H155918   5.188   1.650  14.528 -0.2153 -0.1029  0.3480
11501TIP3    H255919   5.211   1.612  14.383  3.5890  0.8093  0.6209
11502TIP3   OH255920   3.379   3.875   0.854  0.3280 -0.1513 -0.4627
11502TIP3    H155921   3.427   3.819   0.916 -2.4775 -1.5393  0.6084
11502TIP3    H255922   3.304   3.908   0.904  0.2086  2.1551 -1.9871
11503TIP3   OH255923   4.152   1.022   1.732  0.3013  0.0654  0.4530
11503TIP3    H155924   4.099   0.943   1.746  0.4798 -0.1188  0.0994
11503TIP3    H255925   4.174   1.052   1.820 -0.8805  0.4768  0.6297
11504TIP3   OH255926   1.283   4.185   4.945  0.9590  0.1614 -0.0814
11504TIP3    H155927   1.310   4.276   4.931  1.1270  0.1869  0.3949
11504TIP3    H255928   1.210   4.191   5.007  2.6992 -0.1825  2.1472
11505TIP3   OH255929   3.339   5.529  17.141  0.2230 -0.4113 -0.7778
11505TIP3    H155930   3.351   5.615  17.101  2.4237 -0.4536 -0.3160
11505TIP3    H255931   3.427   5.492  17.145  0.2452 -0.4510  3.9508
11506TIP3   OH255932   4.325   6.493  10.879  0.1284 -0.0556  0.6565
11506TIP3    H155933   4.249   6.549  10.895  0.0146 -0.2688  0.8610
11506TIP3    H255934   4.291   6.404  10.881 -0.4356 -0.1398 -3.4298
11507TIP3   OH255935   3.755   4.727   2.551 -0.2292  0.2154  0.3395
11507TIP3    H155936   3.716   4.703   2.468 -0.2598 -2.5200  1.0668
11507TIP3    H255937   3.696   4.793   2.588  0.0039  1.7820 -1.9088
11508TIP3   OH255938   3.670   6.122   5.924  0.0288 -0.3718 -0.1703
11508TIP3    H155939   3.583   6.082   5.926 -0.4587  0.5808 -0.9561
11508TIP3    H255940   3.730   6.048   5.921 -0.8943 -1.2001 -3.8023
11509TIP3   OH255941   4.558   3.609  13.330 -0.3626 -0.2753  0.2071
11509TIP3    H155942   4.602   3.674  13.386  2.4169 -3.3967  1.9832
11509TIP3    H255943   4.486   3.576  13.385  0.6698 -1.3973  0.9293
11510TIP3   OH255944   1.126   2.338   3.997  0.0418  0.4329  0.1748
11510TIP3    H155945   1.121   2.321   4.091  0.3425 -1.2086 -0.0710
11510TIP3    H255946   1.056   2.400   3.980  0.0213  0.8103  1.4872
11511TIP3   OH255947   2.128   5.004  11.131  0.7907  0.4234 -0.4526
11511TIP3    H155948   2.034   5.014  11.116 -0.1045  0.4357  3.8028
11511TIP3    H255949   2.163   5.092  11.118 -0.3719  1.0952  0.6598
11512TIP3   OH255950   2.583   2.054  11.337 -0.1668 -0.0919 -0.1565
11512TIP3    H155951   2.604   1.995  11.409 -1.1639  0.1822  0.3797
11512TIP3    H255952   2.562   1.996  11.263 -2.6302 -0.5221  0.7779
11513TIP3   OH255953   0.102   3.476   3.892 -0.2834  0.1056  0.2718
11513TIP3    H155954   0.047   3.458   3.969 -3.2499 -0.3720 -1.7718
11513TIP3    H255955   0.187   3.440   3.915 -2.0205 -3.5167  1.9838
11514TIP3   OH255956   3.394   5.010  12.364  0.0774 -0.5999  0.0537
11514TIP3    H155957   3.402   4.995  12.458  0.0196  0.3852  0.2325
11514TIP3    H255958   3.331   4.945  12.334 -1.3678  0.2887  1.0464
11515TIP3   OH255959   2.861   4.200   5.801 -0.2559 -0.6214  0.0342
11515TIP3    H155960   2.840   4.206   5.894 -2.3580 -0.5255 -0.3969
11515TIP3    H255961   2.788   4.243   5.757  0.3561 -1.2525 -1.7033
11516TIP3   OH255962   1.761   5.672  15.427 -0.5111 -0.0902 -0.5811
11516TIP3    H155963   1.799   5.718  15.352 -0.8296  1.6438  0.2707
11516TIP3    H255964   1.807   5.708  15.503 -0.9502 -1.0121  0.1362
11517TIP3   OH255965   6.709   0.257   0.426  0.0610  0.5190 -0.3700
11517TIP3    H155966   6.655   0.181   0.447 -0.6728  1.4245  1.2435
11517TIP3    H255967   6.799   0.229   0.443  0.0135 -0.5831 -1.7709
11518TIP3   OH255968   0.933   6.461   2.268 -0.0176  0.1792  0.3501
11518TIP3    H155969   1.021   6.425   2.260 -0.7086 -1.3711 -1.2045
11518TIP3    H255970   0.876   6.383   2.267 -1.5212  1.2199 -1.4062
11519TIP3   OH255971   6.692   1.383   6.099 -0.0850 -0.0924  0.4087
11519TIP3    H155972   6.624   1.341   6.151 -0.9545  0.9569  0.1643
11519TIP3    H255973   6.773   1.343   6.129 -0.7562 -1.0298  1.0484
11520TIP3   OH255974   6.714   1.934  13.292 -0.0745 -0.2713  0.1656
11520TIP3    H155975   6.647   1.884  13.245 -0.5460  0.4476  0.0521
11520TIP3    H255976   6.691   1.923  13.385  1.3251 -2.3528  0.3270
11521TIP3   OH255977   2.262   0.814  10.931  0.1760 -0.2910 -0.2003
11521TIP3    H155978   2.210   0.824  11.011  1.0900 -0.2625  0.4024
11521TIP3    H255979   2.305   0.898  10.920 -0.2454 -0.1636 -0.9544
11522TIP3   OH255980   5.437   6.513  11.933  0.0860  0.0450 -0.2054
11522TIP3    H155981   5.413   6.438  11.988 -0.4783 -0.7091 -1.4461
11522TIP3    H255982   5.486   6.474  11.860  0.1232  0.9290 -0.6611
11523TIP3   OH255983   0.719   4.011  12.395  0.0535  0.0802  0.1376
11523TIP3    H155984   0.632   4.025  12.432  0.0297  0.1151  0.0683
11523TIP3    H255985   0.739   3.919  12.415 -0.2431 -0.0948 -0.3566
11524TIP3   OH255986   1.440   6.209  15.636  0.4778  0.3451 -0.3998
11524TIP3    H155987   1.355   6.175  15.608  1.2526 -0.3805 -2.0408
11524TIP3    H255988   1.457   6.165  15.719 -1.5923  2.0145  1.0241
11525TIP3   OH255989   5.406   1.485   1.769 -0.1218  0.7402  0.1416
11525TIP3    H155990   5.486   1.442   1.798 -0.6815 -0.7395 -0.4190
11525TIP3    H255991   5.355   1.498   1.849  1.1437  2.8114  0.6852
11526TIP3   OH255992   2.167   0.908   2.268  0.0510  0.0539 -0.1651
11526TIP3    H155993   2.143   0.872   2.183  1.2416 -0.6231 -0.2396
11526TIP3    H255994   2.084   0.920   2.314 -0.5499 -0.2432 -1.1546
11527TIP3   OH255995   4.043   4.520  13.829  0.3971 -0.8107  0.4868
11527TIP3    H155996   3.977   4.491  13.765 -1.2532  0.6504  1.4434
11527TIP3    H255997   3.992   4.549  13.904  2.1887 -0.1260  1.4889
11528TIP3   OH255998   3.205   5.760   3.599  0.2344  0.6575  0.2271
11528TIP3    H155999   3.190   5.852   3.622  1.3149  0.3198  2.6588
11528TIP3    H256000   3.155   5.711   3.666  0.5150 -0.5212 -0.3969
11529TIP3   OH256001   0.626   5.517  15.821  0.4032  0.5102  0.0668
11529TIP3    H156002   0.714   5.483  15.838 -0.2788 -1.6879 -0.4929
11529TIP3    H256003   0.603   5.566  15.899  0.6097 -2.2164  1.9593
11530TIP3   OH256004   2.104   4.288   0.533  0.0850  0.4858 -0.4712
11530TIP3    H156005   2.176   4.230   0.511 -0.8566 -0.1262 -2.1119
11530TIP3    H256006   2.025   4.235   0.522 -0.6392  0.8221  2.2554
11531TIP3   OH256007   2.765   3.846   4.356  0.2352  0.0094 -0.2871
11531TIP3    H156008   2.841   3.898   4.330  0.1924  0.4664  0.4591
11531TIP3    H256009   2.722   3.899   4.423  0.5674 -1.2847  0.9933
11532TIP3   OH256010   6.723   1.249  14.315 -1.0996 -0.4858 -0.0682
11532TIP3    H156011   6.678   1.167  14.294 -1.6579 -0.7838  2.0785
11532TIP3    H256012   6.719   1.255  14.410 -1.1087  2.0821 -0.1632
11533TIP3   OH256013   4.153   2.525  13.754 -0.3932 -0.0880 -0.4883
11533TIP3    H156014   4.200   2.575  13.687  0.5870 -2.3712 -1.6264
11533TIP3    H256015   4.060   2.542  13.737 -0.0983  0.8101 -1.2584
11534TIP3   OH256016   3.625   4.551   3.553 -0.3364  0.1288  0.4725
11534TIP3    H156017   3.707   4.502   3.551 -0.5463 -0.2596  1.1208
11534TIP3    H256018   3.652   4.642   3.538  0.2343  0.0271  0.8389
11535TIP3   OH256019   0.670   5.868   2.075 -0.7107  0.1351 -0.3798
11535TIP3    H156020   0.592   5.912   2.042  0.0603  1.4412 -0.5353
11535TIP3    H256021   0.712   5.832   1.997  0.1054  1.5658 -0.6381
11536TIP3   OH256022   4.299   3.729  12.865 -0.0752  0.4668  0.3231
11536TIP3    H156023   4.340   3.728  12.778  0.6014  0.5552  0.6374
11536TIP3    H256024   4.306   3.638  12.895  0.2479  0.5677  0.5468
11537TIP3   OH256025   1.768   4.794  13.414 -0.1166  0.5157  0.2293
11537TIP3    H156026   1.771   4.799  13.319  0.9266  0.8265  0.2661
11537TIP3    H256027   1.706   4.723  13.433  1.1088 -0.8733 -0.7271
11538TIP3   OH256028   2.004   2.575   3.095 -1.0091 -0.3102 -0.0158
11538TIP3    H156029   1.971   2.550   3.009  0.3141 -1.4708 -0.2189
11538TIP3    H256030   2.062   2.504   3.120  0.2772  1.0040  0.8958
11539TIP3   OH256031   3.069   0.536  12.455  0.3399  1.2272  0.0615
11539TIP3    H156032   3.054   0.631  12.457 -1.4009  0.9879 -0.4904
11539TIP3    H256033   3.051   0.506  12.544  2.0087  1.5392  0.5367
11540TIP3   OH256034   6.418   6.633   3.863 -0.6100 -0.6971  0.1653
11540TIP3    H156035   6.505   6.632   3.903  0.7260 -0.0651 -2.5208
11540TIP3    H256036   6.366   6.691   3.919  0.7213 -0.9149  1.6882
11541TIP3   OH256037   6.743   3.889  11.879  0.3139  0.5703 -0.0229
11541TIP3    H156038   6.683   3.881  11.954  0.7928  0.8318  0.3946
11541TIP3    H256039   6.806   3.818  11.893  0.7714  1.0119  0.1653
11542TIP3   OH256040   2.439   5.721   4.442  0.1109 -0.1747  0.0919
11542TIP3    H156041   2.504   5.652   4.431  0.1306 -0.9361  3.7485
11542TIP3    H256042   2.357   5.675   4.461 -0.0178  0.7180  1.9382
11543TIP3   OH256043   0.909   1.205   3.779  0.1290 -0.8332  0.7805
11543TIP3    H156044   0.901   1.232   3.688 -0.4349  0.5179  1.2115
11543TIP3    H256045   0.950   1.119   3.775 -1.0513 -1.3666 -0.8123
11544TIP3   OH256046   0.579   5.337  15.605  0.1479  0.0571 -0.1813
11544TIP3    H156047   0.565   5.384  15.523  0.8032 -1.0031 -0.9228
11544TIP3    H256048   0.627   5.398  15.660  0.1307  0.6035 -0.7581
11545TIP3   OH256049   1.770   0.523  17.272  0.5852  0.1440 -0.0563
11545TIP3    H156050   1.789   0.435  17.241  0.4372 -0.2155  0.8496
11545TIP3    H256051   1.829   0.536  17.347  0.7541  0.8924 -0.3064
11546TIP3   OH256052   6.487   0.771   0.097  0.6592  0.7822 -0.1927
11546TIP3    H156053   6.533   0.855   0.092  1.8226  0.4436  2.8934
11546TIP3    H256054   6.441   0.774   0.180 -0.9733 -0.8828 -0.9841
11547TIP3   OH256055   4.717   6.108   6.128  0.2882 -0.6500  0.2950
11547TIP3    H156056   4.658   6.127   6.200 -0.3998  1.5153 -0.7640
11547TIP3    H256057   4.726   6.013   6.129  1.1905 -0.6431  3.8608
11548TIP3   OH256058   2.180   3.226  15.092  0.7410 -0.5890  0.4621
11548TIP3    H156059   2.213   3.285  15.024  0.3964  0.7255  1.4056
11548TIP3    H256060   2.145   3.151  15.043 -0.3285  0.7303 -0.8750
11549TIP3   OH256061   5.156   3.871   2.649  0.2872  0.2708 -0.0479
11549TIP3    H156062   5.147   3.957   2.609  0.5993  0.2820 -0.0919
11549TIP3    H256063   5.134   3.810   2.578 -1.6744  0.3461  0.4480
11550TIP3   OH256064   2.358   5.998   0.521  0.0105 -0.1641 -0.5549
11550TIP3    H156065   2.332   5.999   0.613 -2.6160  0.2966 -1.2401
11550TIP3    H256066   2.449   6.027   0.522 -0.4671  1.5596  1.7526
11551TIP3   OH256067   2.607   2.195  12.145 -0.2282  0.3596  0.6323
11551TIP3    H156068   2.666   2.143  12.090 -1.1474 -0.8268  0.7345
11551TIP3    H256069   2.562   2.252  12.083 -0.3495 -0.0881  0.2984
11552TIP3   OH256070   5.830   5.574  11.349 -0.0347 -0.3952  0.1795
11552TIP3    H156071   5.782   5.650  11.382  2.2150  0.5503  1.5322
11552TIP3    H256072   5.829   5.584  11.254  0.1739  1.3210  0.3361
11553TIP3   OH256073   3.640   6.723   2.833 -0.0618 -0.1064 -0.2596
11553TIP3    H156074   3.664   6.769   2.753  2.0700 -2.0691 -0.8541
11553TIP3    H256075   3.691   6.765   2.902  0.5667 -0.4502 -0.5068
11554TIP3   OH256076   6.659   5.792  15.475 -0.2938  0.1280  0.2603
11554TIP3    H156077   6.574   5.835  15.487  0.7165  2.1455  0.7288
11554TIP3    H256078   6.676   5.800  15.381  0.3131  1.7549  0.4667
11555TIP3   OH256079   5.986   2.195  12.491 -0.4894 -0.5785 -0.2067
11555TIP3    H156080   5.986   2.291  12.484 -0.5219 -0.6092 -0.6379
11555TIP3    H256081   5.895   2.172  12.510 -0.5370 -0.5437 -0.3907
11556TIP3   OH256082   4.042   1.404  12.644  0.1160  0.2985 -0.5762
11556TIP3    H156083   4.128   1.433  12.677  0.3180  0.6315 -1.3651
11556TIP3    H256084   4.043   1.309  12.657 -0.0915  0.4727  0.9808
11557TIP3   OH256085   5.117   6.781   2.412  0.3452  0.4966 -0.4715
11557TIP3    H156086   5.059   6.845   2.454 -3.0202 -2.8994  0.6402
11557TIP3    H256087   5.167   6.744   2.485  0.2449  0.0185 -0.6405
11558TIP3   OH256088   5.112   4.568  16.152 -0.5205 -0.1211 -0.2365
11558TIP3    H156089   5.049   4.594  16.219  0.2083  0.3096  0.2828
11558TIP3    H256090   5.156   4.492  16.189  3.3896  2.9002  2.0712
11559TIP3   OH256091   4.072   1.963   1.129 -0.3217  0.1626 -0.1377
11559TIP3    H156092   4.019   1.883   1.129  0.5094 -0.4077  0.7739
11559TIP3    H256093   4.111   1.966   1.217 -0.5254  1.7000 -0.0839
11560TIP3   OH256094   6.734   3.165   3.145  0.2737 -0.1660 -0.2054
11560TIP3    H156095   6.690   3.250   3.146 -1.0060 -0.7717  2.2273
11560TIP3    H256096   6.703   3.122   3.066 -0.8663  0.7413 -0.2732
11561TIP3   OH256097   3.191   2.606  14.176 -0.0397  0.0730 -0.0444
11561TIP3    H156098   3.250   2.535  14.149  0.6411  0.8847 -0.7805
11561TIP3    H256099   3.247   2.668  14.223 -0.5344  0.3335  0.2131
11562TIP3   OH256100   3.874   4.973   1.706 -0.3789  0.1137 -0.5090
11562TIP3    H156101   3.804   4.976   1.772 -0.1486  0.8323 -0.2953
11562TIP3    H256102   3.850   4.899   1.651 -0.8316 -0.2067  0.0956
11563TIP3   OH256103   1.402   1.432   1.382 -0.1598 -0.0260 -0.3409
11563TIP3    H156104   1.391   1.380   1.461 -0.3863 -0.0511 -0.3891
11563TIP3    H256105   1.377   1.521   1.408 -0.1344 -0.0142 -0.3569
11564TIP3   OH256106   0.850   2.099  13.932 -0.4969 -0.2773 -0.3569
11564TIP3    H156107   0.856   2.018  13.881  0.0974 -0.9582  0.7685
11564TIP3    H256108   0.757   2.123  13.927 -0.9787 -1.7996  0.4389
11565TIP3   OH256109   5.064   0.452  15.971 -0.5975 -0.0385  0.0592
11565TIP3    H156110   5.065   0.375  16.029  1.5414  0.9399  1.4399
11565TIP3    H256111   5.019   0.421  15.892 -0.0585 -2.6457  0.6546
11566TIP3   OH256112   0.524   5.649   5.868  0.2107 -0.6150 -0.1991
11566TIP3    H156113   0.563   5.583   5.810  0.2547 -0.1591 -0.7025
11566TIP3    H256114   0.449   5.605   5.907  0.4303 -1.0686 -0.2735
11567TIP3   OH256115   6.294   2.789   0.471 -0.0548  0.5372 -0.5515
11567TIP3    H156116   6.285   2.707   0.423  0.4901  0.6435 -0.8294
11567TIP3    H256117   6.338   2.848   0.411 -0.7259  1.1396 -0.4673
11568TIP3   OH256118   6.237   3.194   0.320 -0.2549  0.0130 -0.3155
11568TIP3    H156119   6.259   3.113   0.366 -2.0907 -1.5546 -2.0253
11568TIP3    H256120   6.207   3.253   0.389 -0.7220 -1.4498  0.7853
11569TIP3   OH256121   4.584   4.584   1.614 -0.0824  0.2263  1.0887
11569TIP3    H156122   4.671   4.613   1.585 -0.1427 -1.0371 -0.5290
11569TIP3    H256123   4.584   4.490   1.598 -1.1496 -0.1016  2.7697
11570TIP3   OH256124   6.219   6.090  12.938 -0.6308  0.5120 -0.0578
11570TIP3    H156125   6.169   6.054  12.864 -1.2479  1.8559 -0.3180
11570TIP3    H256126   6.239   6.180  12.912  0.8396  0.3963  0.5990
11571TIP3   OH256127   6.403   6.550   1.942  0.6319  0.1146  0.9675
11571TIP3    H156128   6.353   6.622   1.903  0.2586 -0.1522  0.9488
11571TIP3    H256129   6.345   6.474   1.934  1.0608 -0.2088  0.8965
11572TIP3   OH256130   0.448   0.360  11.331  0.2707 -0.5348  0.6019
11572TIP3    H156131   0.390   0.293  11.366 -0.8565 -0.8484 -1.6594
11572TIP3    H256132   0.393   0.437  11.321  0.6226 -0.3778 -0.1819
11573TIP3   OH256133   0.721   3.455   3.469  0.0306 -0.1376 -0.6962
11573TIP3    H156134   0.692   3.376   3.514  1.3039 -0.1361  0.1739
11573TIP3    H256135   0.641   3.497   3.440 -0.8447 -0.1867  1.4919
11574TIP3   OH256136   4.223   6.580  15.870  0.3240 -0.4482 -0.0505
11574TIP3    H156137   4.302   6.622  15.904  1.3939 -2.3053 -0.0933
11574TIP3    H256138   4.254   6.496  15.835 -1.6846 -1.2692  0.0186
11575TIP3   OH256139   3.831   6.603  15.263 -0.0982  0.5225  0.0437
11575TIP3    H156140   3.742   6.583  15.291 -0.2336  2.6031  1.3251
11575TIP3    H256141   3.878   6.520  15.271 -1.5276 -0.2357  1.0139
11576TIP3   OH256142   2.978   2.701  12.716  0.4737  0.0413  0.2730
11576TIP3    H156143   2.890   2.668  12.733  1.1498 -0.8681  2.3546
11576TIP3    H256144   3.035   2.626  12.728  1.5915  0.6954 -0.6803
11577TIP3   OH256145   0.349   4.542  15.319  0.0456 -0.5997  0.1808
11577TIP3    H156146   0.411   4.523  15.390  1.3394 -0.5011 -0.8771
11577TIP3    H256147   0.360   4.636  15.302  0.6719 -0.8499 -0.9452
11578TIP3   OH256148   3.054   1.083  12.355 -0.1023  0.5400  0.0876
11578TIP3    H156149   3.094   1.098  12.440  0.4267  0.4705 -0.1465
11578TIP3    H256150   3.044   1.171  12.318 -0.7912  0.6066  0.4264
11579TIP3   OH256151   4.657   4.228   0.631  0.4116  0.2728  0.0706
11579TIP3    H156152   4.588   4.295   0.643  0.8283  0.9345 -1.1054
11579TIP3    H256153   4.617   4.147   0.662 -0.5947  0.8178  0.2428
11580TIP3   OH256154   3.243   3.514   4.879  0.0121  0.0866  0.0747
11580TIP3    H156155   3.205   3.492   4.963 -0.8205 -1.3071 -0.6393
11580TIP3    H256156   3.192   3.589   4.848  1.6464  1.9870  1.6707
11581TIP3   OH256157   1.538   2.790   5.666  0.6201  0.1739  0.0862
11581TIP3    H156158   1.601   2.861   5.677  1.2089 -0.4552  0.9089
11581TIP3    H256159   1.475   2.803   5.737  0.9397 -0.3299  0.4705
11582TIP3   OH256160   4.356   1.989   0.641 -0.1332 -0.0849  0.3497
11582TIP3    H156161   4.377   2.043   0.717 -0.6170 -0.9677  1.1397
11582TIP3    H256162   4.437   1.987   0.590  0.0152  1.0108  0.5354
11583TIP3   OH256163   6.432   1.744  15.973 -0.4408  0.2752 -0.2516
11583TIP3    H156164   6.386   1.785  15.900 -1.1639  2.2347  1.2193
11583TIP3    H256165   6.369   1.746  16.045  1.1371  0.9238  1.1823
11584TIP3   OH256166   6.234   4.048   5.415  0.4606 -0.5332  0.4227
11584TIP3    H156167   6.202   4.035   5.505  0.1294  0.8445  0.5265
11584TIP3    H256168   6.172   4.000   5.361  0.8600 -1.6662  0.9402
11585TIP3   OH256169   2.715   3.047   3.785 -0.2059 -0.3875  0.3345
11585TIP3    H156170   2.755   2.984   3.845  2.2564  0.8026  0.0484
11585TIP3    H256171   2.756   3.030   3.701  2.0714  2.7332  0.6379
11586TIP3   OH256172   6.693   2.648   0.944  0.5557  0.3902 -0.0487
11586TIP3    H156173   6.743   2.648   0.862  0.9741  0.5557  0.2056
11586TIP3    H256174   6.643   2.566   0.941  1.1032  0.0496 -0.1496
11587TIP3   OH256175   0.189   5.273  16.017 -0.3031 -0.1549 -0.6070
11587TIP3    H156176   0.248   5.203  16.046  1.8723  1.1818 -1.5377
11587TIP3    H256177   0.210   5.347  16.074 -1.1183  0.3336 -0.9244
11588TIP3   OH256178   5.543   0.483  15.465 -0.1622 -0.3660 -0.2619
11588TIP3    H156179   5.578   0.539  15.534  2.9575 -0.7517 -1.3600
11588TIP3    H256180   5.480   0.538  15.419  0.2832  1.0434  0.7526
11589TIP3   OH256181   1.615   6.458  12.776  0.2407  0.4050 -0.3008
11589TIP3    H156182   1.551   6.497  12.716  0.6306  0.8736 -0.4136
11589TIP3    H256183   1.601   6.364  12.767 -1.2041  0.5119  0.5125
11590TIP3   OH256184   5.861   3.398  17.180  0.4110 -0.1876 -0.0349
11590TIP3    H156185   5.861   3.320  17.236 -1.9671 -1.4378 -1.6072
11590TIP3    H256186   5.773   3.435  17.189  0.8645  1.1894 -0.8416
11591TIP3   OH256187   3.068   0.187  15.422  0.2747 -0.8039  0.6312
11591TIP3    H156188   3.130   0.241  15.471 -0.8006  0.5291  0.5957
11591TIP3    H256189   3.119   0.151  15.350  0.9847  0.3524  0.5344
11592TIP3   OH256190   3.303   1.146   3.052 -0.3064 -0.3685 -0.0379
11592TIP3    H156191   3.210   1.128   3.065 -0.6459  0.6166 -0.9490
11592TIP3    H256192   3.346   1.110   3.130 -1.4950 -0.4867  0.5782
11593TIP3   OH256193   0.714   6.438  14.684  0.7552 -0.3765  0.1653
11593TIP3    H156194   0.735   6.490  14.606  1.2243 -0.2052  0.4036
11593TIP3    H256195   0.709   6.348  14.651  0.4657 -0.2517 -0.1492
11594TIP3   OH256196   5.352   0.016   0.453 -0.1697  0.1820 -0.4367
11594TIP3    H156197   5.420   0.012   0.519 -0.6438  0.5537  0.0904
11594TIP3    H256198   5.335  -0.075   0.428 -0.1888  0.0199  0.1669
11595TIP3   OH256199   5.247   0.588   0.013 -0.8723  0.6901 -0.5256
11595TIP3    H156200   5.212   0.500   0.007 -1.1747  0.8564 -1.2712
11595TIP3    H256201   5.334   0.577   0.052 -1.6801  0.2720  1.2830
11596TIP3   OH256202   2.677   2.970   4.726  0.0120 -0.4496  0.3433
11596TIP3    H156203   2.772   2.977   4.740  0.0384 -1.2734  0.6381
11596TIP3    H256204   2.644   3.059   4.741  1.2347  1.0517 -4.3345
11597TIP3   OH256205   4.339   2.600  15.247  0.0848  0.5130  0.2996
11597TIP3    H156206   4.294   2.684  15.242 -1.5867 -0.3682 -0.4032
11597TIP3    H256207   4.270   2.535  15.234  1.4809 -0.9423 -0.1857
11598TIP3   OH256208   0.527   2.360   5.316  0.2600  0.3704 -0.2799
11598TIP3    H156209   0.500   2.272   5.341 -1.7924  1.1089  0.2888
11598TIP3    H256210   0.482   2.377   5.234  0.6085  0.9074 -0.3653
11599TIP3   OH256211   3.823   6.665  13.648 -0.1054 -0.6237 -0.0915
11599TIP3    H156212   3.791   6.720  13.719  0.9809  0.8202 -0.6889
11599TIP3    H256213   3.916   6.686  13.641 -0.1952 -0.7292 -1.9457
11600TIP3   OH256214   5.203   0.745   0.235  0.2553  0.1950  0.0200
11600TIP3    H156215   5.136   0.811   0.215 -0.9480 -0.7198  0.9311
11600TIP3    H256216   5.212   0.695   0.154 -2.0656 -1.2790  0.5663
11601TIP3   OH256217   1.848   2.054   5.326 -0.0692 -0.4542 -0.4593
11601TIP3    H156218   1.806   1.969   5.335 -0.6451 -0.1743 -0.4234
11601TIP3    H256219   1.816   2.105   5.400  2.0454 -0.8985  0.8373
11602TIP3   OH256220   2.044   4.245  11.065 -0.8194 -0.1228 -0.3270
11602TIP3    H156221   2.033   4.162  11.111 -0.5616 -0.5891 -1.0823
11602TIP3    H256222   2.070   4.220  10.976  1.0837  0.7788 -0.0756
11603TIP3   OH256223   6.142   4.220  16.628  0.0524 -0.3208  0.3777
11603TIP3    H156224   6.071   4.158  16.614 -0.2978  0.1773 -0.1097
11603TIP3    H256225   6.136   4.242  16.721 -1.9304  1.4383 -0.0596
11604TIP3   OH256226   1.992   2.559  14.736 -0.0968  0.2542 -0.1921
11604TIP3    H156227   2.034   2.636  14.699  0.7260 -0.1676 -0.1715
11604TIP3    H256228   1.996   2.572  14.830  1.5452 -0.5362 -0.1068
11605TIP3   OH256229   0.107   0.061   3.503 -0.3493 -0.4887 -0.0040
11605TIP3    H156230   0.202   0.062   3.494 -0.3291 -2.4173 -0.3581
11605TIP3    H256231   0.075   0.061   3.413 -0.6879 -0.1654  0.1138
11606TIP3   OH256232   1.294   4.738   5.358 -0.0831 -0.2471  0.0062
11606TIP3    H156233   1.236   4.672   5.321 -0.0443  0.0075 -0.5276
11606TIP3    H256234   1.243   4.780   5.426  0.5349 -2.1137  1.7169
11607TIP3   OH256235   5.351   3.125   5.338 -0.0651 -0.3117 -0.1374
11607TIP3    H156236   5.289   3.123   5.265 -0.6280 -3.2600  0.3008
11607TIP3    H256237   5.433   3.093   5.301  0.6592  1.4879 -0.1999
11608TIP3   OH256238   1.601   2.355   6.374  0.5127 -0.1043  0.4383
11608TIP3    H156239   1.538   2.410   6.420 -1.0927  1.4277 -3.1839
11608TIP3    H256240   1.555   2.272   6.358  0.2811  0.1246 -0.1158
11609TIP3   OH256241   3.917   0.789   2.396 -0.1003 -0.0517  0.3788
11609TIP3    H156242   3.983   0.761   2.460 -1.0412  0.0874  1.4287
11609TIP3    H256243   3.857   0.845   2.445  0.3377  1.8366 -1.1126
11610TIP3   OH256244   6.602   4.107  16.596  0.5329 -0.4137 -0.1308
11610TIP3    H156245   6.541   4.170  16.635 -1.3277 -0.6830 -2.4050
11610TIP3    H256246   6.640   4.061  16.671 -0.9019  0.8191  1.4249
11611TIP3   OH256247   0.263   2.724   2.594 -0.2848  0.5550 -0.4598
11611TIP3    H156248   0.300   2.641   2.624  2.9005  1.6295 -0.9687
11611TIP3    H256249   0.169   2.714   2.604  0.0524 -2.6767  0.5560
11612TIP3   OH256250   1.869   1.208   3.119  0.5457 -0.5055 -0.0481
11612TIP3    H156251   1.898   1.233   3.031  3.3609 -2.6287  0.1312
11612TIP3    H256252   1.904   1.276   3.176  0.7231 -0.3247 -0.3682
11613TIP3   OH256253   1.150   2.668   4.173 -0.1425  1.0034 -0.1302
11613TIP3    H156254   1.136   2.719   4.093 -1.1585  0.7458 -0.1370
11613TIP3    H256255   1.233   2.701   4.209  2.0558 -1.0350 -2.9195
11614TIP3   OH256256   2.207   3.486   5.261  0.4565  0.7194 -0.5026
11614TIP3    H156257   2.135   3.452   5.314 -0.6561 -1.5890 -3.2243
11614TIP3    H256258   2.275   3.419   5.267  0.6196  0.7984 -1.3561
11615TIP3   OH256259   3.950   6.748   0.389  0.2233  0.8903 -0.3719
11615TIP3    H156260   4.027   6.803   0.405 -1.4657  2.8926  1.5928
11615TIP3    H256261   3.893   6.802   0.334 -0.1933 -0.1821 -1.0155
11616TIP3   OH256262   3.260   3.141   1.878 -0.0193 -0.4109 -0.0468
11616TIP3    H156263   3.275   3.087   1.956  0.4341  0.1235  0.2376
11616TIP3    H256264   3.288   3.229   1.903 -1.6281  0.1893 -0.1837
11617TIP3   OH256265   4.454   1.949   5.681 -0.3932 -0.4728  0.8121
11617TIP3    H156266   4.544   1.968   5.707 -0.4837 -0.9963  1.5345
11617TIP3    H256267   4.456   1.945   5.586  0.2259  0.1118  0.7990
11618TIP3   OH256268   1.519   3.748  14.540  0.0273  0.6185 -0.2281
11618TIP3    H156269   1.433   3.732  14.500 -0.2869  1.4603  0.0746
11618TIP3    H256270   1.582   3.722  14.473 -0.4719  0.3837 -0.6155
11619TIP3   OH256271   0.758   6.135  16.679  0.2343 -0.6201 -0.0675
11619TIP3    H156272   0.699   6.183  16.620  1.3439  0.5319 -0.2692
11619TIP3    H256273   0.798   6.069  16.623  1.1449  0.3494 -0.5851
11620TIP3   OH256274   1.480   3.928  11.910 -0.6699 -0.1224 -0.1708
11620TIP3    H156275   1.414   3.989  11.944  0.0047  0.5157  0.0123
11620TIP3    H256276   1.469   3.932  11.815 -3.0102 -2.4070 -0.1165
11621TIP3   OH256277   6.146   0.610   4.871 -0.1362  0.5589  0.0582
11621TIP3    H156278   6.092   0.531   4.876 -0.7156  0.7163 -2.3566
11621TIP3    H256279   6.106   0.670   4.935 -0.9413 -0.4063  0.4855
11622TIP3   OH256280   0.677   1.440   4.315 -0.0954 -0.0198 -0.1536
11622TIP3    H156281   0.654   1.465   4.405 -2.7099 -1.4515 -0.3324
11622TIP3    H256282   0.595   1.452   4.265  0.8358 -0.8855 -1.9833
11623TIP3   OH256283   2.241   3.283   4.345  0.0689 -0.7099  0.1221
11623TIP3    H156284   2.306   3.249   4.407 -0.5902 -2.4702 -0.0784
11623TIP3    H256285   2.279   3.267   4.259  0.9428  1.6511 -0.0023
11624TIP3   OH256286   0.924   4.265  15.473  0.1886  0.3635  0.1360
11624TIP3    H156287   0.963   4.333  15.417  0.0950 -1.7049 -2.6547
11624TIP3    H256288   0.950   4.183  15.432 -0.4167 -1.3283  2.8884
11625TIP3   OH256289   0.249   2.422  11.274  0.0896 -0.0701 -0.1833
11625TIP3    H156290   0.193   2.440  11.349 -0.4474 -1.5870 -0.1721
11625TIP3    H256291   0.336   2.407  11.312 -0.2409 -1.1386  0.2135
11626TIP3   OH256292   6.547   6.294  12.520  0.4686 -0.1207  0.3739
11626TIP3    H156293   6.559   6.349  12.597  1.4897  0.0719  0.1004
11626TIP3    H256294   6.624   6.236  12.520 -0.1144 -0.9204  0.1485
11627TIP3   OH256295   0.577   5.108  15.446  0.2380 -0.3205 -0.0323
11627TIP3    H156296   0.577   5.181  15.507  1.7344 -0.0129 -0.3473
11627TIP3    H256297   0.576   5.149  15.359  0.8443 -0.6583 -0.2097
11628TIP3   OH256298   6.435   6.715  10.267  0.2220  0.2208  0.7419
11628TIP3    H156299   6.368   6.782  10.268 -0.2901 -0.1985 -1.3893
11628TIP3    H256300   6.468   6.714  10.177  1.4121 -1.2145  1.1392
11629TIP3   OH256301   1.125   5.937   2.163  0.8994 -0.1676 -0.3647
11629TIP3    H156302   1.213   5.906   2.140  0.5554 -0.3961 -1.4393
11629TIP3    H256303   1.075   5.929   2.082  0.1426  0.9059 -0.0294
11630TIP3   OH256304   1.579   5.796  13.224  0.0665  0.4125  0.1409
11630TIP3    H156305   1.596   5.884  13.258  2.8776  0.2175 -0.5379
11630TIP3    H256306   1.494   5.773  13.261 -0.1585  2.8829  1.4049
11631TIP3   OH256307   4.190   2.043  15.175  0.3846  0.1484  0.2335
11631TIP3    H156308   4.112   1.989  15.162 -1.2233  2.0716  1.2395
11631TIP3    H256309   4.263   1.987  15.150 -1.2143 -2.2136  0.5474
11632TIP3   OH256310   1.659   0.628   4.696  0.1260  0.0042  0.0772
11632TIP3    H156311   1.672   0.700   4.758 -0.7861 -1.1888  1.7452
11632TIP3    H256312   1.574   0.646   4.657 -0.3764 -0.4334  0.9307
11633TIP3   OH256313   5.120   5.243  12.760 -0.1532 -0.0122 -0.2287
11633TIP3    H156314   5.042   5.197  12.728  0.0258 -0.7559  0.3962
11633TIP3    H256315   5.085   5.307  12.822 -0.3399  0.2504 -0.5980
11634TIP3   OH256316   5.556   2.988  16.948 -0.5401 -0.3223 -0.1916
11634TIP3    H156317   5.564   3.080  16.920 -0.9850 -0.4310 -0.6797
11634TIP3    H256318   5.647   2.961  16.963 -0.4168  0.2602  0.1691
11635TIP3   OH256319   1.349   2.282  11.257  0.7391 -0.4399 -0.7420
11635TIP3    H156320   1.375   2.247  11.172  0.5059  0.5601 -1.2451
11635TIP3    H256321   1.260   2.315  11.244  0.5768 -0.5681 -0.0241
11636TIP3   OH256322   4.519   2.669  13.126  0.5591  0.8103 -0.0824
11636TIP3    H156323   4.522   2.742  13.188 -1.2130  0.5322  0.3944
11636TIP3    H256324   4.494   2.593  13.179  1.6324 -0.0032 -0.6997
11637TIP3   OH256325   5.447   1.228  13.428  0.2900  0.3638  0.0589
11637TIP3    H156326   5.428   1.294  13.362  1.2667  1.4492  0.8309
11637TIP3    H256327   5.387   1.248  13.500  1.6005  1.3805  0.9072
11638TIP3   OH256328   4.408   3.082   3.708  0.2273 -0.7572  0.2813
11638TIP3    H156329   4.366   3.164   3.734  1.9408 -0.3587  1.9343
11638TIP3    H256330   4.459   3.056   3.784  1.1308 -2.4440 -0.8513
11639TIP3   OH256331   3.226   3.163   3.524  0.2724  0.1233  0.4445
11639TIP3    H156332   3.282   3.174   3.447  1.3162  0.2501  1.2049
11639TIP3    H256333   3.158   3.102   3.495 -0.2629  1.3486 -1.0332
11640TIP3   OH256334   1.019   2.269  11.541  0.3890  0.3547 -0.4357
11640TIP3    H156335   1.008   2.223  11.457  0.3641  0.2583 -0.3801
11640TIP3    H256336   1.074   2.344  11.520  0.7732  0.0695 -0.4452
11641TIP3   OH256337   3.499   2.198   5.270  0.1140  0.7126 -0.1349
11641TIP3    H156338   3.462   2.168   5.187 -0.8610  1.4733  0.0144
11641TIP3    H256339   3.561   2.129   5.294  0.2732  0.3826 -1.3922
11642TIP3   OH256340   2.920   0.226   4.978  0.4544  0.3531 -0.9310
11642TIP3    H156341   3.008   0.261   4.994  1.0877 -2.4535  3.3712
11642TIP3    H256342   2.865   0.266   5.046  0.0475 -2.5888  0.6733
11643TIP3   OH256343   5.452   5.602  14.226 -0.2128 -0.3293 -0.0876
11643TIP3    H156344   5.488   5.604  14.314 -2.6189  1.9556  0.9938
11643TIP3    H256345   5.528   5.607  14.168  1.3625 -0.7520  1.8512
11644TIP3   OH256346   5.205   1.030   5.432  0.1951 -0.4780 -0.4403
11644TIP3    H156347   5.210   1.057   5.524 -5.1281  0.6064 -0.1238
11644TIP3    H256348   5.236   1.106   5.383 -1.4717  0.9369  0.5640
11645TIP3   OH256349   5.582   0.691  15.660  0.3180 -0.0986 -0.6970
11645TIP3    H156350   5.515   0.757  15.644 -0.5542 -0.4459  1.2332
11645TIP3    H256351   5.665   0.738  15.651 -0.2808  1.3250  0.7866
11646TIP3   OH256352   4.019   4.130   0.052 -0.2471 -0.2055  0.2591
11646TIP3    H156353   4.025   4.035   0.060  0.6165 -0.2544 -0.7877
11646TIP3    H256354   4.088   4.163   0.111 -0.9502 -0.1937  1.0912
11647TIP3   OH256355   5.162   4.890  16.486 -0.5825  0.4049  0.2696
11647TIP3    H156356   5.207   4.940  16.555 -1.7070  0.8293  0.7167
11647TIP3    H256357   5.224   4.890  16.413  1.4222 -1.6090  1.8335
11648TIP3   OH256358   2.979   1.627  15.865  0.6720 -0.2200  0.0329
11648TIP3    H156359   3.017   1.691  15.804  0.5091  0.2465  0.4138
11648TIP3    H256360   3.027   1.641  15.947  0.2205 -0.1712  0.2898
11649TIP3   OH256361   6.270   5.840  12.062  0.1587  0.0308  0.4704
11649TIP3    H156362   6.279   5.898  11.987  0.8603 -1.2982 -0.5236
11649TIP3    H256363   6.189   5.792  12.047  0.2453 -0.1648  0.6174
11650TIP3   OH256364   2.448   1.711   3.900  0.1093 -0.0965  0.1043
11650TIP3    H156365   2.497   1.691   3.980  0.2515  1.0180  0.3112
11650TIP3    H256366   2.358   1.686   3.920  0.2214 -0.2390  0.4429
11651TIP3   OH256367   1.616   6.376   3.227  1.0072 -0.8059 -0.0834
11651TIP3    H156368   1.553   6.349   3.294 -0.0359 -1.2783 -1.2195
11651TIP3    H256369   1.616   6.471   3.232 -0.5255 -0.7426 -0.6789
11652TIP3   OH256370   4.680   6.409  12.234  0.2795 -0.3819 -0.3399
11652TIP3    H156371   4.677   6.504  12.231  0.1945 -0.4045 -1.3409
11652TIP3    H256372   4.718   6.384  12.150  0.1647 -1.2387 -0.1451
11653TIP3   OH256373   0.557   4.058   3.053  0.4209  0.5247 -0.3890
11653TIP3    H156374   0.482   4.010   3.090  0.2776  0.9865 -0.0587
11653TIP3    H256375   0.518   4.114   2.986  0.7159 -0.4801 -1.4111
11654TIP3   OH256376   0.634   4.658  15.802  0.4576 -0.3455 -0.3572
11654TIP3    H156377   0.584   4.739  15.815  0.9780 -0.2564  1.2457
11654TIP3    H256378   0.671   4.667  15.714 -0.1498  0.7912 -0.5187
11655TIP3   OH256379   4.536   4.944   0.853 -0.4949 -0.1275  0.0868
11655TIP3    H156380   4.470   5.010   0.873  0.2335  1.1824 -1.5650
11655TIP3    H256381   4.506   4.905   0.770  0.4913  0.1034 -0.3933
11656TIP3   OH256382   0.941   6.782  12.677 -0.3498  0.2895  0.3783
11656TIP3    H156383   1.010   6.848  12.685 -0.4168  0.3609  0.3775
11656TIP3    H256384   0.926   6.752  12.767  0.7659 -0.8614  0.2100
11657TIP3   OH256385   4.469   1.846   2.873  0.4380 -0.2016 -0.0667
11657TIP3    H156386   4.426   1.925   2.905  0.7224 -0.4298  0.9100
11657TIP3    H256387   4.525   1.876   2.802 -0.8089  0.1982 -0.9248
11658TIP3   OH256388   3.795   3.256   1.123  0.4686 -0.4786 -0.1082
11658TIP3    H156389   3.780   3.326   1.186  1.8201 -1.8560  1.8512
11658TIP3    H256390   3.813   3.179   1.177 -1.6946 -2.5682 -2.1394
11659TIP3   OH256391   5.007   2.438   6.951  0.4552 -0.3623 -0.0221
11659TIP3    H156392   5.010   2.525   6.912 -1.2345 -0.3425 -0.1741
11659TIP3    H256393   4.972   2.452   7.039 -1.5972 -1.0504 -0.6796
11660TIP3   OH256394   6.641   2.392   3.780  0.0466  0.5135 -0.2568
11660TIP3    H156395   6.652   2.313   3.727  1.7106 -0.0247  0.8123
11660TIP3    H256396   6.726   2.405   3.821 -0.3872  2.5166  0.1001
11661TIP3   OH256397   5.164   3.573   2.210 -0.4872  0.0751  0.3563
11661TIP3    H156398   5.234   3.631   2.181 -1.7792  1.1097 -0.8840
11661TIP3    H256399   5.154   3.592   2.303  1.6117 -0.9547  0.8524
11662TIP3   OH256400   1.011   5.795   0.893 -0.1751 -0.0901  0.0952
11662TIP3    H156401   1.073   5.761   0.828 -2.1102 -0.3530 -1.7175
11662TIP3    H256402   1.026   5.740   0.970  0.1501 -1.8294 -1.1386
11663TIP3   OH256403   1.845   2.286   3.165  0.4623 -0.7575  0.3882
11663TIP3    H156404   1.911   2.351   3.139  0.8923 -1.0969  0.6048
11663TIP3    H256405   1.897   2.211   3.194 -0.0281 -1.5626 -0.7437
11664TIP3   OH256406   6.021   1.747   1.975  0.5746  0.1729  0.0908
11664TIP3    H156407   6.041   1.775   1.886  0.9969 -1.8507 -0.5157
11664TIP3    H256408   5.996   1.655   1.966  3.9870 -1.2047  2.3555
11665TIP3   OH256409   2.806   1.916  14.341  0.7752  0.2958 -0.3923
11665TIP3    H156410   2.849   1.981  14.396  1.9576 -0.1484 -0.7522
11665TIP3    H256411   2.780   1.846  14.401 -0.0462  0.8723 -0.0766
11666TIP3   OH256412   3.138   4.387   1.410 -0.4702  0.1160 -0.4552
11666TIP3    H156413   3.088   4.322   1.460 -0.1940  0.3890  0.1936
11666TIP3    H256414   3.098   4.470   1.434  1.3091  0.5139  1.3794
11667TIP3   OH256415   4.938   4.869  11.350 -0.7474  0.6037  0.2650
11667TIP3    H156416   4.946   4.898  11.259  0.2319  0.2501  0.2260
11667TIP3    H256417   4.964   4.945  11.402 -0.2431  0.4734  0.2128
11668TIP3   OH256418   5.280   6.608   4.088  0.2144  0.4476  0.1905
11668TIP3    H156419   5.278   6.701   4.110 -2.2282  0.2821  0.9418
11668TIP3    H256420   5.248   6.604   3.998 -0.0930  0.3056  0.3057
11669TIP3   OH256421   1.890   0.939   2.324  0.0734 -0.3885 -0.7577
11669TIP3    H156422   1.912   1.014   2.379 -0.3322 -0.7977 -0.0281
11669TIP3    H256423   1.812   0.967   2.275  0.2370 -0.1462 -0.8821
11670TIP3   OH256424   2.966   2.717   2.357  0.2474  0.1031  0.1856
11670TIP3    H156425   2.996   2.707   2.266 -0.2707  1.4504 -0.1576
11670TIP3    H256426   3.028   2.779   2.396 -0.5745  0.9469  0.1994
11671TIP3   OH256427   4.230   2.468   5.648 -0.6447  0.3351  0.2395
11671TIP3    H156428   4.154   2.518   5.620 -1.0563  0.7161  1.9024
11671TIP3    H256429   4.269   2.521   5.718 -1.2445 -1.7412  2.2780
11672TIP3   OH256430   6.392   2.124  15.134 -0.9131 -0.1105  0.6440
11672TIP3    H156431   6.456   2.131  15.063  0.6953 -0.9611  1.9493
11672TIP3    H256432   6.379   2.215  15.163  0.6817 -0.0184  1.1679
11673TIP3   OH256433   4.836   1.791   2.763 -0.3902 -0.2343  0.0155
11673TIP3    H156434   4.807   1.700   2.762  0.4009 -0.4993 -1.2198
11673TIP3    H256435   4.925   1.788   2.729  0.0365  0.8854  1.0010
11674TIP3   OH256436   1.413   6.135  16.576  0.3759 -0.2885 -0.4174
11674TIP3    H156437   1.417   6.075  16.502  1.1507  0.3057 -0.8747
11674TIP3    H256438   1.456   6.088  16.648  0.4294 -0.5200 -0.6030
11675TIP3   OH256439   1.475   6.775  15.848  0.0318  0.0847 -0.0082
11675TIP3    H156440   1.396   6.744  15.893  1.0142 -0.9575  1.0951
11675TIP3    H256441   1.484   6.866  15.875 -1.0789  0.3829 -0.5940
11676TIP3   OH256442   2.830   5.632  15.575  0.1197  0.3434  0.0904
11676TIP3    H156443   2.769   5.692  15.533 -0.8373 -0.4415  0.3269
11676TIP3    H256444   2.844   5.669  15.662 -0.4503  0.2379  0.2292
11677TIP3   OH256445   5.872   0.622  16.568  0.1228 -0.2179 -0.7123
11677TIP3    H156446   5.887   0.702  16.618  1.4026 -0.4725 -0.6396
11677TIP3    H256447   5.875   0.650  16.476 -0.7058  0.0107 -0.6719
11678TIP3   OH256448   6.215   2.704   0.901  0.2052  0.0621 -0.1991
11678TIP3    H156449   6.308   2.699   0.878  0.0889 -0.9066 -0.5022
11678TIP3    H256450   6.213   2.693   0.996  0.3287 -1.3158 -0.3286
11679TIP3   OH256451   2.243   5.071   4.875  0.1175  0.4988 -0.9441
11679TIP3    H156452   2.287   5.084   4.959  0.2470 -3.2195 -0.2568
11679TIP3    H256453   2.154   5.101   4.889 -0.1865 -1.0885  0.9777
11680TIP3   OH256454   0.655   3.182  13.888 -0.0126  0.0652 -0.2564
11680TIP3    H156455   0.653   3.114  13.956  1.5492 -0.1604 -0.4051
11680TIP3    H256456   0.692   3.138  13.812  0.8706  1.0445 -0.4058
11681TIP3   OH256457   0.278   5.975  10.668  0.3747 -0.2835  0.0809
11681TIP3    H156458   0.274   5.885  10.700  1.5351 -0.6203 -0.6710
11681TIP3    H256459   0.215   5.977  10.596 -0.4929 -0.1680  0.8276
11682TIP3   OH256460   5.599   3.209  16.724 -0.2348  0.3039 -0.4416
11682TIP3    H156461   5.677   3.240  16.678 -0.2991  0.4647 -0.4454
11682TIP3    H256462   5.553   3.156  16.659 -0.6165  1.0030 -0.7539
11683TIP3   OH256463   0.263   4.450  12.730  0.3327 -0.8258 -0.4922
11683TIP3    H156464   0.182   4.493  12.704  0.8017 -0.7287 -1.9147
11683TIP3    H256465   0.247   4.357  12.714  0.5741 -0.7806 -1.0329
11684TIP3   OH256466   0.292   5.717  15.020  0.0338 -0.2262 -0.2865
11684TIP3    H156467   0.236   5.762  14.956  0.5542 -0.0717 -0.6410
11684TIP3    H256468   0.241   5.641  15.047 -1.7553  1.5490  1.8230
11685TIP3   OH256469   6.416   2.302  12.898  0.2415 -0.2654  0.5658
11685TIP3    H156470   6.340   2.304  12.840 -1.2965  0.0972  2.4792
11685TIP3    H256471   6.428   2.394  12.924  1.7932 -0.2117 -0.2295
11686TIP3   OH256472   6.703   5.240  14.571  0.6968  0.0339 -0.2253
11686TIP3    H156473   6.661   5.231  14.657 -0.6669  0.8378 -0.7750
11686TIP3    H256474   6.766   5.311  14.584  0.5636  0.0905  0.1441
11687TIP3   OH256475   6.078   4.602  11.145 -0.3055  0.4109 -0.4616
11687TIP3    H156476   6.060   4.691  11.114  0.9500  0.0477 -2.3887
11687TIP3    H256477   6.160   4.610  11.194  0.4269  0.1557 -1.6138
11688TIP3   OH256478   6.173   4.877  12.421 -0.2359  0.1591  0.0408
11688TIP3    H156479   6.161   4.894  12.328 -0.9548 -0.3631  0.0327
11688TIP3    H256480   6.229   4.948  12.451  1.1927 -0.4315 -1.0825
11689TIP3   OH256481   1.635   2.042  16.644 -0.1264  0.2942  0.1635
11689TIP3    H156482   1.604   1.999  16.723  1.7078 -1.7275 -0.1176
11689TIP3    H256483   1.719   2.082  16.669  1.0688 -1.3741 -0.9624
11690TIP3   OH256484   1.802   6.229  14.849 -0.3048  0.1345 -0.0811
11690TIP3    H156485   1.853   6.298  14.892  0.6579 -1.3874  1.3401
11690TIP3    H256486   1.862   6.194  14.783 -0.9771  0.9651 -1.1565
11691TIP3   OH256487   4.948   0.725  13.879 -0.1033  0.2002  0.2676
11691TIP3    H156488   4.856   0.754  13.874 -0.1721 -0.0100  0.3061
11691TIP3    H256489   4.996   0.791  13.828 -0.4296 -0.3721 -0.8163
11692TIP3   OH256490   1.400   1.209   5.094  0.1298 -0.1252 -0.2219
11692TIP3    H156491   1.466   1.189   5.160 -0.4716 -1.1981  0.0677
11692TIP3    H256492   1.432   1.166   5.014 -1.5114 -3.0410  0.5684
11693TIP3   OH256493   3.401   3.337  14.148 -0.2342  0.1690 -0.1542
11693TIP3    H156494   3.397   3.257  14.096  2.0231  0.8246 -1.4608
11693TIP3    H256495   3.444   3.401  14.092  0.1541  1.6282  1.6822
11694TIP3   OH256496   1.441   4.546   1.085 -0.3285  0.2541 -0.5352
11694TIP3    H156497   1.494   4.469   1.105 -1.8489 -0.4725  0.9740
11694TIP3    H256498   1.499   4.602   1.034  1.8269 -0.5980  0.8100
11695TIP3   OH256499   1.792   5.152   1.499 -0.4294 -0.3137 -0.1503
11695TIP3    H156500   1.859   5.109   1.553  0.8809  0.8496 -0.7694
11695TIP3    H256501   1.819   5.133   1.409 -0.3779  0.9412 -0.4174
11696TIP3   OH256502   6.232   5.443  16.294 -0.1697 -0.2612  0.4953
11696TIP3    H156503   6.271   5.522  16.256  1.0577 -1.4772 -0.9256
11696TIP3    H256504   6.302   5.379  16.292 -1.7087 -2.0203 -0.4392
11697TIP3   OH256505   2.749   3.045   0.427  0.3572  0.3840 -0.7099
11697TIP3    H156506   2.769   3.129   0.386  0.6356  0.4404 -0.4665
11697TIP3    H256507   2.814   3.037   0.497 -0.7372  0.7814  0.3934
11698TIP3   OH256508   4.001   0.903   5.318 -0.1664 -0.3651 -0.2021
11698TIP3    H156509   4.033   0.813   5.327 -1.8323 -0.9652  0.0407
11698TIP3    H256510   3.995   0.935   5.408  1.0357  0.2548 -0.3117
11699TIP3   OH256511   0.084   5.401   1.254 -0.2736  0.5085 -0.2517
11699TIP3    H156512   0.040   5.450   1.323  0.4858  2.2426 -0.9602
11699TIP3    H256513   0.023   5.403   1.180  0.3165  1.5822 -0.7252
11700TIP3   OH256514   1.150   1.453  13.393 -0.4088 -0.1200 -0.2132
11700TIP3    H156515   1.236   1.435  13.357  0.4428  1.0102  1.1463
11700TIP3    H256516   1.160   1.535  13.441 -1.6819 -0.9756  1.6936
11701TIP3   OH256517   1.453   5.441  13.630  0.0035 -0.4143 -0.5235
11701TIP3    H156518   1.403   5.492  13.567 -0.5879  2.2012  1.8468
11701TIP3    H256519   1.544   5.454  13.604 -0.0656  2.6323  0.3625
11702TIP3   OH256520   1.227   0.555  15.523  0.2530 -0.0239 -0.0603
11702TIP3    H156521   1.261   0.622  15.464 -0.4992 -1.3616 -2.1021
11702TIP3    H256522   1.257   0.472  15.486 -0.7772 -0.9535  1.0899
11703TIP3   OH256523   4.552   0.417   6.798  0.0797 -0.3427  0.1297
11703TIP3    H156524   4.568   0.329   6.764  0.3457  0.7256 -2.8138
11703TIP3    H256525   4.634   0.464   6.782 -0.4805  0.7824  0.4806
11704TIP3   OH256526   5.058   0.719  10.537  0.0362 -0.0408 -0.1900
11704TIP3    H156527   4.993   0.784  10.511  0.6908 -0.3929 -3.1222
11704TIP3    H256528   5.142   0.756  10.507  0.4762 -1.9409 -1.5264
11705TIP3   OH256529   6.293   2.074  14.041  0.3010  0.5016 -0.0596
11705TIP3    H156530   6.236   2.008  14.002  0.3376 -1.0839  2.4156
11705TIP3    H256531   6.233   2.143  14.070  0.0574  0.6017 -0.7654
11706TIP3   OH256532   4.744   1.408  15.131  0.1418 -0.0531 -0.4526
11706TIP3    H156533   4.811   1.456  15.180 -0.2583 -0.6614  0.7039
11706TIP3    H256534   4.730   1.461  15.052  1.7890  0.2232 -0.5950
11707TIP3   OH256535   3.673   5.145   4.209 -0.0046 -0.2479  0.1148
11707TIP3    H156536   3.611   5.073   4.199 -1.2083  0.6991  0.3703
11707TIP3    H256537   3.633   5.218   4.161  0.1135  0.8462  1.5941
11708TIP3   OH256538   1.791   1.157   2.733 -0.2427 -0.2841  0.1842
11708TIP3    H156539   1.826   1.189   2.816 -1.7820 -0.1789  0.8326
11708TIP3    H256540   1.859   1.178   2.669  0.5186  0.6143  1.2385
11709TIP3   OH256541   3.954   2.039   6.081 -0.0753  0.0022  0.1689
11709TIP3    H156542   4.035   2.086   6.098 -0.2398 -0.2321  1.7698
11709TIP3    H256543   3.896   2.064   6.153 -2.1100  1.5528 -1.8209
11710TIP3   OH256544   2.375   1.511   0.385 -0.6848  0.3769  0.0155
11710TIP3    H156545   2.399   1.511   0.478 -1.4164 -0.5992  0.2230
11710TIP3    H256546   2.443   1.459   0.343 -2.1115 -2.0908  0.5514
11711TIP3   OH256547   1.720   0.784  17.197  0.0031  0.3148 -0.1558
11711TIP3    H156548   1.711   0.844  17.272  0.9379 -0.4498  0.5929
11711TIP3    H256549   1.739   0.699  17.237 -2.0696 -0.6851 -1.1689
11712TIP3   OH256550   1.412   3.359   4.241 -0.2468  0.2825  0.2216
11712TIP3    H156551   1.434   3.450   4.223  0.3645  0.1318  0.1595
11712TIP3    H256552   1.492   3.322   4.279 -0.6101 -0.1268  0.6136
11713TIP3   OH256553   3.805   4.425  13.336 -0.0786  0.2687  0.1413
11713TIP3    H156554   3.724   4.375  13.335 -0.1431  0.3703  0.2645
11713TIP3    H256555   3.832   4.429  13.244 -0.1656  0.1590  0.1108
11714TIP3   OH256556   5.155   2.676   2.501 -0.3596 -0.1356 -0.0838
11714TIP3    H156557   5.223   2.666   2.434 -0.7750 -0.9855 -0.4013
11714TIP3    H256558   5.200   2.660   2.584  0.0841  0.5675 -0.1811
11715TIP3   OH256559   5.157   5.968   2.543 -0.4037 -0.2540  0.0406
11715TIP3    H156560   5.074   6.012   2.563  0.3353  0.5415  1.5480
11715TIP3    H256561   5.186   5.932   2.627  1.5238  0.8437 -0.0932
11716TIP3   OH256562   6.509   4.530  10.558 -0.0092 -0.0920 -0.1693
11716TIP3    H156563   6.592   4.504  10.597 -0.0911  0.0298  0.0812
11716TIP3    H256564   6.477   4.450  10.515 -0.0342 -0.2849  0.2087
11717TIP3   OH256565   4.977   4.929   4.477 -0.4074  0.3835  0.3486
11717TIP3    H156566   5.039   4.954   4.407 -0.8855 -1.3066 -0.7434
11717TIP3    H256567   5.017   4.852   4.517 -0.2345  1.2337  1.8727
11718TIP3   OH256568   3.836   4.855   4.904  0.5578 -0.4626 -0.4325
11718TIP3    H156569   3.752   4.813   4.886 -0.6851  1.6846 -0.1086
11718TIP3    H256570   3.857   4.830   4.994 -0.1488 -0.4003 -0.2455
11719TIP3   OH256571   0.310   6.604  17.125  0.0822  0.0087 -0.0270
11719TIP3    H156572   0.326   6.554  17.205  0.7622 -0.4678 -0.4557
11719TIP3    H256573   0.352   6.553  17.056 -1.7996 -0.4070 -0.9360
11720TIP3   OH256574   3.192   0.345   6.537 -0.5233  0.7058  0.0684
11720TIP3    H156575   3.141   0.377   6.463 -0.3572 -0.4289 -0.5629
11720TIP3    H256576   3.281   0.337   6.504 -0.2569  1.0842  0.6744
11721TIP3   OH256577   5.418   2.138   0.220  0.6428  0.5869 -0.3122
11721TIP3    H156578   5.324   2.142   0.202  0.8340  2.1829 -1.1131
11721TIP3    H256579   5.445   2.052   0.187 -0.2533  0.7935 -1.6593
11722TIP3   OH256580   0.941   1.447   2.873  0.1470 -0.0805  0.0410
11722TIP3    H156581   0.916   1.539   2.879 -1.9842 -0.5174 -1.0453
11722TIP3    H256582   1.020   1.447   2.819 -0.1857  1.0548 -0.4792
11723TIP3   OH256583   2.232   1.222  16.172  0.5173 -0.0367  0.2336
11723TIP3    H156584   2.273   1.173  16.101 -0.6986 -0.2882 -0.3276
11723TIP3    H256585   2.250   1.171  16.251 -1.9479 -2.2834 -0.5009
11724TIP3   OH256586   2.313   5.984  14.235  0.4014 -0.4927 -0.5710
11724TIP3    H156587   2.318   6.055  14.299 -1.0237  0.4694 -1.4670
11724TIP3    H256588   2.327   5.904  14.287 -1.3881  0.1940  1.1119
11725TIP3   OH256589   3.893   6.639  14.998 -0.0011 -0.3193 -0.1346
11725TIP3    H156590   3.846   6.625  15.080  0.1923 -0.6841 -0.0832
11725TIP3    H256591   3.984   6.654  15.025  0.2509 -1.4107 -0.3296
11726TIP3   OH256592   5.077   5.957  17.192  0.3097  0.4316 -0.5971
11726TIP3    H156593   5.057   6.035  17.244  0.3789 -0.9518  1.6310
11726TIP3    H256594   5.109   5.992  17.109 -1.4744  2.7548 -0.4242
11727TIP3   OH256595   1.496   2.532   3.960  0.5590 -0.1888 -0.3406
11727TIP3    H156596   1.510   2.608   4.016 -0.2809 -1.6851  2.0306
11727TIP3    H256597   1.414   2.551   3.914  1.3994  1.1759 -1.3573
11728TIP3   OH256598   5.815   2.378  13.487  0.0242 -0.0160 -0.4611
11728TIP3    H156599   5.777   2.290  13.495  0.6622 -0.1734  0.9716
11728TIP3    H256600   5.793   2.421  13.569 -0.3980  1.2360 -1.2049
11729TIP3   OH256601   5.810   1.209   4.305  0.0652 -0.0887 -0.3573
11729TIP3    H156602   5.830   1.163   4.387 -2.7483 -1.3585 -0.2867
11729TIP3    H256603   5.863   1.165   4.239 -0.3396 -1.4820  0.2168
11730TIP3   OH256604   5.694   5.514   6.166  0.0351 -0.0779  0.1972
11730TIP3    H156605   5.773   5.460   6.166 -0.0184 -0.1906 -1.4467
11730TIP3    H256606   5.664   5.511   6.257  2.2458  0.4863  1.0131
11731TIP3   OH256607   4.539   3.480   1.270 -0.3682  0.2349 -0.0926
11731TIP3    H156608   4.575   3.477   1.181 -0.2933  0.9051 -0.0921
11731TIP3    H256609   4.449   3.510   1.259 -0.1919  0.8622  0.0904
11732TIP3   OH256610   3.386   3.883   5.604 -0.2029  0.2058  1.1381
11732TIP3    H156611   3.452   3.930   5.654  0.1473 -0.4803  1.3285
11732TIP3    H256612   3.434   3.847   5.529 -0.6072  0.7421  0.6114
11733TIP3   OH256613   1.518   2.827   3.205  0.7813  0.1716  0.1783
11733TIP3    H156614   1.485   2.795   3.290  0.1955  0.3294  0.0171
11733TIP3    H256615   1.611   2.807   3.207  0.5868 -0.7740  0.4331
11734TIP3   OH256616   4.093   1.060   3.723 -0.2930 -0.7569 -0.2129
11734TIP3    H156617   4.029   1.019   3.782 -1.9126  1.2737 -0.4420
11734TIP3    H256618   4.154   1.104   3.782 -0.6980 -0.4558 -0.0098
11735TIP3   OH256619   2.614   3.411   2.886 -0.0877 -0.3363  0.0388
11735TIP3    H156620   2.593   3.408   2.793 -2.0399 -1.1433  0.4635
11735TIP3    H256621   2.661   3.494   2.897 -0.7785  0.2953 -1.4801
11736TIP3   OH256622   2.282   1.249  15.420  0.0745 -0.3202  0.3261
11736TIP3    H156623   2.251   1.164  15.388  2.7235 -1.3663  0.2340
11736TIP3    H256624   2.308   1.232  15.510  1.0511  0.2477  0.1664
11737TIP3   OH256625   1.723   6.597   2.502  0.0881  0.3301 -0.5911
11737TIP3    H156626   1.806   6.584   2.548 -0.4785  0.8588  0.6318
11737TIP3    H256627   1.732   6.682   2.460  0.2283  0.3220 -0.5788
11738TIP3   OH256628   5.177   5.856   0.153  0.7330 -0.1021  0.1652
11738TIP3    H156629   5.145   5.871   0.064 -0.5217  1.8231  0.8700
11738TIP3    H256630   5.191   5.761   0.158 -3.3306 -0.9345 -0.7973
11739TIP3   OH256631   3.788   5.827   3.725 -0.0984  0.1224  0.2288
11739TIP3    H156632   3.804   5.789   3.639 -0.7889  1.1832 -0.3824
11739TIP3    H256633   3.709   5.782   3.756  0.4723 -0.6671  0.5699
11740TIP3   OH256634   6.790   1.186  14.608  0.1696  0.5872  0.1413
11740TIP3    H156635   6.878   1.163  14.637 -0.4743 -2.0454  0.2544
11740TIP3    H256636   6.764   1.259  14.666  1.6626  0.3438  1.1726
11741TIP3   OH256637   5.987   1.572   0.109 -0.5123 -0.8100 -0.3774
11741TIP3    H156638   5.899   1.576   0.149  0.0125  0.7565  0.7476
11741TIP3    H256639   6.037   1.517   0.168  0.0978  1.0070  0.9087
11742TIP3   OH256640   2.681   1.443  11.506  0.0923  0.1486 -0.1503
11742TIP3    H156641   2.770   1.426  11.536 -0.1925  0.2762  0.8051
11742TIP3    H256642   2.678   1.409  11.416  0.3353 -2.3750  0.7122
11743TIP3   OH256643   3.777   0.215  17.013  0.9399 -0.0398  0.1582
11743TIP3    H156644   3.806   0.306  17.020  0.8770  0.0364 -0.4649
11743TIP3    H256645   3.806   0.188  16.926 -0.0277 -0.2590 -0.1061
11744TIP3   OH256646   2.148   4.486   0.315 -0.1747  0.6364 -0.1851
11744TIP3    H156647   2.184   4.569   0.347 -0.4111  1.6962 -2.4415
11744TIP3    H256648   2.053   4.497   0.322 -0.2719  1.2684 -1.9687
11745TIP3   OH256649   2.946   0.635  16.321 -0.1668 -0.0954  0.2577
11745TIP3    H156650   2.899   0.577  16.381 -0.5865 -0.4388 -0.3953
11745TIP3    H256651   3.027   0.656  16.368 -0.6189 -0.1061  1.0726
11746TIP3   OH256652   2.621   1.032   0.969  0.0980  0.2773  0.4204
11746TIP3    H156653   2.652   1.117   0.999 -1.2928  1.5379 -1.5038
11746TIP3    H256654   2.531   1.026   1.000 -0.0712 -0.1440 -0.1369
11747TIP3   OH256655   4.832   6.043  16.829 -0.0280  0.3203 -0.6777
11747TIP3    H156656   4.804   6.127  16.793  0.0174 -0.3413 -2.3137
11747TIP3    H256657   4.911   6.021  16.780  1.3092  0.3875  1.3344
11748TIP3   OH256658   5.908   0.890  13.831 -0.2326 -0.1257 -0.6765
11748TIP3    H156659   5.950   0.814  13.871  0.9772  0.5663 -0.5792
11748TIP3    H256660   5.979   0.953  13.818 -0.7825  0.1297 -2.8563
11749TIP3   OH256661   5.801   1.520   6.842 -0.1266  0.3287 -0.5153
11749TIP3    H156662   5.754   1.571   6.777 -1.0539  0.5185  0.2918
11749TIP3    H256663   5.755   1.536   6.924  1.9843  1.3950  0.5280
11750TIP3   OH256664   4.916   4.137   4.552  0.5551 -0.3678  0.5023
11750TIP3    H156665   4.915   4.232   4.552 -2.0134 -0.3100  1.2492
11750TIP3    H256666   4.830   4.112   4.586  0.4371 -2.9607 -1.3552
11751TIP3   OH256667   4.644   2.857   3.118  0.1379 -0.0483 -0.3280
11751TIP3    H156668   4.552   2.874   3.137  0.7041  2.5043  0.5327
11751TIP3    H256669   4.660   2.768   3.150 -1.4402  0.3967  1.8504
11752TIP3   OH256670   5.686   0.254  11.877  0.5109 -0.5601  0.1819
11752TIP3    H156671   5.752   0.301  11.928  1.2473  0.9681 -2.0359
11752TIP3    H256672   5.686   0.297  11.792 -1.2535 -2.4540 -0.8716
11753TIP3   OH256673   3.608   4.937  12.040 -0.2955  0.2242  0.0494
11753TIP3    H156674   3.519   4.973  12.031 -0.2427  0.1615 -0.7058
11753TIP3    H256675   3.666   5.011  12.020 -0.1669 -0.6565 -3.4468
11754TIP3   OH256676   1.412   1.092   0.027  0.2272 -0.6194 -0.5705
11754TIP3    H156677   1.453   1.125  -0.052 -0.0400 -1.1027 -0.9114
11754TIP3    H256678   1.330   1.052  -0.002 -0.7852  0.7944  0.1466
11755TIP3   OH256679   2.633   5.201   5.001  0.1671  0.3353 -0.5860
11755TIP3    H156680   2.724   5.178   5.016  0.2737  1.3828  0.5434
11755TIP3    H256681   2.604   5.239   5.084 -1.6042 -0.9192 -0.5567
11756TIP3   OH256682   5.070   5.644  17.155 -0.4151 -0.1303  0.1866
11756TIP3    H156683   5.037   5.729  17.184  1.2515  0.1659  1.3889
11756TIP3    H256684   5.164   5.659  17.141 -0.0628 -1.8067  0.5954
11757TIP3   OH256685   4.612   2.566  16.310 -0.7812 -0.2120 -0.6249
11757TIP3    H156686   4.600   2.653  16.270  0.3789 -0.5254 -1.7243
11757TIP3    H256687   4.563   2.507  16.252 -1.2595 -0.3416 -0.0907
11758TIP3   OH256688   4.439   6.609   4.498  0.4289 -0.0858 -0.7926
11758TIP3    H156689   4.412   6.698   4.476  1.1002  0.3974  0.2685
11758TIP3    H256690   4.434   6.561   4.415 -1.3871  0.5418 -1.0963
11759TIP3   OH256691   2.478   4.370   4.720 -1.0607 -0.4653  0.2539
11759TIP3    H156692   2.532   4.389   4.797 -0.6422 -0.2875 -0.0785
11759TIP3    H256693   2.391   4.400   4.744 -0.6907  0.6795  0.2270
11760TIP3   OH256694   1.867   2.178  13.552 -0.5307 -0.7576 -0.0246
11760TIP3    H156695   1.906   2.109  13.605  2.2108  0.2346 -0.5956
11760TIP3    H256696   1.852   2.137  13.466 -0.5476 -1.0716  0.1246
11761TIP3   OH256697   1.358   2.859   3.611 -0.4923  0.2339 -0.2033
11761TIP3    H156698   1.274   2.816   3.596 -0.4597  0.2249 -0.3653
11761TIP3    H256699   1.335   2.942   3.653 -0.4536 -0.6174  1.5538
11762TIP3   OH256700   0.182   5.679   4.088  0.6249 -0.5678  1.2936
11762TIP3    H156701   0.168   5.638   4.003  1.6739 -1.6586  1.6226
11762TIP3    H256702   0.094   5.698   4.121  0.1832 -1.1349  0.4481
11763TIP3   OH256703   3.425   2.646  15.492  0.2394 -0.9517  0.5331
11763TIP3    H156704   3.337   2.675  15.470  0.6656 -1.4295 -2.0764
11763TIP3    H256705   3.482   2.719  15.469  0.6277 -0.8753  1.6340
11764TIP3   OH256706   1.303   3.703   0.710 -0.0542 -0.2119  0.4398
11764TIP3    H156707   1.264   3.622   0.741 -2.1612  0.4627 -0.2508
11764TIP3    H256708   1.230   3.750   0.669  1.4482  1.3071 -0.6221
11765TIP3   OH256709   1.789   5.051   4.289 -0.1432 -0.1625 -0.2045
11765TIP3    H156710   1.839   4.969   4.289  0.7558  0.3623  0.5399
11765TIP3    H256711   1.718   5.036   4.228  0.2647 -1.3501 -0.4097
11766TIP3   OH256712   2.681   2.074  15.515  0.0710 -0.0155 -0.2461
11766TIP3    H156713   2.722   1.988  15.507 -0.7828 -0.4475 -0.1031
11766TIP3    H256714   2.730   2.130  15.454  0.6052 -0.6078 -0.3688
11767TIP3   OH256715   2.720   5.795   5.021  0.3208 -0.4035  0.0189
11767TIP3    H156716   2.737   5.748   5.103  2.8166 -1.2459 -0.8773
11767TIP3    H256717   2.802   5.789   4.973 -0.4143  1.8971 -1.6771
11768TIP3   OH256718   5.411   1.267   3.819  0.1300  0.2287 -0.7151
11768TIP3    H156719   5.422   1.175   3.795 -0.1007  0.0436 -0.1318
11768TIP3    H256720   5.394   1.265   3.913 -0.5838  0.8188 -0.8236
11769TIP3   OH256721   0.709   2.772  12.224 -0.0736  0.2806 -0.0900
11769TIP3    H156722   0.705   2.862  12.192  0.7024  1.8977  3.8040
11769TIP3    H256723   0.622   2.756  12.260  0.7720  0.9560  2.4625
11770TIP3   OH256724   1.239   5.708  13.090  0.0864 -0.4178 -0.1816
11770TIP3    H156725   1.196   5.681  13.009  0.2660 -2.5078  0.3801
11770TIP3    H256726   1.204   5.796  13.107  0.0421  0.0780 -2.4821
11771TIP3   OH256727   6.605   5.432   0.361 -0.3352  0.8537 -0.1203
11771TIP3    H156728   6.692   5.464   0.382 -0.2901  0.4950  0.2573
11771TIP3    H256729   6.591   5.359   0.421 -0.8845  0.8911 -0.1949
11772TIP3   OH256730   4.006   5.982   3.636 -0.5066  0.1098 -0.0306
11772TIP3    H156731   3.925   5.943   3.670  0.5230 -1.7115  0.4583
11772TIP3    H256732   3.988   5.998   3.543 -1.6304  0.2998  0.2123
11773TIP3   OH256733   3.181   2.312   4.951  0.1651  1.2731  0.1820
11773TIP3    H156734   3.126   2.341   5.024 -1.4708 -0.5414 -0.2742
11773TIP3    H256735   3.214   2.226   4.978  0.0025  0.8310 -0.9724
11774TIP3   OH256736   4.497   5.451  16.777 -0.3864  0.2981 -0.0380
11774TIP3    H156737   4.412   5.480  16.810 -0.6015  0.2719 -0.5562
11774TIP3    H256738   4.483   5.358  16.755 -0.1540  0.2302  0.0974
11775TIP3   OH256739   0.200   6.259   4.692 -0.0619  0.4517 -0.4236
11775TIP3    H156740   0.238   6.193   4.634 -0.0558  1.3176 -1.4348
11775TIP3    H256741   0.241   6.341   4.665 -0.0363  0.8786  0.8468
11776TIP3   OH256742   5.219   0.960  13.166 -0.3833  0.3274 -0.2119
11776TIP3    H156743   5.226   0.914  13.082 -1.5242 -1.1836  0.4592
11776TIP3    H256744   5.308   0.958  13.202 -0.3231 -1.0886 -0.3742
11777TIP3   OH256745   5.125   4.975   2.334  0.1233 -0.1817 -0.8326
11777TIP3    H156746   5.208   4.998   2.291  0.0563  1.9315  0.0168
11777TIP3    H256747   5.101   4.891   2.297  3.1326 -1.3466 -0.4205
11778TIP3   OH256748   1.964   0.801   4.199 -0.0914  0.2869  0.1724
11778TIP3    H156749   2.017   0.736   4.245 -1.8485 -1.6113 -0.3529
11778TIP3    H256750   1.996   0.799   4.109 -1.7726 -1.7942 -0.4484
11779TIP3   OH256751   4.531   5.586  16.022 -0.1615  0.0399 -0.4306
11779TIP3    H156752   4.572   5.537  16.093 -0.2410  0.6131  0.0191
11779TIP3    H256753   4.437   5.577  16.038 -0.1697  0.6202 -0.1558
11780TIP3   OH256754   3.563   0.253   4.267 -1.0381 -0.0566 -0.0165
11780TIP3    H156755   3.557   0.201   4.347 -0.4739 -1.0940 -0.6171
11780TIP3    H256756   3.481   0.235   4.221 -1.2960  0.4174  0.2601
11781TIP3   OH256757   5.579   2.836   1.828  0.1220  0.0599  0.0659
11781TIP3    H156758   5.487   2.818   1.807  0.4575 -1.2097 -0.4216
11781TIP3    H256759   5.604   2.767   1.889  1.4211 -1.1878 -1.7547
11782TIP3   OH256760   0.367   0.170  14.273 -0.2837  0.5885 -0.6398
11782TIP3    H156761   0.456   0.201  14.260 -0.5357  1.2702 -0.8096
11782TIP3    H256762   0.324   0.242  14.321 -0.5156 -0.0789  0.1757
11783TIP3   OH256763   4.601   5.650  13.117  0.0101  0.5033 -0.4645
11783TIP3    H156764   4.518   5.603  13.121  0.2178 -0.0571 -1.9301
11783TIP3    H256765   4.578   5.739  13.090 -0.4048  1.4110  2.4933
11784TIP3   OH256766   6.148   6.217  17.008 -0.1676  0.4421 -0.5626
11784TIP3    H156767   6.129   6.257  17.093 -1.2902 -0.0130 -0.5876
11784TIP3    H256768   6.132   6.123  17.021  1.7006  0.0597 -0.7087
11785TIP3   OH256769   2.738   0.038   1.513  0.4289 -0.2314 -0.3951
11785TIP3    H156770   2.732   0.075   1.601 -0.8164 -0.5747 -0.3084
11785TIP3    H256771   2.787  -0.043   1.524  0.7021 -0.0276 -0.1008
11786TIP3   OH256772   3.029   5.470  14.421 -0.1230 -0.0074 -0.1721
11786TIP3    H156773   2.995   5.426  14.343  0.8712 -3.0682  0.9516
11786TIP3    H256774   2.953   5.484  14.477 -0.4061 -1.2154 -0.2161
11787TIP3   OH256775   3.338   6.732  13.193 -0.1988 -0.2207  0.0857
11787TIP3    H156776   3.329   6.824  13.216 -2.0005 -0.5431  0.8118
11787TIP3    H256777   3.366   6.733  13.101 -0.6934  1.0607 -0.0717
11788TIP3   OH256778   4.088   3.012  10.605  0.0302 -0.0814  0.9652
11788TIP3    H156779   4.060   3.059  10.683  0.2022 -0.1875  1.0916
11788TIP3    H256780   4.015   2.954  10.584 -0.0939  0.0855  0.9352
11789TIP3   OH256781   3.308   6.284  14.773  0.1485 -0.3376  0.0062
11789TIP3    H156782   3.285   6.311  14.684  0.6856  2.8928  0.7196
11789TIP3    H256783   3.380   6.222  14.761  0.4752  0.3259 -1.8121
11790TIP3   OH256784   5.197   2.475   4.781  0.2360 -0.3419 -0.1205
11790TIP3    H156785   5.149   2.470   4.698  0.3786 -1.1598 -0.1675
11790TIP3    H256786   5.242   2.560   4.778 -1.9739  0.9101  0.3734
11791TIP3   OH256787   2.635   3.514   1.278  0.2545 -0.2717 -0.3839
11791TIP3    H156788   2.554   3.539   1.323 -0.7476 -1.1582 -1.6440
11791TIP3    H256789   2.704   3.532   1.343 -1.1008 -1.3047  1.4538
11792TIP3   OH256790   4.527   4.744  13.302  0.3087  0.0181 -0.0808
11792TIP3    H156791   4.596   4.800  13.266 -0.8042  1.7711  0.3832
11792TIP3    H256792   4.494   4.694  13.228  0.5389  0.8516 -0.7546
11793TIP3   OH256793   2.528   5.263   0.624 -0.3188  0.0281 -0.1119
11793TIP3    H156794   2.577   5.306   0.694 -1.5012 -0.0311  0.7669
11793TIP3    H256795   2.568   5.297   0.543  1.4887 -0.3987  0.5610
11794TIP3   OH256796   2.831   3.451  12.711  0.6689  0.4010 -0.3331
11794TIP3    H156797   2.808   3.362  12.683  2.3802  0.5656 -2.5430
11794TIP3    H256798   2.777   3.466  12.788  0.6714 -2.7339  0.4398
11795TIP3   OH256799   4.684   3.736  16.380 -0.2599 -0.2194 -0.0504
11795TIP3    H156800   4.737   3.760  16.456 -2.2910 -0.7841  1.6265
11795TIP3    H256801   4.702   3.643  16.367 -2.9117 -1.2312  2.4405
11796TIP3   OH256802   0.280   4.398  11.374  0.0455  0.0041  0.4116
11796TIP3    H156803   0.345   4.390  11.443  1.1440  1.4524 -0.3865
11796TIP3    H256804   0.217   4.328  11.392  1.5813 -1.1916  1.4523
11797TIP3   OH256805   2.622   5.672   4.775 -0.0789 -0.0762  0.0422
11797TIP3    H156806   2.689   5.695   4.710  0.4478  0.0788  0.6298
11797TIP3    H256807   2.648   5.720   4.854 -0.9298  0.0467  0.2566
11798TIP3   OH256808   1.312   2.356  13.705  0.1329  0.1568  0.3579
11798TIP3    H156809   1.405   2.334  13.715  0.7627  1.2047 -2.2228
11798TIP3    H256810   1.292   2.409  13.782  1.2737 -1.2153  1.6551
11799TIP3   OH256811   2.304   4.995  11.653  0.0330 -0.3094  0.5584
11799TIP3    H156812   2.268   5.063  11.595 -1.9756 -1.0315  0.8703
11799TIP3    H256813   2.303   5.035  11.740  1.7738  0.2976  0.3384
11800TIP3   OH256814   1.731   0.625   2.415  0.3242  0.1059  0.0536
11800TIP3    H156815   1.720   0.535   2.386  2.1965  0.0898 -0.7196
11800TIP3    H256816   1.660   0.673   2.372  0.8341 -0.5732 -1.6270
11801TIP3   OH256817   1.017   3.131  15.584 -0.2193 -0.1883 -0.1347
11801TIP3    H156818   0.968   3.053  15.610  0.1809 -0.6278 -0.6933
11801TIP3    H256819   1.000   3.140  15.490  0.5004 -0.1483 -0.2624
11802TIP3   OH256820   3.317   6.083  16.928 -0.5797  0.1304  0.4434
11802TIP3    H156821   3.230   6.099  16.892 -0.3169  0.1567 -0.1800
11802TIP3    H256822   3.301   6.030  17.007 -1.1270 -0.2191  0.1026
11803TIP3   OH256823   5.659   5.948  16.789  0.2234  0.0258  0.5662
11803TIP3    H156824   5.573   5.909  16.782  1.1856 -2.5210  1.8309
11803TIP3    H256825   5.681   5.942  16.882  0.6570  3.3229  0.8177
11804TIP3   OH256826   6.536   1.771  13.176 -0.1791 -0.0444 -0.3672
11804TIP3    H156827   6.534   1.707  13.106 -1.7545  0.9162 -1.2663
11804TIP3    H256828   6.453   1.818  13.168 -1.2088 -0.9534  3.1525
11805TIP3   OH256829   4.286   5.464  14.872 -0.2380 -0.5028 -0.0566
11805TIP3    H156830   4.272   5.536  14.811  0.2488  0.8501  1.3662
11805TIP3    H256831   4.296   5.506  14.957  2.4545 -2.0512  0.4904
11806TIP3   OH256832   5.240   1.508  10.602 -0.1681  0.9072  0.0505
11806TIP3    H156833   5.172   1.571  10.625 -0.1976  0.1059  2.3909
11806TIP3    H256834   5.297   1.504  10.679  1.0061 -0.4142 -0.8226
11807TIP3   OH256835   4.881   5.821  13.016 -0.3424 -0.2490 -0.0286
11807TIP3    H156836   4.976   5.827  13.025 -0.3545 -0.3787  0.1818
11807TIP3    H256837   4.849   5.812  13.105 -0.5505 -0.2289 -0.1018
11808TIP3   OH256838   4.352   4.371  15.852  0.1112 -0.4813  0.2266
11808TIP3    H156839   4.369   4.282  15.884  0.6319 -0.2041  0.7335
11808TIP3    H256840   4.439   4.410  15.842 -0.1529  0.6390  1.9250
11809TIP3   OH256841   1.189   3.749   2.521  0.4181 -0.0477 -0.0951
11809TIP3    H156842   1.142   3.774   2.600  1.6409  2.5382 -0.0988
11809TIP3    H256843   1.141   3.792   2.450  1.9954  1.5965 -0.2210
11810TIP3   OH256844   1.576   4.728  11.483 -0.2970 -0.4958  0.3129
11810TIP3    H156845   1.571   4.706  11.576  0.7095 -0.5485  0.3620
11810TIP3    H256846   1.490   4.764  11.462 -1.4428 -2.7922  0.6714
11811TIP3   OH256847   0.240   5.392  12.327  0.4831 -0.1565 -0.1033
11811TIP3    H156848   0.190   5.370  12.405  2.5218 -1.4305  0.9521
11811TIP3    H256849   0.214   5.327  12.262 -2.1955  1.6877 -1.0579
11812TIP3   OH256850   4.558   0.595  15.722  0.2726  0.4053  0.0627
11812TIP3    H156851   4.533   0.509  15.758 -0.8671 -1.1977 -3.9801
11812TIP3    H256852   4.484   0.652  15.745 -0.8572 -0.7929 -0.4164
11813TIP3   OH256853   0.729   0.915   5.832  0.4510  0.2144 -0.5893
11813TIP3    H156854   0.638   0.907   5.860  0.7329 -0.0270  0.2925
11813TIP3    H256855   0.732   0.996   5.782 -0.6609 -0.7417 -2.3377
11814TIP3   OH256856   1.790   3.545   3.192 -0.3474 -0.3430  0.0351
11814TIP3    H156857   1.856   3.547   3.262 -1.0342 -2.8195  0.8620
11814TIP3    H256858   1.839   3.565   3.112  0.6117  1.7872  1.0683
11815TIP3   OH256859   6.025   2.828   3.139 -0.4836  0.0564 -0.4271
11815TIP3    H156860   6.105   2.786   3.110  0.5938 -0.0519  2.3864
11815TIP3    H256861   6.035   2.920   3.112  0.1302 -0.1445 -0.9064
11816TIP3   OH256862   0.897   0.455   1.514 -0.4177  0.6527 -0.3548
11816TIP3    H156863   0.872   0.548   1.509  2.1271  1.4789  0.7414
11816TIP3    H256864   0.876   0.430   1.604 -0.9025  0.2061 -0.5881
11817TIP3   OH256865   1.292   4.951   5.877  0.3590  0.1193  0.1957
11817TIP3    H156866   1.333   4.947   5.963 -0.3182 -0.9953  0.4913
11817TIP3    H256867   1.363   4.937   5.815  0.6690 -0.2337  0.6293
11818TIP3   OH256868   4.559   0.387  12.954  0.0592 -0.0280 -0.3096
11818TIP3    H156869   4.556   0.446  13.030  0.4564  0.1327 -0.4140
11818TIP3    H256870   4.632   0.329  12.972 -0.0011 -0.1492 -0.4558
11819TIP3   OH256871   1.118   5.420   0.563 -0.3014  0.1005 -0.5734
11819TIP3    H156872   1.036   5.376   0.541  0.6305 -1.4315 -1.1412
11819TIP3    H256873   1.146   5.463   0.482  0.0119 -0.3413 -0.7068
11820TIP3   OH256874   3.612   2.977   2.192  0.3906  0.1192 -0.2554
11820TIP3    H156875   3.664   3.048   2.153  1.1447 -0.6722 -0.7096
11820TIP3    H256876   3.663   2.898   2.175  0.0149 -0.4285  1.0485
11821TIP3   OH256877   5.008   6.339  11.920  0.5632  0.4375 -0.2232
11821TIP3    H156878   5.052   6.290  11.850 -1.6603  0.7751 -1.9651
11821TIP3    H256879   4.990   6.424  11.880  0.5543  1.1787  1.3133
11822TIP3   OH256880   3.768   6.039  12.171 -0.1218  0.8727  0.4298
11822TIP3    H156881   3.696   6.082  12.216 -3.1276 -2.6583 -0.4798
11822TIP3    H256882   3.744   6.043  12.078  1.1791  0.1357  0.0330
11823TIP3   OH256883   5.665   3.584   6.660 -0.7592  0.3964  0.9842
11823TIP3    H156884   5.704   3.509   6.615  2.0970  2.2629  0.1024
11823TIP3    H256885   5.664   3.558   6.752 -0.9322 -1.1173  0.5985
11824TIP3   OH256886   4.895   4.153   0.038  0.3621 -0.3483 -0.8268
11824TIP3    H156887   4.972   4.176   0.091 -0.3515  1.5072 -0.4947
11824TIP3    H256888   4.826   4.138   0.102  0.5312 -2.5451 -1.1029
11825TIP3   OH256889   6.654   6.291   5.346  0.2434  0.4785 -0.2750
11825TIP3    H156890   6.672   6.367   5.289  2.2092  0.1482 -0.1899
11825TIP3    H256891   6.668   6.215   5.290 -0.2791  0.1690  0.0121
11826TIP3   OH256892   1.423   4.971  11.259  0.6520  0.7742 -0.3601
11826TIP3    H156893   1.512   4.959  11.225 -0.0963 -0.9509 -1.9201
11826TIP3    H256894   1.378   4.890  11.236 -0.3627 -0.0467  3.7535
11827TIP3   OH256895   6.246   3.061   4.411  0.4524 -0.5506  0.1945
11827TIP3    H156896   6.154   3.081   4.394  0.3933 -0.6607  0.3800
11827TIP3    H256897   6.279   3.025   4.328  0.5205  0.1587 -0.0992
11828TIP3   OH256898   6.555   0.384   6.000 -0.5103 -0.1736  0.5024
11828TIP3    H156899   6.492   0.365   6.070 -1.2114  0.1192 -0.0306
11828TIP3    H256900   6.607   0.304   5.992 -1.6057 -0.8754  0.1530
11829TIP3   OH256901   3.104   0.068  12.198 -0.7586  0.0122 -0.0389
11829TIP3    H156902   3.181   0.060  12.142  0.3541  0.9478  1.2873
11829TIP3    H256903   3.094   0.162  12.211 -0.8196 -0.1807  1.5231
11830TIP3   OH256904   5.558   4.631  12.837 -0.0167  0.6790  0.5037
11830TIP3    H156905   5.590   4.719  12.818  0.3463  0.4626  0.0924
11830TIP3    H256906   5.480   4.644  12.890 -0.8389  1.2951 -0.8158
11831TIP3   OH256907   6.437   0.850  12.637  0.4480  0.0395 -0.5097
11831TIP3    H156908   6.477   0.850  12.724  0.7469  1.1772 -0.6349
11831TIP3    H256909   6.507   0.877  12.578  0.2670 -0.7923 -1.1372
11832TIP3   OH256910   2.919   5.412  11.065 -0.5616  0.1088  0.3501
11832TIP3    H156911   2.956   5.324  11.064 -0.8751 -0.2256 -4.0878
11832TIP3    H256912   2.992   5.469  11.039 -0.5277  1.1595  2.5161
11833TIP3   OH256913   2.132   3.666   3.176 -0.3695  0.2866  0.2951
11833TIP3    H156914   2.211   3.718   3.190 -0.8308  0.7978  1.0066
11833TIP3    H256915   2.061   3.719   3.211 -0.8601 -0.7993  0.9902
11834TIP3   OH256916   5.530   3.012   4.392  0.2293 -0.0532  0.1506
11834TIP3    H156917   5.556   2.992   4.302 -0.4894 -0.9569  0.1240
11834TIP3    H256918   5.482   2.934   4.420 -1.7007  1.1844  0.4592
11835TIP3   OH256919   6.575   6.118   4.809 -0.3467 -0.2293  0.2161
11835TIP3    H156920   6.487   6.138   4.840 -0.5667 -0.7737 -0.0353
11835TIP3    H256921   6.614   6.203   4.788 -0.8016  0.0136  0.3558
11836TIP3   OH256922   1.211   4.478  13.361 -0.2690 -0.2499 -0.3669
11836TIP3    H156923   1.253   4.452  13.443 -0.6036 -0.7117 -0.3385
11836TIP3    H256924   1.122   4.500  13.386 -0.6703 -1.3762 -0.7536
11837TIP3   OH256925   3.604   4.505  16.682 -0.0832 -0.5852 -0.3784
11837TIP3    H156926   3.570   4.522  16.770 -0.1705  0.8901 -0.6609
11837TIP3    H256927   3.685   4.457  16.697  0.3140  0.3314  0.5656
11838TIP3   OH256928   5.632   6.018   6.359 -0.3518 -0.3137 -0.1064
11838TIP3    H156929   5.672   5.950   6.414 -1.9082 -0.4927  0.8663
11838TIP3    H256930   5.551   5.978   6.328 -2.5052  1.8086  2.3550
11839TIP3   OH256931   1.515   0.400   0.054 -0.1236 -0.9399  0.2701
11839TIP3    H156932   1.433   0.449   0.063  0.8245  0.6155  0.9713
11839TIP3    H256933   1.582   0.468   0.049  1.1038 -2.1782 -0.6154
11840TIP3   OH256934   6.013   5.702  16.194 -0.0896 -0.1725 -0.1968
11840TIP3    H156935   5.993   5.702  16.101  0.3794 -1.5569 -0.3210
11840TIP3    H256936   6.052   5.616  16.211  1.8201  0.8181  0.8567
11841TIP3   OH256937   2.600   0.380  13.225 -0.2210 -0.5387 -0.0740
11841TIP3    H156938   2.647   0.432  13.291 -0.0670 -0.0529 -0.5499
11841TIP3    H256939   2.535   0.331  13.274  0.5781 -0.9857  0.5655
11842TIP3   OH256940   6.655   6.563   4.410 -0.4130 -0.2862  0.5584
11842TIP3    H156941   6.685   6.639   4.458  1.7293  0.9861 -2.5106
11842TIP3    H256942   6.701   6.489   4.451  0.8189  0.6300  0.8738
11843TIP3   OH256943   6.049   0.817   1.447 -0.3208  1.0214  0.4659
11843TIP3    H156944   5.981   0.838   1.383 -1.0057  1.0871  1.1875
11843TIP3    H256945   6.080   0.903   1.478 -0.9122  0.9941  1.1546
11844TIP3   OH256946   1.440   6.631   0.862 -0.0727 -0.1169 -0.4640
11844TIP3    H156947   1.362   6.661   0.815 -0.2716  0.7089  0.3601
11844TIP3    H256948   1.482   6.570   0.801 -0.9233  0.0431 -1.2478
11845TIP3   OH256949   2.538   3.018  12.148  0.3980 -0.1780  0.2370
11845TIP3    H156950   2.503   2.980  12.229 -1.3172  2.2015  0.6999
11845TIP3    H256951   2.613   3.070  12.177 -0.1714  0.6141  0.3056
11846TIP3   OH256952   5.128   4.161   0.756 -0.3174 -0.8293  0.2847
11846TIP3    H156953   5.095   4.073   0.736 -1.6612 -0.0689 -1.1043
11846TIP3    H256954   5.071   4.191   0.827  0.7507 -1.3942  1.4167
11847TIP3   OH256955   3.190   1.367   3.441 -0.2095  0.2746  0.6991
11847TIP3    H156956   3.176   1.281   3.401 -0.8643  1.1640 -1.0875
11847TIP3    H256957   3.118   1.376   3.503 -2.0230  0.7457 -1.3432
11848TIP3   OH256958   5.117   2.956  15.463 -0.0051  0.1494 -0.1229
11848TIP3    H156959   5.206   2.966  15.427  2.0763 -1.9133  3.8267
11848TIP3    H256960   5.114   2.866  15.494 -3.4500  0.2732  0.2004
11849TIP3   OH256961   3.502   0.737   6.171 -0.0371  0.4375 -0.1489
11849TIP3    H156962   3.574   0.735   6.107 -0.4902  0.4237 -0.6619
11849TIP3    H256963   3.502   0.827   6.203  0.2918  0.4057 -0.0479
11850TIP3   OH256964   3.432   1.971  16.784 -0.9339 -0.0819  0.0930
11850TIP3    H156965   3.364   1.966  16.851 -0.3625 -0.9731  0.6110
11850TIP3    H256966   3.466   2.060  16.792 -1.4874  0.1152  0.3616
11851TIP3   OH256967   0.513   0.349  10.557  0.1662  0.1438  0.5962
11851TIP3    H156968   0.440   0.312  10.507  0.9595 -0.5402 -0.0890
11851TIP3    H256969   0.509   0.443  10.539  0.4988 -0.1034 -0.8596
11852TIP3   OH256970   5.865   5.367  13.020  0.0128  0.7757 -0.1749
11852TIP3    H156971   5.885   5.438  12.959  0.2849  1.9530  1.2418
11852TIP3    H256972   5.769   5.361  13.019  0.0069  0.8801 -0.5930
11853TIP3   OH256973   0.834   1.005   4.092  0.0797  0.5915 -0.3293
11853TIP3    H156974   0.914   0.978   4.138  1.3303  2.9037 -1.0255
11853TIP3    H256975   0.803   1.081   4.141 -2.1388 -0.6535  0.3193
11854TIP3   OH256976   6.412   2.568  11.619 -0.3441 -0.2414  0.1622
11854TIP3    H156977   6.384   2.501  11.681  0.6431  0.2679  1.1938
11854TIP3    H256978   6.504   2.584  11.641 -0.7131  1.8899  0.3718
11855TIP3   OH256979   2.573   3.263  13.518  0.1766 -0.5938 -0.3317
11855TIP3    H156980   2.513   3.329  13.484  1.1422 -1.2907 -3.7414
11855TIP3    H256981   2.655   3.311  13.531 -0.3688 -0.1701  1.9743
11856TIP3   OH256982   4.915   1.007  17.044  0.4165  0.1546  0.9546
11856TIP3    H156983   4.894   0.918  17.073  0.1704  0.1646  0.8129
11856TIP3    H256984   4.970   1.043  17.113  0.2672 -0.0025  1.1561
11857TIP3   OH256985   5.186   0.059   4.151 -0.2651  0.0935 -0.6085
11857TIP3    H156986   5.092   0.047   4.135 -0.4618 -0.6059  0.9441
11857TIP3    H256987   5.198   0.153   4.152 -0.6888  0.1975 -2.1612
11858TIP3   OH256988   5.986   3.607   6.941  0.2563  0.1460 -0.0814
11858TIP3    H156989   5.893   3.626   6.932  0.6419  1.1522 -2.5909
11858TIP3    H256990   5.989   3.519   6.979 -1.7744 -1.1278 -2.6182
11859TIP3   OH256991   6.510   6.100  15.405 -0.1343  0.6695  0.2569
11859TIP3    H156992   6.478   6.020  15.447  2.2068 -0.5524 -0.1317
11859TIP3    H256993   6.503   6.082  15.311 -0.7324  1.4536  0.1350
11860TIP3   OH256994   5.758   3.320   3.679  0.0504  0.0352 -0.0768
11860TIP3    H156995   5.801   3.333   3.763 -0.3118  0.8622 -0.0131
11860TIP3    H256996   5.700   3.246   3.693  1.0378 -0.7537 -0.0138
11861TIP3   OH256997   0.439   4.585   0.978 -0.4079  0.8269 -0.0041
11861TIP3    H156998   0.484   4.609   1.059  0.5428  0.7862 -0.5087
11861TIP3    H256999   0.441   4.664   0.925 -0.9729  0.8332 -0.0230
11862TIP3   OH257000   4.842   3.654  14.180  0.7879 -0.0196  0.4375
11862TIP3    H157001   4.794   3.601  14.116  0.5618 -0.8241  1.2555
11862TIP3    H257002   4.898   3.592  14.225  2.0770  0.7923  0.0126
11863TIP3   OH257003   0.439   4.319   2.899  0.8857  0.2616 -0.6250
11863TIP3    H157004   0.373   4.381   2.929  0.7300  0.2747 -0.9890
11863TIP3    H257005   0.390   4.252   2.853  0.9453 -0.6978  0.6455
11864TIP3   OH257006   0.838   4.164   2.889 -0.1636  0.2734 -0.0917
11864TIP3    H157007   0.830   4.230   2.958 -1.3067  0.5522 -0.4767
11864TIP3    H257008   0.929   4.134   2.896  0.0019  0.9504  0.9332
11865TIP3   OH257009   6.551   0.516  16.472  0.0439 -0.0580 -0.3861
11865TIP3    H157010   6.477   0.577  16.479 -0.2184 -0.3407 -0.6904
11865TIP3    H257011   6.624   0.563  16.512 -0.5357 -0.1567  0.8410
11866TIP3   OH257012   1.778   3.503  10.989 -0.9641 -0.7056  0.3943
11866TIP3    H157013   1.814   3.470  10.907  1.2172 -0.2331  1.0914
11866TIP3    H257014   1.705   3.445  11.009 -1.9087 -0.4956 -2.1222
11867TIP3   OH257015   5.454   2.076   1.515  0.0533  0.1124  0.3364
11867TIP3    H157016   5.439   1.997   1.567  2.2490 -1.1438 -0.8133
11867TIP3    H257017   5.371   2.091   1.470 -0.7250 -0.9149  1.3806
11868TIP3   OH257018   1.951   1.265   2.511  0.2620 -0.0994 -0.4072
11868TIP3    H157019   2.009   1.329   2.553 -1.7943  1.3011  0.4744
11868TIP3    H257020   1.930   1.304   2.426 -1.6657  0.8895  0.4711
11869TIP3   OH257021   5.488   3.603   4.500 -0.4646  0.2219  0.3536
11869TIP3    H157022   5.575   3.564   4.507 -0.9516 -0.5614  3.1731
11869TIP3    H257023   5.504   3.696   4.482  0.8266 -0.2935 -1.4125
11870TIP3   OH257024   4.992   3.322  16.257 -0.1047 -0.5838 -0.9283
11870TIP3    H157025   5.053   3.251  16.277  1.8779  0.6674 -2.2581
11870TIP3    H257026   5.046   3.391  16.219 -2.2475  0.9184 -1.4408
11871TIP3   OH257027   5.652   6.433   0.713 -0.4021 -0.0810  0.0268
11871TIP3    H157028   5.710   6.425   0.788 -0.4702 -1.0260 -0.0079
11871TIP3    H257029   5.566   6.407   0.746 -0.3139 -1.1037 -0.5192
11872TIP3   OH257030   0.697   5.012  12.712  0.2961 -0.6079  0.2687
11872TIP3    H157031   0.690   4.941  12.648  0.5415 -0.5030  0.1261
11872TIP3    H257032   0.747   4.974  12.784  2.4270  0.0736 -0.7552
11873TIP3   OH257033   4.591   2.246  10.617 -0.2223  0.1879  0.1534
11873TIP3    H157034   4.561   2.155  10.618 -0.1759  0.1461 -0.8805
11873TIP3    H257035   4.666   2.248  10.676 -1.5185  0.0417  1.8594
11874TIP3   OH257036   1.954   6.212   2.034 -0.9901 -0.1802  0.1142
11874TIP3    H157037   1.972   6.147   2.102 -0.9474 -0.2965 -0.0080
11874TIP3    H257038   1.883   6.265   2.069 -0.4392  0.2596  0.5870
11875TIP3   OH257039   1.765   1.327  16.187 -0.2903  0.0246 -0.1842
11875TIP3    H157040   1.719   1.407  16.212  1.2430 -0.0704  3.5811
11875TIP3    H257041   1.857   1.346  16.207  0.2741 -2.2713 -0.3541
11876TIP3   OH257042   6.756   2.271  15.708 -0.2739 -0.0958 -0.4682
11876TIP3    H157043   6.776   2.222  15.787  1.2238 -1.2298 -1.4851
11876TIP3    H257044   6.661   2.284  15.710 -0.4147 -1.1898  0.8725
11877TIP3   OH257045   3.724   3.590   3.970 -0.1583  0.0176  0.3123
11877TIP3    H157046   3.763   3.658   3.915  1.4534  0.1259  1.5229
11877TIP3    H257047   3.630   3.594   3.950  0.1457  1.2897 -1.0447
11878TIP3   OH257048   5.337   3.570   3.008 -0.0773 -0.6061  0.2336
11878TIP3    H157049   5.294   3.595   2.926 -2.6258  0.0104  1.6563
11878TIP3    H257050   5.373   3.483   2.990 -0.0121 -0.2267 -1.7103
11879TIP3   OH257051   1.158   4.076  16.653  0.5499 -0.3162  0.1607
11879TIP3    H157052   1.137   4.109  16.565 -0.0419 -2.7478 -0.7106
11879TIP3    H257053   1.077   4.089  16.703  0.1426 -0.8736 -0.3280
11880TIP3   OH257054   3.715   0.418  12.343  0.0069 -0.3909 -0.3457
11880TIP3    H157055   3.626   0.388  12.358  0.2959 -1.0414  0.1152
11880TIP3    H257056   3.705   0.507  12.309 -0.8017 -0.3225  0.0518
11881TIP3   OH257057   4.488   1.609   1.102 -0.1885  0.1252 -0.7787
11881TIP3    H157058   4.578   1.580   1.083  0.6521  2.4534 -0.6253
11881TIP3    H257059   4.457   1.548   1.169  0.6790 -1.6851 -1.9488
11882TIP3   OH257060   0.660   4.762  16.436 -0.6218 -0.3777  0.5844
11882TIP3    H157061   0.694   4.672  16.433 -0.4166 -0.2692 -1.4067
11882TIP3    H257062   0.573   4.753  16.475  0.0362 -1.1807  1.9842
11883TIP3   OH257063   2.499   3.675   6.392 -0.6840 -0.0145  0.0749
11883TIP3    H157064   2.478   3.657   6.484  0.0416 -1.0315  0.0684
11883TIP3    H257065   2.439   3.620   6.342 -0.9999  0.4503 -0.0601
11884TIP3   OH257066   2.957   3.575   0.828 -0.1348 -0.0549  0.1306
11884TIP3    H157067   2.875   3.620   0.851 -1.0345 -0.4739 -2.0174
11884TIP3    H257068   2.965   3.588   0.733  1.4816 -1.3756  0.0541
11885TIP3   OH257069   1.975   1.808  16.109 -0.0381 -1.0462  0.0659
11885TIP3    H157070   1.966   1.883  16.051 -0.2394  0.8195  2.3787
11885TIP3    H257071   1.923   1.739  16.067 -3.2349  1.3202 -0.2585
11886TIP3   OH257072   6.491   3.018  16.508 -0.7280 -0.3791  0.2275
11886TIP3    H157073   6.502   3.093  16.566  0.6212 -0.7606  0.5184
11886TIP3    H257074   6.437   2.957  16.557  0.3113 -0.6556  1.0785
11887TIP3   OH257075   0.285   1.954   4.123  0.3041 -0.2076  0.5145
11887TIP3    H157076   0.292   1.922   4.213  1.8176 -1.0697  0.1266
11887TIP3    H257077   0.341   2.032   4.120  0.3455 -0.2439  0.2851
11888TIP3   OH257078   0.889   6.583   5.331  0.1616 -0.4482  0.0459
11888TIP3    H157079   0.896   6.492   5.361  0.1151 -0.1375  1.0603
11888TIP3    H257080   0.889   6.634   5.412 -2.1825  0.3122 -0.3708
11889TIP3   OH257081   2.965   2.449   2.108 -0.3644  0.1052  0.0563
11889TIP3    H157082   3.050   2.471   2.145 -0.3076 -0.2697  0.1542
11889TIP3    H257083   2.984   2.419   2.019 -0.6063  2.0326 -0.6786
11890TIP3   OH257084   3.035   1.151  11.693  0.3427  0.2027  0.1875
11890TIP3    H157085   3.035   1.206  11.615 -2.7392 -0.7253 -0.6025
11890TIP3    H257086   3.050   1.063  11.660 -0.9583 -0.1952  0.6071
11891TIP3   OH257087   6.428   4.143   0.247 -0.6563  0.1608  0.3048
11891TIP3    H157088   6.520   4.169   0.244 -0.8795  0.9259 -0.1755
11891TIP3    H257089   6.430   4.049   0.227  0.2753 -0.6181  3.5118
11892TIP3   OH257090   3.297   1.534  16.938 -0.3038  0.2735 -0.2755
11892TIP3    H157091   3.281   1.460  16.880 -0.5444  0.9427 -1.0623
11892TIP3    H257092   3.303   1.494  17.025 -2.1480 -0.4751 -0.4468
11893TIP3   OH257093   4.657   0.844   5.449  0.2489 -0.1164 -0.1948
11893TIP3    H157094   4.672   0.749   5.451 -1.1480 -0.4556 -2.0597
11893TIP3    H257095   4.684   0.870   5.361 -1.6363  0.7373 -0.5781
11894TIP3   OH257096   5.230   4.408  11.368  0.0320  0.3830 -0.4447
11894TIP3    H157097   5.290   4.413  11.442  0.9484  0.3772 -1.1590
11894TIP3    H257098   5.183   4.326  11.379  0.2001  0.3609  0.0963
11895TIP3   OH257099   1.428   0.891   1.512 -0.2588 -0.8002 -0.1349
11895TIP3    H157100   1.344   0.936   1.518 -0.6404 -1.4826 -0.2542
11895TIP3    H257101   1.476   0.938   1.443 -0.3921 -0.1814  0.1914
11896TIP3   OH257102   4.258   5.606   5.018  0.1285 -0.2295  0.5766
11896TIP3    H157103   4.176   5.613   5.066 -0.7761 -1.7886 -0.6322
11896TIP3    H257104   4.308   5.539   5.065 -0.3399 -1.0347 -0.0419
11897TIP3   OH257105   5.025   2.469  15.692  0.1380 -0.1146 -0.5346
11897TIP3    H157106   4.944   2.510  15.722  1.9361  1.3559  3.0504
11897TIP3    H257107   5.009   2.375  15.700 -1.6058  0.0856 -1.2623
11898TIP3   OH257108   0.594   5.369   1.601  0.6338  0.5564  0.3050
11898TIP3    H157109   0.597   5.317   1.520  2.5662  2.4354 -0.9471
11898TIP3    H257110   0.521   5.429   1.589 -1.3188 -1.4418  1.5618
11899TIP3   OH257111   1.825   1.267  14.864  0.1169 -0.4337  0.4006
11899TIP3    H157112   1.740   1.269  14.820  0.5922  4.5289 -0.8536
11899TIP3    H257113   1.807   1.298  14.953  0.4985  0.0477  0.3156
11900TIP3   OH257114   3.127   1.610   4.209 -0.0453 -0.2055 -0.7439
11900TIP3    H157115   3.157   1.621   4.119 -0.5650  0.4011 -0.8541
11900TIP3    H257116   3.138   1.517   4.228 -1.4885 -0.6839 -2.0086
11901TIP3   OH257117   4.106   4.554   1.139  0.3075  0.1340 -0.3741
11901TIP3    H157118   4.134   4.602   1.217  0.8321 -1.0974  0.2208
11901TIP3    H257119   4.150   4.599   1.067  0.3958  0.8385  0.1104
11902TIP3   OH257120   4.770   1.898  15.011 -0.2935 -0.6483 -0.6505
11902TIP3    H157121   4.689   1.939  14.982 -1.2931 -2.1832 -0.1198
11902TIP3    H257122   4.839   1.952  14.973 -1.5444  0.7804 -0.9935
11903TIP3   OH257123   3.026   1.964  12.424  0.5888  0.8686  0.0944
11903TIP3    H157124   2.973   1.976  12.503  0.1307  1.1058 -0.2440
11903TIP3    H257125   3.106   2.014  12.442  0.5314  0.8369  0.4518
11904TIP3   OH257126   1.737   6.162  13.568  0.1583  0.3113 -0.1751
11904TIP3    H157127   1.667   6.118  13.519 -0.5035 -0.2751  1.2426
11904TIP3    H257128   1.712   6.255  13.566  0.2862  0.3385 -1.1414
11905TIP3   OH257129   6.427   2.260   4.393  0.4420  0.0449 -0.0544
11905TIP3    H157130   6.399   2.187   4.447  0.4562 -0.0436 -0.1680
11905TIP3    H257131   6.401   2.237   4.304  2.0632 -0.6551 -0.3825
11906TIP3   OH257132   4.398   1.563   6.542  0.4679  0.1545 -0.0954
11906TIP3    H157133   4.423   1.474   6.515 -1.0931 -0.8322  1.4639
11906TIP3    H257134   4.342   1.595   6.472 -0.3849 -0.8254  0.1138
11907TIP3   OH257135   2.663   2.568  14.962  0.1057 -0.0508  0.4371
11907TIP3    H157136   2.690   2.627  14.892 -0.5994 -0.4766 -0.2223
11907TIP3    H257137   2.594   2.616  15.009 -0.1844 -0.1845  0.1532
11908TIP3   OH257138   0.410   5.066  16.096  0.1662  0.0994  0.5602
11908TIP3    H157139   0.479   5.059  16.162  1.5446 -2.0634 -0.9535
11908TIP3    H257140   0.448   5.123  16.029 -0.1648  0.1993  0.4601
11909TIP3   OH257141   4.650   2.380   4.366  0.0533 -0.0606  0.0916
11909TIP3    H157142   4.679   2.289   4.367 -0.1639 -0.1553 -0.9929
11909TIP3    H257143   4.556   2.377   4.382  0.0339 -0.0374 -0.0157
11910TIP3   OH257144   3.063   1.381  14.299 -0.9910  0.5204 -0.6111
11910TIP3    H157145   3.131   1.330  14.256  0.5072  2.0402 -0.1575
11910TIP3    H257146   2.985   1.369  14.244 -0.3422 -1.1670 -1.1974
11911TIP3   OH257147   2.625   6.304  14.732 -0.1243 -0.6030  0.4131
11911TIP3    H157148   2.705   6.353  14.719  0.5806 -1.6359  0.7413
11911TIP3    H257149   2.609   6.308  14.827 -1.9148  1.7721  0.1169
11912TIP3   OH257150   3.652   1.881   4.123  0.0091 -0.3524  0.1337
11912TIP3    H157151   3.624   1.898   4.033 -0.1752 -2.4485 -0.2704
11912TIP3    H257152   3.747   1.871   4.118  0.3338  1.9857  0.6577
11913TIP3   OH257153   2.563   2.520  12.388  0.7022  0.3966  0.2197
11913TIP3    H157154   2.574   2.501  12.481 -1.1262 -1.1022  0.2037
11913TIP3    H257155   2.471   2.546  12.380  0.9665  0.9873 -1.1006
11914TIP3   OH257156   3.366   0.849   0.494 -0.1700 -0.4893  0.0183
11914TIP3    H157157   3.393   0.806   0.575  0.2378 -0.6741 -0.2154
11914TIP3    H257158   3.386   0.941   0.509  1.3960 -0.7355 -0.4750
11915TIP3   OH257159   4.131   3.512  11.471 -0.3137 -0.1066  0.0073
11915TIP3    H157160   4.214   3.494  11.426 -0.4164  1.0746 -0.7149
11915TIP3    H257161   4.100   3.426  11.499  0.2584 -0.7924 -1.3296
11916TIP3   OH257162   2.628   5.276  14.174  0.0201 -0.6879  0.1925
11916TIP3    H157163   2.572   5.243  14.104 -0.5810  1.8421 -0.6517
11916TIP3    H257164   2.567   5.296  14.246  0.1207  0.0222  0.0884
11917TIP3   OH257165   1.545   5.741   4.252 -0.0827 -0.3065 -0.0917
11917TIP3    H157166   1.485   5.680   4.295  0.2868 -1.2314 -0.8362
11917TIP3    H257167   1.564   5.700   4.167  1.2251  0.1989 -0.0696
11918TIP3   OH257168   4.576   4.077  17.257  0.4983 -0.1168  0.2425
11918TIP3    H157169   4.585   4.139  17.330  0.0642  0.2550 -0.0150
11918TIP3    H257170   4.641   4.105  17.193  0.5879 -0.1825  0.3046
11919TIP3   OH257171   3.777   2.692   1.516 -0.8766  0.6277  0.3984
11919TIP3    H157172   3.699   2.736   1.483 -0.2975  1.4670  0.1075
11919TIP3    H257173   3.816   2.651   1.439 -1.1001  0.0832  0.5683
11920TIP3   OH257174   1.344   1.950   4.834  0.7335 -0.4254  0.1714
11920TIP3    H157175   1.296   1.890   4.891 -0.1286 -0.9466 -1.0550
11920TIP3    H257176   1.308   2.036   4.853 -1.5015 -0.9133 -1.4293
11921TIP3   OH257177   0.610   2.874   4.221 -0.5193  0.0868  0.0296
11921TIP3    H157178   0.603   2.818   4.144  0.3025  0.2916 -0.2089
11921TIP3    H257179   0.531   2.857   4.271 -0.3273 -1.2079 -0.0845
11922TIP3   OH257180   2.363   4.163   1.657 -0.4225 -1.0655  0.1432
11922TIP3    H157181   2.302   4.143   1.586 -0.5836 -0.6096  0.1484
11922TIP3    H257182   2.425   4.225   1.619 -0.8979 -0.3126  0.5798
11923TIP3   OH257183   0.985   6.202   1.712 -0.2946  0.0943  0.1594
11923TIP3    H157184   0.968   6.226   1.621  1.5783  3.0509  0.4621
11923TIP3    H257185   0.935   6.265   1.763  0.2335 -0.2550  1.1327
11924TIP3   OH257186   5.299   2.322   4.323  0.4104 -0.3452 -0.5825
11924TIP3    H157187   5.292   2.353   4.233 -1.3513 -1.5201 -0.9034
11924TIP3    H257188   5.216   2.349   4.364  0.1243 -1.9118 -0.0390
11925TIP3   OH257189   1.293   4.235   5.793  0.5964  0.0198  0.4340
11925TIP3    H157190   1.284   4.201   5.882  0.5072 -0.1363  0.3658
11925TIP3    H257191   1.207   4.225   5.755  0.3861  0.9619  0.6338
11926TIP3   OH257192   4.752   5.759   4.842 -0.7105  0.6295  0.0605
11926TIP3    H157193   4.676   5.818   4.844 -1.1776  0.2348 -2.4436
11926TIP3    H257194   4.719   5.677   4.878 -1.9813  0.0386 -2.2252
11927TIP3   OH257195   0.459   1.998   4.938  0.2994 -0.0059 -0.0556
11927TIP3    H157196   0.495   1.910   4.929  1.0889  0.3124 -0.0030
11927TIP3    H257197   0.525   2.055   4.900 -0.5880  0.4995 -0.8868
11928TIP3   OH257198   2.762   2.620   2.508  0.1856 -0.6546 -0.1207
11928TIP3    H157199   2.780   2.527   2.522  2.4866 -0.3362 -0.5379
11928TIP3    H257200   2.832   2.649   2.450 -0.5359  1.3355 -0.0667
11929TIP3   OH257201   0.486   5.377  17.042 -0.0291 -0.4971  0.2559
11929TIP3    H157202   0.491   5.423  17.126 -0.0201 -0.8466  0.4460
11929TIP3    H257203   0.395   5.348  17.036 -1.0434  2.5348 -1.4330
11930TIP3   OH257204   5.129   1.634  12.107  0.0450 -0.5888 -0.2398
11930TIP3    H157205   5.094   1.712  12.151 -0.2511 -0.7669 -0.1574
11930TIP3    H257206   5.178   1.669  12.033  0.9182 -0.2622  0.4729
11931TIP3   OH257207   6.595   2.893   4.236 -0.0943 -0.1684 -0.5081
11931TIP3    H157208   6.613   2.984   4.261  2.1236 -0.3800 -1.1176
11931TIP3    H257209   6.664   2.843   4.280 -0.5940 -1.4272 -1.1258
11932TIP3   OH257210   4.894   2.197  13.430 -0.3678 -0.2262 -0.1489
11932TIP3    H157211   4.861   2.112  13.400 -0.2639  0.0504 -1.0881
11932TIP3    H257212   4.871   2.201  13.523 -0.4058 -1.2622 -0.1051
11933TIP3   OH257213   5.473   6.684  15.888  0.2669 -0.3654 -0.3920
11933TIP3    H157214   5.492   6.667  15.980 -0.3420  1.3039  0.0818
11933TIP3    H257215   5.459   6.597  15.850  1.5572 -1.1509  0.8310
11934TIP3   OH257216   4.309   2.968   2.918  0.2797  0.3559  0.1455
11934TIP3    H157217   4.367   2.951   2.843  0.4060  0.0813  0.3038
11934TIP3    H257218   4.358   2.936   2.994  0.2470  0.8447  0.3752
11935TIP3   OH257219   5.161   2.317   5.764  0.2159 -0.6345 -0.7198
11935TIP3    H157220   5.165   2.388   5.828  2.4820 -1.4049  0.0895
11935TIP3    H257221   5.082   2.268   5.787 -0.8444  1.0230 -0.6826
11936TIP3   OH257222   3.328   0.417   4.694  0.5459  0.1366  0.8983
11936TIP3    H157223   3.413   0.441   4.729  0.3335 -1.1487  2.3866
11936TIP3    H257224   3.299   0.495   4.646  1.5767  1.3880  2.2353
11937TIP3   OH257225   0.965   5.614   3.123 -0.0459  0.0506  0.3195
11937TIP3    H157226   1.001   5.567   3.048 -2.8341 -1.0833 -0.4690
11937TIP3    H257227   0.870   5.612   3.108 -0.4777  3.4099  1.8033
11938TIP3   OH257228   3.164   4.124  15.287  0.7179  0.2793 -0.5820
11938TIP3    H157229   3.211   4.069  15.350 -0.4208 -0.0829 -0.0113
11938TIP3    H257230   3.219   4.202  15.278  0.5304  0.7235  1.5219
11939TIP3   OH257231   6.383   5.052   0.424 -0.4277 -0.0106 -0.3334
11939TIP3    H157232   6.394   5.132   0.475 -0.6336 -0.0736 -0.1865
11939TIP3    H257233   6.440   5.063   0.348 -1.6436  0.9727 -1.1443
11940TIP3   OH257234   1.006   4.357   4.911  0.2900 -0.4493  0.3293
11940TIP3    H157235   0.935   4.325   4.856  1.2530 -1.6056 -0.2759
11940TIP3    H257236   1.015   4.291   4.979 -0.8824  0.9567  1.9454
11941TIP3   OH257237   5.118   5.264   4.073 -0.3926 -0.1969 -0.0396
11941TIP3    H157238   5.029   5.290   4.051  0.2246  2.8527  0.5642
11941TIP3    H257239   5.121   5.264   4.169  0.2412 -0.2021 -0.0499
11942TIP3   OH257240   5.047   3.568  13.394  0.0386  0.2671 -0.0343
11942TIP3    H157241   4.962   3.524  13.388 -0.7042  1.6861 -0.3346
11942TIP3    H257242   5.086   3.558  13.307  0.2877 -0.5760  0.1674
11943TIP3   OH257243   0.951   4.779   3.187  0.6717 -0.2336 -0.0457
11943TIP3    H157244   1.038   4.764   3.225  1.7903  0.8377 -1.9922
11943TIP3    H257245   0.904   4.696   3.199  0.9260 -0.0012  3.4658
11944TIP3   OH257246   2.103   1.096   0.610 -0.2200  0.5316  0.6236
11944TIP3    H157247   2.119   1.143   0.692 -0.3419  0.4140  0.7157
11944TIP3    H257248   2.072   1.163   0.549  1.3809  0.9257  0.1962
11945TIP3   OH257249   4.738   3.892   3.631 -0.0389  0.6173 -0.2660
11945TIP3    H157250   4.650   3.858   3.618 -0.4378  1.2681  0.6551
11945TIP3    H257251   4.787   3.861   3.554 -0.9801  0.0011 -0.6362
11946TIP3   OH257252   0.599   5.302  16.073 -0.4829 -0.8173 -0.2854
11946TIP3    H157253   0.560   5.370  16.128  3.3003  1.4865 -0.0820
11946TIP3    H257254   0.548   5.306  15.992 -0.9148  1.7758  0.0157
11947TIP3   OH257255   2.993   2.209  14.279  0.2528  0.9505  0.2597
11947TIP3    H157256   2.907   2.251  14.268 -0.6102 -1.1185 -1.5678
11947TIP3    H257257   3.045   2.275  14.324 -1.4887  3.3614 -0.9730
11948TIP3   OH257258   0.347   3.620  16.298  0.0756 -0.8276 -0.1638
11948TIP3    H157259   0.324   3.665  16.216 -0.3949 -2.8284 -1.1891
11948TIP3    H257260   0.406   3.681  16.342 -0.8728  0.9760 -1.2486
11949TIP3   OH257261   2.956   4.622   1.423 -0.1310 -0.6085  0.8091
11949TIP3    H157262   2.875   4.572   1.408  0.3146 -0.7643 -1.3080
11949TIP3    H257263   2.927   4.700   1.470 -1.4281 -0.9581  0.6367
11950TIP3   OH257264   2.910   3.372  16.755  0.3587 -0.0559 -0.6998
11950TIP3    H157265   2.934   3.281  16.770 -0.5149 -0.0942  0.5775
11950TIP3    H257266   2.925   3.415  16.839  1.0604  1.0586 -1.3656
11951TIP3   OH257267   4.527   2.154  12.273  0.8760  0.0603 -0.4814
11951TIP3    H157268   4.460   2.218  12.296  0.2152 -1.3473  1.8786
11951TIP3    H257269   4.479   2.071  12.264  2.0112 -0.5522 -1.0815
11952TIP3   OH257270   6.433   0.534  11.871 -0.6192  0.4344  0.0231
11952TIP3    H157271   6.509   0.478  11.852  0.6878  2.0657  0.2558
11952TIP3    H257272   6.391   0.491  11.946 -0.1304 -0.6660 -0.3016
11953TIP3   OH257273   0.925   2.333  16.750  0.4816 -0.2758  0.3047
11953TIP3    H157274   1.000   2.347  16.808  0.2608  3.0228  0.0149
11953TIP3    H257275   0.859   2.292  16.806  0.6054  1.9515  2.2436
11954TIP3   OH257276   0.017   0.758   5.668 -0.5269  0.2190 -0.7273
11954TIP3    H157277  -0.053   0.787   5.610 -0.1209  0.9756 -0.8619
11954TIP3    H257278  -0.027   0.710   5.738 -1.1262  0.2465 -1.0848
11955TIP3   OH257279   3.283   1.153  15.903  0.8014 -0.4940  0.0118
11955TIP3    H157280   3.285   1.095  15.827 -0.0520 -0.9266  0.2969
11955TIP3    H257281   3.309   1.238  15.869 -2.8172  0.1848 -1.6103
11956TIP3   OH257282   4.327   0.435   5.849 -0.3140 -0.8717  0.6113
11956TIP3    H157283   4.414   0.473   5.841  0.7563 -2.6493  2.7048
11956TIP3    H257284   4.281   0.491   5.912 -0.5010 -0.3020 -0.0146
11957TIP3   OH257285   6.148   5.303  14.958  0.2433 -0.3010 -0.4352
11957TIP3    H157286   6.243   5.289  14.955  0.4143  0.6482  0.1115
11957TIP3    H257287   6.132   5.373  14.895  0.0321  0.1420  0.1009
11958TIP3   OH257288   6.570   2.389   0.930 -0.6278  0.2697  0.0468
11958TIP3    H157289   6.612   2.340   1.001  0.2259  0.5049 -0.2799
11958TIP3    H257290   6.562   2.325   0.859  0.2676  0.5284 -0.2970
11959TIP3   OH257291   1.631   1.313  14.157  0.3494  0.0353  0.3999
11959TIP3    H157292   1.646   1.256  14.232 -0.7716 -1.1239 -0.2070
11959TIP3    H257293   1.652   1.259  14.081 -0.5114  0.4949 -0.1866
11960TIP3   OH257294   2.870   6.024   4.032  0.2409 -0.9353  0.3083
11960TIP3    H157295   2.824   5.946   4.062  0.2886 -0.2507  2.3278
11960TIP3    H257296   2.962   6.006   4.050  0.3833 -0.8422 -0.2852
11961TIP3   OH257297   5.698   3.096  16.451 -0.1534 -0.5271  0.0777
11961TIP3    H157298   5.714   3.184  16.485  0.4956  0.0237 -1.5754
11961TIP3    H257299   5.757   3.040  16.502  1.1293  0.3339 -0.3965
11962TIP3   OH257300   2.276   3.690  10.433  0.7061 -0.0234 -0.2323
11962TIP3    H157301   2.358   3.649  10.407  0.3893 -1.2793  0.6548
11962TIP3    H257302   2.221   3.617  10.462 -0.5507  0.8471 -0.3694
11963TIP3   OH257303   3.381   3.725  11.842  0.3532  0.3029 -0.2436
11963TIP3    H157304   3.376   3.633  11.869  0.4984 -0.4638 -2.5811
11963TIP3    H257305   3.296   3.762  11.864 -0.1041 -0.7174 -0.2604
11964TIP3   OH257306   0.174   2.895  14.197 -1.0286 -0.1644 -0.2207
11964TIP3    H157307   0.086   2.887  14.234 -1.0730 -1.7494 -0.6084
11964TIP3    H257308   0.169   2.970  14.137 -1.9427  0.1124  0.1912
11965TIP3   OH257309   2.934   5.355  11.345 -0.6231  0.5895 -0.7295
11965TIP3    H157310   3.015   5.322  11.308 -0.8079  0.0298 -0.6460
11965TIP3    H257311   2.896   5.410  11.276 -0.7059 -0.0238 -1.1823
11966TIP3   OH257312   1.958   5.199   6.042 -0.2231 -0.3566 -0.0804
11966TIP3    H157313   2.026   5.182   6.108 -1.8078 -0.2757  1.6328
11966TIP3    H257314   1.988   5.150   5.965  1.4065 -0.9377  0.8610
11967TIP3   OH257315   4.957   6.584  15.548 -0.0279  0.8584 -0.5737
11967TIP3    H157316   4.924   6.662  15.592  1.1790  0.9819  0.1580
11967TIP3    H257317   5.010   6.540  15.615  1.7141  0.9555 -1.8420
11968TIP3   OH257318   3.230   0.313  14.457 -0.3955  0.3583  0.3404
11968TIP3    H157319   3.214   0.365  14.378 -0.2798  0.8005  0.6057
11968TIP3    H257320   3.242   0.378  14.526 -0.8474 -0.0293  0.7944
11969TIP3   OH257321   3.254   3.421  10.808 -0.2668 -0.0570  0.1706
11969TIP3    H157322   3.178   3.470  10.840  0.9643  0.7565  2.0555
11969TIP3    H257323   3.250   3.338  10.855 -0.2801 -0.2383 -0.1487
11970TIP3   OH257324   1.262   2.808   0.445  0.0545 -0.0798  0.4995
11970TIP3    H157325   1.337   2.841   0.395  0.2411 -1.8530 -0.4789
11970TIP3    H257326   1.191   2.869   0.426  1.1450  1.4896  1.2375
11971TIP3   OH257327   4.132   2.999  12.646  0.0146  0.2130 -0.6467
11971TIP3    H157328   4.183   3.077  12.622 -1.5929  1.1472 -1.1686
11971TIP3    H257329   4.084   2.977  12.566  0.9640 -1.7728 -0.7245
11972TIP3   OH257330   5.515   3.546   5.194  0.2943  0.0169  0.4346
11972TIP3    H157331   5.457   3.512   5.126  1.5444  0.4966 -0.9129
11972TIP3    H257332   5.533   3.471   5.250  0.5157 -0.8047 -0.7010
11973TIP3   OH257333   2.912   5.289  15.587 -0.0634 -0.0958 -0.5475
11973TIP3    H157334   2.981   5.356  15.584 -0.6217  0.5327  0.0492
11973TIP3    H257335   2.917   5.246  15.502  1.4577 -0.4808 -0.3074
11974TIP3   OH257336   1.860   1.773   5.747 -0.1763  0.1440 -0.0160
11974TIP3    H157337   1.775   1.778   5.791  1.1363 -2.6760  3.3400
11974TIP3    H257338   1.873   1.680   5.729  1.6968  0.6402 -1.5578
11975TIP3   OH257339   4.023   4.855  10.779 -0.3975 -0.3256  0.6946
11975TIP3    H157340   3.963   4.789  10.814 -0.3507 -0.2739  0.8746
11975TIP3    H257341   4.108   4.811  10.774 -1.0320 -1.4388 -2.5745
11976TIP3   OH257342   1.476   0.838  14.929 -0.1529  0.5798 -0.0653
11976TIP3    H157343   1.413   0.768  14.944 -0.6185  1.0130  0.0569
11976TIP3    H257344   1.422   0.916  14.917  0.3706  1.0252  0.4024
11977TIP3   OH257345   4.406   2.964   0.398  0.0339 -0.1589 -0.5692
11977TIP3    H157346   4.406   2.868   0.394 -0.7218 -0.1772 -0.3043
11977TIP3    H257347   4.314   2.988   0.386 -0.0726  0.4421  1.2086
11978TIP3   OH257348   4.881   3.442   3.295 -0.2182  0.0563 -0.9052
11978TIP3    H157349   4.969   3.479   3.296  0.4458 -1.4314 -1.4513
11978TIP3    H257350   4.885   3.370   3.358 -1.1718  0.2481 -0.6169
11979TIP3   OH257351   5.690   4.262   5.267 -0.0717 -0.6358  0.2503
11979TIP3    H157352   5.760   4.311   5.310 -0.1480 -1.7950  1.7721
11979TIP3    H257353   5.735   4.210   5.200  0.3396 -0.3735  0.3194
11980TIP3   OH257354   5.387   3.717   0.079  0.2164  0.0872  0.2394
11980TIP3    H157355   5.463   3.764   0.045  0.7588 -1.2077 -0.4192
11980TIP3    H257356   5.405   3.625   0.060 -1.2149 -0.3159  0.6726
11981TIP3   OH257357   1.505   3.237  10.527 -0.2124  0.4759 -0.2686
11981TIP3    H157358   1.483   3.151  10.493  0.3088  0.4523 -0.5660
11981TIP3    H257359   1.599   3.232  10.544 -0.5512  0.2936  1.7596
11982TIP3   OH257360   6.782   2.723  17.249 -0.1839  0.0645  0.1237
11982TIP3    H157361   6.803   2.660  17.181 -0.2280  0.1370  0.0407
11982TIP3    H257362   6.823   2.689  17.328  2.1342  1.2941 -0.4625
11983TIP3   OH257363   5.308   3.569   4.983  0.4989  0.3664 -0.7541
11983TIP3    H157364   5.278   3.657   4.959  1.4779  0.5730 -1.2753
11983TIP3    H257365   5.337   3.531   4.900  1.9948  0.3109 -0.2191
11984TIP3   OH257366   5.555   1.851   2.849  0.0274  0.6428 -1.0191
11984TIP3    H157367   5.477   1.796   2.844 -0.7895  1.7520 -0.7397
11984TIP3    H257368   5.621   1.795   2.889 -1.5425  0.6611  1.8626
11985TIP3   OH257369   6.240   2.235   2.505  0.7329  0.2284 -0.1343
11985TIP3    H157370   6.299   2.231   2.581 -1.3040 -0.2869  1.5080
11985TIP3    H257371   6.211   2.326   2.503  1.3890  0.4308 -0.8134
11986TIP3   OH257372   4.952   0.062   2.957 -0.1726  0.0944 -0.1131
11986TIP3    H157373   5.010  -0.014   2.950 -1.7822 -1.2555  0.3589
11986TIP3    H257374   4.898   0.058   2.878 -1.1519 -0.0649  0.5450
11987TIP3   OH257375   6.186   5.777  11.040  0.0416 -0.1243 -0.2075
11987TIP3    H157376   6.153   5.779  11.130  2.0078 -1.0189  0.5752
11987TIP3    H257377   6.128   5.716  10.994 -0.6731 -0.0453  0.5736
11988TIP3   OH257378   4.258   0.241  16.702  0.1420 -0.1972 -0.4381
11988TIP3    H157379   4.244   0.222  16.609 -0.0879 -0.9326 -0.2662
11988TIP3    H257380   4.237   0.158  16.746  0.0576  0.2033  0.2838
11989TIP3   OH257381   1.909   5.279  14.883  0.2339  0.1489 -0.2068
11989TIP3    H157382   1.818   5.298  14.861  0.3751  0.8345 -0.2213
11989TIP3    H257383   1.917   5.184  14.873 -0.4468  0.0993 -0.3185
11990TIP3   OH257384   3.804   2.494  16.491  0.1356  0.0353  0.6577
11990TIP3    H157385   3.811   2.400  16.475  1.1670  0.2057 -0.0136
11990TIP3    H257386   3.741   2.502  16.562  0.9157 -1.2571  1.5380
11991TIP3   OH257387   0.824   6.446   4.793 -0.0383  0.1687 -0.2423
11991TIP3    H157388   0.894   6.482   4.739  0.4208  2.1606  1.5348
11991TIP3    H257389   0.841   6.352   4.795  1.8266  0.4482 -0.8925
11992TIP3   OH257390   4.802   1.334  12.782 -0.0300 -0.2006  0.1096
11992TIP3    H157391   4.809   1.395  12.855 -1.2968  0.3390 -0.1982
11992TIP3    H257392   4.825   1.386  12.705  2.9575 -1.1648  0.2160
11993TIP3   OH257393   1.688   4.244   1.639 -0.1309 -0.0650 -0.3194
11993TIP3    H157394   1.658   4.233   1.729 -0.7608 -1.4019 -0.6566
11993TIP3    H257395   1.608   4.239   1.587  0.0795  1.9126 -0.9035
11994TIP3   OH257396   4.405   2.765  12.117 -0.1011 -0.0879 -0.1843
11994TIP3    H157397   4.352   2.802  12.188  1.1683 -1.4242  1.5365
11994TIP3    H257398   4.389   2.824  12.042 -2.0509  0.9464  0.9667
11995TIP3   OH257399   4.581   2.584   5.028 -0.1349 -0.0273  0.0607
11995TIP3    H157400   4.637   2.508   5.047 -1.6352 -1.5876 -1.4314
11995TIP3    H257401   4.492   2.551   5.035 -0.8315  1.1035 -2.3940
11996TIP3   OH257402   3.284   6.520  12.190 -0.2912  0.4340 -0.0900
11996TIP3    H157403   3.271   6.552  12.280 -0.3059  0.0314  0.0512
11996TIP3    H257404   3.215   6.455  12.178 -0.0334  0.1907 -0.2505
11997TIP3   OH257405   4.809   0.003  16.290 -0.8933  0.6459 -0.1286
11997TIP3    H157406   4.739  -0.061  16.306  0.4977 -0.8943  0.0348
11997TIP3    H257407   4.890  -0.045  16.306  0.2218  2.6580  0.6752
11998TIP3   OH257408   1.424   4.059  16.743  0.5123  0.5286 -0.0258
11998TIP3    H157409   1.428   4.110  16.824 -0.0630 -0.6953  0.7966
11998TIP3    H257410   1.335   4.073  16.711  0.6804  0.8586 -0.3624
11999TIP3   OH257411   1.019   1.159  11.688  0.0054 -0.3638 -0.0389
11999TIP3    H157412   1.081   1.181  11.758 -2.4878 -0.8366  2.4668
11999TIP3    H257413   0.998   1.243  11.647 -0.0481  0.2399  1.1838
12000TIP3   OH257414   2.137   4.411  12.152 -0.0665  0.6539 -0.1251
12000TIP3    H157415   2.143   4.414  12.056 -1.1371  2.1206 -0.1723
12000TIP3    H257416   2.174   4.326  12.175 -0.6675 -0.1523 -1.9230
12001TIP3   OH257417   2.207   4.901  12.965 -0.1971 -0.3896 -0.2688
12001TIP3    H157418   2.119   4.937  12.974 -0.5272 -1.2976  0.3278
12001TIP3    H257419   2.200   4.812  12.999  0.8903 -0.5720 -0.4776
12002TIP3   OH257420   5.683   3.538  15.133  0.5314  0.2183 -0.9479
12002TIP3    H157421   5.732   3.512  15.211  0.8791  0.2706 -1.1452
12002TIP3    H257422   5.712   3.628  15.115 -2.7197  1.9360  1.3698
12003TIP3   OH257423   3.842   2.519   4.034 -0.1896  0.2934 -0.0479
12003TIP3    H157424   3.858   2.505   3.941 -0.9436  0.2140 -0.1740
12003TIP3    H257425   3.929   2.520   4.074  0.0772 -1.7168 -0.4601
12004TIP3   OH257426   2.097   4.346  16.579  0.1764  0.3850  0.5401
12004TIP3    H157427   2.115   4.372  16.669  0.9039  0.5359  0.3633
12004TIP3    H257428   2.181   4.359  16.534 -0.6524  2.1920 -0.6026
12005TIP3   OH257429   0.106   2.988  14.974 -0.3058 -0.4214 -0.2076
12005TIP3    H157430   0.151   2.963  15.054  0.3402 -3.1726 -1.3319
12005TIP3    H257431   0.016   2.957  14.985 -0.5553  0.3104 -0.0923
12006TIP3   OH257432   4.743   3.730   6.155  0.0156 -0.3883  0.4607
12006TIP3    H157433   4.718   3.671   6.226 -0.3986 -0.2180  0.4604
12006TIP3    H257434   4.780   3.807   6.199  2.1636 -1.3324  0.4282
12007TIP3   OH257435   6.483   6.560   0.715  0.2193  0.3636  0.0114
12007TIP3    H157436   6.496   6.654   0.725  0.1503  0.2245  1.4881
12007TIP3    H257437   6.388   6.549   0.708 -0.0642  0.1601  3.0636
12008TIP3   OH257438   3.571   5.187   0.875 -0.0436 -0.2140  0.4278
12008TIP3    H157439   3.548   5.094   0.878 -0.7712 -0.0053  1.6016
12008TIP3    H257440   3.537   5.217   0.791  1.5915 -1.3355 -0.7078
12009TIP3   OH257441   5.952   5.234  15.145 -0.1950 -0.3421  0.1149
12009TIP3    H157442   5.976   5.296  15.213 -1.7278  0.1148  0.2855
12009TIP3    H257443   6.005   5.260  15.069  0.3436  0.1609  0.6548
12010TIP3   OH257444   3.919   0.984   3.984  0.4475 -0.0522 -1.2853
12010TIP3    H157445   4.002   1.014   4.020 -0.9286  1.1060  1.1784
12010TIP3    H257446   3.922   0.889   3.992  1.5487 -0.0412 -1.3591
12011TIP3   OH257447   2.367   0.270   4.178  0.3771  0.1669 -0.1508
12011TIP3    H157448   2.332   0.275   4.267 -2.3365  0.1689 -1.1307
12011TIP3    H257449   2.429   0.342   4.172  1.9958 -0.9094  2.2560
12012TIP3   OH257450   4.255   0.826   1.300 -0.2336  0.2601  0.4309
12012TIP3    H157451   4.181   0.885   1.317 -1.7005 -1.7773  1.4861
12012TIP3    H257452   4.219   0.760   1.241  1.0465 -0.2220  0.1723
12013TIP3   OH257453   0.821   3.645   5.871 -0.5954  0.2449 -0.0897
12013TIP3    H157454   0.750   3.581   5.870 -0.8618  0.5144  0.7162
12013TIP3    H257455   0.892   3.601   5.919 -0.6610  0.4321  0.1785
12014TIP3   OH257456   0.902   6.769  12.995 -0.2299  0.1698 -0.8208
12014TIP3    H157457   0.931   6.812  13.075 -1.0228  0.2983 -0.6018
12014TIP3    H257458   0.928   6.678  13.006  1.3225  0.5359 -1.2236
12015TIP3   OH257459   3.333   2.411   1.627 -0.5468  0.2366  0.4988
12015TIP3    H157460   3.339   2.321   1.597  0.5105  0.6447 -0.5900
12015TIP3    H257461   3.335   2.405   1.723 -2.1767 -0.9740  0.5104
12016TIP3   OH257462   5.952   1.427   0.565 -0.3498 -0.0043  0.3154
12016TIP3    H157463   5.876   1.374   0.541  0.8858 -2.5978  1.6960
12016TIP3    H257464   5.915   1.513   0.585 -2.5892 -0.5177 -1.2157
12017TIP3   OH257465   1.295   4.991  11.746  0.5854 -0.4769 -0.3776
12017TIP3    H157466   1.390   4.986  11.756  0.6932  2.0764  0.7904
12017TIP3    H257467   1.269   5.060  11.807 -1.8582 -0.1515 -1.6759
12018TIP3   OH257468   2.357   6.283  16.974  0.3069 -0.3731 -0.5849
12018TIP3    H157469   2.329   6.374  16.968 -0.2345 -0.4058  0.9376
12018TIP3    H257470   2.307   6.238  16.907 -1.7007 -0.0307  0.6011
12019TIP3   OH257471   2.519   1.240  14.314 -0.2162  0.1157 -0.4108
12019TIP3    H157472   2.546   1.299  14.385 -1.3486 -0.6289  0.6782
12019TIP3    H257473   2.483   1.163  14.359  0.0307 -0.8440 -1.8060
12020TIP3   OH257474   5.361   2.113  15.581 -0.3812  0.2164 -0.1129
12020TIP3    H157475   5.306   2.104  15.659 -2.3113 -1.1104 -1.5251
12020TIP3    H257476   5.424   2.041  15.588  1.3074  1.7498  1.5214
12021TIP3   OH257477   3.073   1.113   2.437 -0.8774 -0.1004 -0.6601
12021TIP3    H157478   3.014   1.184   2.412  1.3049  2.2376  0.4049
12021TIP3    H257479   3.018   1.053   2.487 -3.0371  0.2049 -2.5097
12022TIP3   OH257480   4.130   3.547  16.388 -0.5257 -0.6612 -0.0921
12022TIP3    H157481   4.224   3.568  16.386 -0.6847  0.0802 -1.5984
12022TIP3    H257482   4.088   3.626  16.420 -0.6657 -0.9061  0.3384
12023TIP3   OH257483   0.671   4.736  11.298  0.3161  0.4724  0.2772
12023TIP3    H157484   0.722   4.812  11.269  1.2217  0.4608  1.7627
12023TIP3    H257485   0.734   4.679  11.342 -0.4470 -0.9219 -0.3483
12024TIP3   OH257486   5.984   4.252   0.771  0.2077 -0.2392 -0.3234
12024TIP3    H157487   5.911   4.292   0.820 -1.0719 -0.9512 -1.5572
12024TIP3    H257488   5.974   4.158   0.787 -0.3113 -0.4994 -1.9793
12025TIP3   OH257489   5.695   1.880  13.812 -0.1598  0.3555  0.5032
12025TIP3    H157490   5.611   1.868  13.768  0.8386 -0.5555 -1.3040
12025TIP3    H257491   5.708   1.975  13.816  0.2015  0.5146 -2.3450
12026TIP3   OH257492   0.012   5.262   3.698  0.1419 -0.7046 -0.3135
12026TIP3    H157493  -0.002   5.355   3.713  1.2063 -0.7273  1.0338
12026TIP3    H257494   0.049   5.257   3.609 -0.4471  0.0816 -0.6133
12027TIP3   OH257495   1.697   5.118   4.822 -0.1721 -0.7468 -0.1309
12027TIP3    H157496   1.615   5.072   4.839 -0.4333  0.2871  1.7001
12027TIP3    H257497   1.697   5.133   4.728 -1.5617 -1.7260 -0.3163
12028TIP3   OH257498   3.952   1.612   3.738 -0.4177 -0.2485  0.1695
12028TIP3    H157499   4.037   1.651   3.760 -0.1993  0.1596 -1.2605
12028TIP3    H257500   3.948   1.618   3.642 -1.0814 -2.2723  0.0201
12029TIP3   OH257501   3.669   2.009  11.797 -0.1755 -0.1882  0.0737
12029TIP3    H157502   3.582   1.971  11.785 -1.3582  2.4954 -0.6265
12029TIP3    H257503   3.694   2.037  11.709  1.9086 -1.7830  0.0810
12030TIP3   OH257504   4.159   4.382  12.185 -0.3979  0.6404 -0.0573
12030TIP3    H157505   4.110   4.420  12.112 -0.2772  0.1595 -0.3928
12030TIP3    H257506   4.250   4.384  12.156 -0.3913  0.0955 -0.0830
12031TIP3   OH257507   4.421   3.779  13.789 -0.0654 -0.0469 -0.3092
12031TIP3    H157508   4.465   3.821  13.863  1.3322 -0.2973 -0.9533
12031TIP3    H257509   4.362   3.715  13.829  0.2750  0.1963  0.5983
12032TIP3   OH257510   0.515   1.438  14.830  0.5833 -0.5635 -0.4320
12032TIP3    H157511   0.488   1.527  14.853  0.7412 -0.6649  0.1571
12032TIP3    H257512   0.468   1.420  14.748 -0.8272 -0.5855  0.3516
12033TIP3   OH257513   6.433   6.427  15.903 -0.1484 -0.3017  0.2846
12033TIP3    H157514   6.501   6.494  15.894  0.1336 -0.5748  0.3756
12033TIP3    H257515   6.353   6.471  15.874  0.5568 -0.9044 -3.0808
12034TIP3   OH257516   3.030   5.743  13.551 -0.6128 -0.0671  0.1067
12034TIP3    H157517   3.002   5.834  13.539  0.2584  0.2778  0.6040
12034TIP3    H257518   3.100   5.747  13.616 -1.1160 -1.1980  0.7522
12035TIP3   OH257519   1.634   3.006  16.305  0.0827 -0.1927 -0.3744
12035TIP3    H157520   1.555   3.046  16.343  0.6100 -0.7626  1.4093
12035TIP3    H257521   1.633   3.034  16.214 -1.0441  1.5985  0.1264
12036TIP3   OH257522   4.611   4.144   4.663 -0.0625  0.1974 -0.4408
12036TIP3    H157523   4.581   4.213   4.722 -0.2838 -1.5636  1.5984
12036TIP3    H257524   4.551   4.149   4.588 -0.1195  2.1227 -0.3221
12037TIP3   OH257525   0.761   6.687   2.650 -0.1376 -0.3677 -0.4479
12037TIP3    H157526   0.692   6.635   2.693 -0.4497 -0.8234 -1.4612
12037TIP3    H257527   0.835   6.627   2.643 -0.3741 -0.5704 -1.2920
12038TIP3   OH257528   5.849   0.867   4.314 -0.5573 -0.4782 -0.5665
12038TIP3    H157529   5.930   0.900   4.353 -0.6663  1.5683 -1.8936
12038TIP3    H257530   5.797   0.837   4.389  1.6274 -2.4909  0.2653
12039TIP3   OH257531   1.502   2.625   1.568  0.0767  0.0194  0.2177
12039TIP3    H157532   1.441   2.602   1.498  0.7859 -0.7132 -0.1747
12039TIP3    H257533   1.524   2.542   1.608 -0.9780  0.5070  1.8980
12040TIP3   OH257534   4.515   6.649  16.138 -0.3702  0.2735 -0.6050
12040TIP3    H157535   4.475   6.609  16.215 -0.7203  0.5181 -0.6593
12040TIP3    H257536   4.603   6.611  16.135  0.6456  2.1717  1.4665
12041TIP3   OH257537   6.114   2.803   2.416  0.3074  0.3861  0.5393
12041TIP3    H157538   6.145   2.724   2.460  1.2664  0.3039 -0.2305
12041TIP3    H257539   6.185   2.866   2.429  0.0671  0.7410  0.1497
12042TIP3   OH257540   4.174   1.586  12.943 -0.2115 -0.7595  0.9546
12042TIP3    H157541   4.202   1.662  12.994  1.8120 -1.1112  0.4324
12042TIP3    H257542   4.234   1.582  12.869 -2.8215 -0.4903 -1.3685
12043TIP3   OH257543   0.623   3.731   3.213 -1.1876  0.8943  0.2374
12043TIP3    H157544   0.647   3.820   3.241  0.3075  1.1466 -1.6240
12043TIP3    H257545   0.698   3.702   3.160 -1.4887 -1.6319  1.0902
12044TIP3   OH257546   2.766   5.736  12.991 -0.1083 -0.8283 -0.0221
12044TIP3    H157547   2.714   5.789  12.931 -0.3145  0.3038  1.1098
12044TIP3    H257548   2.703   5.700  13.052  0.2116 -1.1151  0.1435
12045TIP3   OH257549   6.500   6.269   4.512 -0.0621  0.0700 -0.4675
12045TIP3    H157550   6.592   6.252   4.491  0.0483 -0.2209  0.2437
12045TIP3    H257551   6.494   6.364   4.519  0.4003  0.0401  0.4373
12046TIP3   OH257552   1.756   2.708   1.457  0.1144  0.4153  0.5331
12046TIP3    H157553   1.673   2.667   1.480  0.7989 -0.6233  1.2439
12046TIP3    H257554   1.752   2.720   1.362 -0.1760 -1.1958  0.3176
12047TIP3   OH257555   3.681   1.529   3.251  0.4182  0.3756 -0.5124
12047TIP3    H157556   3.602   1.496   3.295  0.5066  0.2280 -0.4652
12047TIP3    H257557   3.675   1.624   3.261  0.7638  0.3142  0.3799
12048TIP3   OH257558   4.706   4.488  16.022  0.0034 -0.1784 -0.1601
12048TIP3    H157559   4.728   4.551  15.953  0.7590  0.5388  0.7073
12048TIP3    H257560   4.767   4.508  16.093  0.4691 -2.1009  0.0390
12049TIP3   OH257561   2.139   2.403   3.578 -0.2699  0.6600  0.3000
12049TIP3    H157562   2.209   2.363   3.526 -1.3268  0.8902 -1.3955
12049TIP3    H257563   2.177   2.415   3.665  2.5137  2.5782 -1.0063
12050TIP3   OH257564   6.699   2.465  12.702 -0.1411 -0.3399 -0.0798
12050TIP3    H157565   6.752   2.464  12.622  0.6838 -0.6411  0.4543
12050TIP3    H257566   6.740   2.399  12.758 -0.0403  0.6251  1.0125
12051TIP3   OH257567   1.342   0.095  13.942 -0.1770  0.1222  0.0445
12051TIP3    H157568   1.317   0.052  13.860  1.6346 -1.2089  0.1288
12051TIP3    H257569   1.292   0.048  14.009 -0.7712  0.4404 -0.1613
12052TIP3   OH257570   1.953   6.112   6.573 -0.0420  0.6369  0.5824
12052TIP3    H157571   2.029   6.087   6.521 -0.2907  1.4007 -0.1661
12052TIP3    H257572   1.983   6.107   6.664 -0.3937 -3.5715  0.6587
12053TIP3   OH257573   6.130   3.299   3.134  0.2686  0.5170  0.4605
12053TIP3    H157574   6.225   3.311   3.126  0.4137 -1.6531 -2.2795
12053TIP3    H257575   6.094   3.333   3.053 -1.2489  0.5637  1.1115
12054TIP3   OH257576   0.881   3.687   1.829  0.0518  1.2047 -0.4991
12054TIP3    H157577   0.906   3.779   1.826  0.1604  1.1585 -1.0527
12054TIP3    H257578   0.962   3.640   1.850 -0.1780  1.3028  0.6675
12055TIP3   OH257579   0.468   0.659  12.669 -0.4276  0.3470  0.6046
12055TIP3    H157580   0.531   0.635  12.601  0.1260 -0.3408  1.3418
12055TIP3    H257581   0.519   0.663  12.749 -1.5493 -1.7142  1.5045
12056TIP3   OH257582   4.614   1.671  12.396  0.4118  0.4000  0.1821
12056TIP3    H157583   4.539   1.614  12.387  1.1560 -0.5597 -0.1232
12056TIP3    H257584   4.651   1.676  12.307  0.8724  0.6297  0.3805
12057TIP3   OH257585   4.406   3.388  17.179 -0.7641  0.2068 -0.2009
12057TIP3    H157586   4.440   3.462  17.230  0.4452  0.3520 -1.1926
12057TIP3    H257587   4.376   3.326  17.246 -0.5351  0.9970  0.6666
12058TIP3   OH257588   4.406   0.541  14.430  0.0007  0.2849  0.5502
12058TIP3    H157589   4.401   0.473  14.498  0.1330  0.3494  0.6253
12058TIP3    H257590   4.363   0.502  14.354 -0.8092  0.4930  0.8970
12059TIP3   OH257591   6.017   4.923   4.280  0.3909 -0.1042 -0.2586
12059TIP3    H157592   6.013   4.827   4.280  0.9391 -0.1338  0.1636
12059TIP3    H257593   5.932   4.951   4.315  0.4913 -0.4570  0.2835
12060TIP3   OH257594   0.554   1.948  15.588  0.0652  0.3648 -0.8547
12060TIP3    H157595   0.484   1.902  15.634  0.9082  0.0858  0.2081
12060TIP3    H257596   0.536   1.933  15.495 -0.2950 -1.2048 -0.5565
12061TIP3   OH257597   3.240   3.391   2.990 -0.1204 -0.0190  0.2096
12061TIP3    H157598   3.273   3.463   2.936  0.3177  0.5608  1.2099
12061TIP3    H257599   3.154   3.422   3.020  0.7708  0.8533  1.9963
12062TIP3   OH257600   0.596   4.685   2.473  0.2021 -0.1527  0.1609
12062TIP3    H157601   0.595   4.765   2.421  0.0924 -0.1920  0.1038
12062TIP3    H257602   0.504   4.666   2.490  0.2207 -0.3713  0.0145
12063TIP3   OH257603   1.798   4.347  11.287  0.4289 -0.3313  0.3058
12063TIP3    H157604   1.764   4.436  11.273  1.3242  0.2890  1.8268
12063TIP3    H257605   1.892   4.355  11.274  0.4598 -1.1730 -0.0258
12064TIP3   OH257606   0.516   3.017   2.935  0.2598 -0.3829 -0.5720
12064TIP3    H157607   0.496   2.970   3.016 -1.9743  2.0530  0.4467
12064TIP3    H257608   0.460   3.094   2.938  0.3846  0.0300 -4.2924
12065TIP3   OH257609   4.199   4.882   5.225 -0.4555 -0.5020 -0.7801
12065TIP3    H157610   4.207   4.968   5.267 -0.8152 -1.6656  1.8482
12065TIP3    H257611   4.107   4.876   5.198 -0.3784 -0.0113 -1.1729
12066TIP3   OH257612   6.756   4.777  16.634 -0.3481  0.2483  0.1997
12066TIP3    H157613   6.786   4.687  16.648  0.6712  0.5529  0.0615
12066TIP3    H257614   6.826   4.832  16.672 -0.8635  0.9797  0.1117
12067TIP3   OH257615   4.624   1.779  13.812  0.2171 -0.3446 -0.4935
12067TIP3    H157616   4.628   1.690  13.776  1.1368 -0.0645 -1.1077
12067TIP3    H257617   4.709   1.817  13.793  0.2903  0.2578  0.8702
12068TIP3   OH257618   6.720   0.569   5.851  0.1271  0.0805  0.0716
12068TIP3    H157619   6.672   0.498   5.893  0.1969 -0.1600 -0.2522
12068TIP3    H257620   6.784   0.526   5.795  1.7125  0.3830  1.5746
12069TIP3   OH257621   0.208   4.866  13.264  0.4809  0.3332  0.4796
12069TIP3    H157622   0.264   4.856  13.187  0.5673 -0.9507  0.6767
12069TIP3    H257623   0.201   4.777  13.299 -1.5196  0.4972  0.5750
12070TIP3   OH257624   0.405   0.433   0.225 -0.1638 -0.0583  0.3138
12070TIP3    H157625   0.318   0.471   0.241 -0.6751  0.1070 -2.3732
12070TIP3    H257626   0.429   0.465   0.139  2.6579 -0.0540  1.0230
12071TIP3   OH257627   6.243   3.805   5.091 -0.0925  0.0486  0.0376
12071TIP3    H157628   6.322   3.845   5.056  0.5601 -1.7013 -0.5801
12071TIP3    H257629   6.181   3.806   5.018 -1.2051  2.6934  0.9128
12072TIP3   OH257630   2.217   3.345   3.747  0.0388  0.0668  0.1168
12072TIP3    H157631   2.299   3.308   3.713  0.4019 -0.3190  1.3841
12072TIP3    H257632   2.245   3.401   3.820 -0.9750 -1.9766  2.1857
12073TIP3   OH257633   0.534   5.683  12.937  0.4338  0.1731 -0.3669
12073TIP3    H157634   0.509   5.738  13.012  0.0152 -1.0007  0.3729
12073TIP3    H257635   0.452   5.667  12.890  0.4049 -0.5391 -0.0804
12074TIP3   OH257636   5.470   1.969   2.328 -0.0179 -0.2326  0.0305
12074TIP3    H157637   5.416   2.005   2.258  0.1451  0.6899  0.3684
12074TIP3    H257638   5.557   2.005   2.312  0.4477 -1.4668 -0.3378
12075TIP3   OH257639   1.768   6.713   5.956 -0.0441 -0.3795 -0.2274
12075TIP3    H157640   1.766   6.659   6.035 -0.8317  0.3882  0.3040
12075TIP3    H257641   1.680   6.706   5.920 -0.0709  0.2856 -0.3162
12076TIP3   OH257642   6.345   2.083   4.602 -0.2965 -0.4838  0.4071
12076TIP3    H157643   6.367   2.163   4.650  0.7473  0.6518 -1.7675
12076TIP3    H257644   6.422   2.027   4.613  0.2318  0.0532 -0.4349
12077TIP3   OH257645   3.560   2.936   4.605 -0.0392  0.0744 -0.2079
12077TIP3    H157646   3.532   2.846   4.587  2.2162 -0.5007 -1.1689
12077TIP3    H257647   3.570   2.976   4.519  2.0675  0.2028  0.0504
12078TIP3   OH257648   0.690   2.242  12.929 -0.4236 -0.6489  0.5141
12078TIP3    H157649   0.767   2.266  12.876  0.4828  0.6148  2.2953
12078TIP3    H257650   0.616   2.256  12.870  0.6483 -1.4599 -1.1105
12079TIP3   OH257651   3.565   5.461   3.681  0.2587 -0.4596 -0.4990
12079TIP3    H157652   3.557   5.388   3.743 -0.6518  0.0778  0.0234
12079TIP3    H257653   3.480   5.464   3.636  0.0701  0.6463 -0.0982
12080TIP3   OH257654   6.438   0.373  15.856  0.0036 -0.0333 -0.1628
12080TIP3    H157655   6.493   0.451  15.871 -2.0911  1.4511  0.2917
12080TIP3    H257656   6.449   0.354  15.763  0.4751  0.8894 -0.3132
12081TIP3   OH257657   1.457   5.551  12.956  0.8326 -0.2860 -0.5784
12081TIP3    H157658   1.408   5.611  12.900  1.1387  2.2044  1.6272
12081TIP3    H257659   1.405   5.546  13.037  2.1434 -0.9254  0.2656
12082TIP3   OH257660   6.554   0.970  16.245  0.0091  0.4802 -0.1574
12082TIP3    H157661   6.519   1.055  16.271 -3.0482 -0.6869 -0.0899
12082TIP3    H257662   6.584   0.930  16.326  0.6785  1.1216 -0.0763
12083TIP3   OH257663   3.810   5.168  10.855 -0.3281 -0.0979 -0.1247
12083TIP3    H157664   3.798   5.238  10.920  1.7930  0.7473 -0.5639
12083TIP3    H257665   3.736   5.109  10.870 -2.0022  2.0317  0.4960
12084TIP3   OH257666   2.529   4.958  11.226 -0.5415 -0.3939 -0.0802
12084TIP3    H157667   2.475   4.921  11.157 -1.1362  0.5607 -0.1439
12084TIP3    H257668   2.518   5.053  11.217  2.1377 -0.0798 -0.9022
12085TIP3   OH257669   0.568   6.697   0.350  0.0653  0.6402 -0.1827
12085TIP3    H157670   0.653   6.707   0.393 -0.1441  0.6444  0.2380
12085TIP3    H257671   0.541   6.787   0.330  0.2480  0.6268 -0.4944
12086TIP3   OH257672   4.169   5.781  16.880  0.7449 -0.2168 -0.1973
12086TIP3    H157673   4.091   5.783  16.936  2.4738 -0.2313  2.3769
12086TIP3    H257674   4.144   5.831  16.803 -2.1406 -1.1097  0.0347
12087TIP3   OH257675   6.200   5.139  12.480  0.8742  0.6565 -0.0714
12087TIP3    H157676   6.109   5.165  12.464  1.1737  1.6410 -0.2416
12087TIP3    H257677   6.243   5.220  12.508  1.3581 -0.1091  1.5293
12088TIP3   OH257678   0.419   3.788   5.600 -0.2007  0.1626 -0.0122
12088TIP3    H157679   0.443   3.857   5.661 -0.4075  0.7954 -0.6404
12088TIP3    H257680   0.360   3.829   5.537  1.0711 -0.1073 -1.4532
12089TIP3   OH257681   1.994   6.386  14.597 -0.0505 -0.1533 -0.5039
12089TIP3    H157682   1.911   6.427  14.624  0.3311 -0.5036  1.3581
12089TIP3    H257683   2.044   6.458  14.559 -0.9889  0.1893 -1.1250
12090TIP3   OH257684   0.206   0.271   2.126 -0.2557  0.1065 -0.0673
12090TIP3    H157685   0.166   0.185   2.126  1.0145 -0.5096  0.0867
12090TIP3    H257686   0.216   0.293   2.034  1.4536 -0.9364 -0.1802
12091TIP3   OH257687   4.658   4.878  11.826  0.1551  0.1781  0.4765
12091TIP3    H157688   4.620   4.962  11.799 -0.6481  0.0514  1.1547
12091TIP3    H257689   4.598   4.845  11.894  1.1526 -0.3376  1.1391
12092TIP3   OH257690   3.762   2.845  15.745 -0.0499 -0.7903  0.2471
12092TIP3    H157691   3.812   2.916  15.785 -2.2007 -0.2516  2.2192
12092TIP3    H257692   3.780   2.769  15.801 -1.0869 -0.6895  0.7317
12093TIP3   OH257693   1.570   3.500   0.710  0.5184  0.3877  0.4589
12093TIP3    H157694   1.634   3.466   0.772  1.1234  1.4645  0.4625
12093TIP3    H257695   1.567   3.436   0.639 -0.2923 -0.9309  1.6522
12094TIP3   OH257696   3.602   5.783   2.464  0.2195 -0.1300 -0.4160
12094TIP3    H157697   3.594   5.742   2.379  0.9056 -2.2712  0.5014
12094TIP3    H257698   3.671   5.735   2.509 -0.1127  0.9320  1.3568
12095TIP3   OH257699   3.240   1.161   2.044 -0.2466  0.5050  0.1056
12095TIP3    H157700   3.192   1.154   1.961  0.4909 -0.4423 -0.2597
12095TIP3    H257701   3.193   1.228   2.093 -1.9318 -0.3681 -0.2413
12096TIP3   OH257702   3.432   2.416  14.204  0.5394 -0.5687 -0.2659
12096TIP3    H157703   3.468   2.416  14.115  1.8037 -2.2348  0.2081
12096TIP3    H257704   3.505   2.441  14.259 -0.6314  2.0284  0.2366
12097TIP3   OH257705   0.019   6.662   0.371  0.0633 -0.0389  0.1577
12097TIP3    H157706   0.108   6.698   0.366  0.1569 -0.3511 -0.6780
12097TIP3    H257707  -0.031   6.714   0.307  0.1123 -1.1153 -0.7820
12098TIP3   OH257708   5.228   3.919   0.230  0.6286 -0.0055 -0.6563
12098TIP3    H157709   5.287   3.844   0.231 -0.9494 -1.3167 -0.1613
12098TIP3    H257710   5.261   3.977   0.299 -0.0999 -1.9446  1.4676
12099TIP3   OH257711   4.877   1.753   4.307  0.0867  0.4330 -0.7872
12099TIP3    H157712   4.943   1.784   4.245 -0.5049  0.4932 -1.4092
12099TIP3    H257713   4.918   1.679   4.352  0.6487  0.6068 -1.0120
12100TIP3   OH257714   0.691   4.326  11.703  0.1945  0.3102 -0.2368
12100TIP3    H157715   0.639   4.382  11.645  0.3637  0.3402 -0.3587
12100TIP3    H257716   0.626   4.275  11.751 -0.0110  1.3981  0.6785
12101TIP3   OH257717   5.811   5.879  11.144 -0.0747 -1.0034  0.1828
12101TIP3    H157718   5.800   5.788  11.118 -0.2991 -0.8529 -0.2487
12101TIP3    H257719   5.867   5.917  11.077 -0.4142 -0.6894  0.0721
12102TIP3   OH257720   1.963   2.540  11.750 -0.5785  0.0600  0.5845
12102TIP3    H157721   2.057   2.554  11.746  0.1074 -3.5349  0.8564
12102TIP3    H257722   1.932   2.603  11.815  1.9740  0.0178  1.9692
12103TIP3   OH257723   5.478   0.676  11.138  0.3616  0.5607 -0.9959
12103TIP3    H157724   5.540   0.713  11.201  1.1148 -0.4644 -1.1126
12103TIP3    H257725   5.461   0.588  11.169  0.2804  0.2480 -1.8938
12104TIP3   OH257726   5.477   0.760  13.745  0.6881  0.3176 -0.1565
12104TIP3    H157727   5.423   0.837  13.759  2.6423  1.5868  0.8536
12104TIP3    H257728   5.483   0.719  13.831 -0.5942 -1.2024 -0.7471
12105TIP3   OH257729   3.931   5.718   3.186  0.2432  0.2328  0.2083
12105TIP3    H157730   3.907   5.803   3.151 -1.3623 -0.8947 -1.6041
12105TIP3    H257731   3.849   5.668   3.187  1.0454 -1.1667  1.6779
12106TIP3   OH257732   6.405   6.569  11.818  0.2628 -0.0676  0.4215
12106TIP3    H157733   6.325   6.614  11.790 -0.3386 -1.0717  0.4823
12106TIP3    H257734   6.464   6.575  11.743 -0.2019 -0.1014  0.0535
12107TIP3   OH257735   1.633   1.324   3.484 -0.1902 -0.1452  0.4115
12107TIP3    H157736   1.547   1.367   3.493 -0.9372 -1.0850 -1.6611
12107TIP3    H257737   1.620   1.236   3.519  0.3431  0.1578  1.3923
12108TIP3   OH257738   0.555   2.457  11.738 -0.1993 -0.3008 -0.0537
12108TIP3    H157739   0.586   2.539  11.700  1.8898 -0.9939  0.0196
12108TIP3    H257740   0.566   2.469  11.833 -0.5777 -0.4162  0.0076
12109TIP3   OH257741   0.404   5.297   2.589  0.6628  0.2948 -0.8845
12109TIP3    H157742   0.431   5.235   2.656  0.7404  0.2766 -0.9326
12109TIP3    H257743   0.449   5.378   2.612  0.3243  0.4168 -0.6494
12110TIP3   OH257744   2.343   6.606  14.309  0.2278  0.7504 -0.2093
12110TIP3    H157745   2.399   6.532  14.331 -0.2993  0.4478  0.1263
12110TIP3    H257746   2.384   6.681  14.351  0.4928  0.5648 -0.1356
12111TIP3   OH257747   4.787   3.477  13.382 -0.1419 -0.1159  0.3980
12111TIP3    H157748   4.791   3.388  13.348  1.4478  0.2183 -0.4069
12111TIP3    H257749   4.725   3.522  13.324  1.2017 -0.0124 -1.0299
12112TIP3   OH257750   2.887   0.814  15.149 -0.8302  0.6375 -1.2167
12112TIP3    H157751   2.934   0.879  15.097  0.0218 -0.5256 -1.9406
12112TIP3    H257752   2.951   0.785  15.215 -0.0374 -1.7893 -2.9064
12113TIP3   OH257753   5.476   0.212   5.453  0.4397  0.3220 -0.1639
12113TIP3    H157754   5.472   0.154   5.529  0.1037  0.8453  0.2260
12113TIP3    H257755   5.412   0.280   5.472 -0.4258 -0.0999 -1.3941
12114TIP3   OH257756   3.956   0.668   2.968  0.1997  0.1237  0.5519
12114TIP3    H157757   4.007   0.629   3.039 -0.0379 -1.2384  0.0091
12114TIP3    H257758   3.954   0.762   2.988  0.5793 -0.1618  2.0581
12115TIP3   OH257759   3.355   2.742  17.085 -0.1809  0.2384 -0.7451
12115TIP3    H157760   3.365   2.774  17.174 -0.7103 -0.4497 -0.4311
12115TIP3    H257761   3.290   2.672  17.091  0.4303 -0.4294 -1.5118
12116TIP3   OH257762   1.148   3.161   3.125 -0.3324  0.7509  0.5747
12116TIP3    H157763   1.123   3.220   3.054 -0.7283  2.0150  1.7344
12116TIP3    H257764   1.155   3.075   3.083 -0.8030  1.4207 -0.9386
12117TIP3   OH257765   0.487   3.870   0.783 -0.3676  0.2382  0.3225
12117TIP3    H157766   0.438   3.789   0.768  0.7471 -0.3562 -0.1467
12117TIP3    H257767   0.532   3.887   0.701 -0.5033  1.2978  0.4441
12118TIP3   OH257768   6.724   1.352   0.514  0.7913 -0.4239  0.1218
12118TIP3    H157769   6.780   1.276   0.500  1.9845  0.0729  1.8292
12118TIP3    H257770   6.701   1.348   0.607 -0.1544  0.6233 -0.0450
12119TIP3   OH257771   6.116   5.654   4.478  0.1822  0.0173  0.3865
12119TIP3    H157772   6.162   5.585   4.432 -0.5517 -0.9062  0.9994
12119TIP3    H257773   6.054   5.608   4.536 -1.1973  1.1831 -0.0896
12120TIP3   OH257774   6.123   5.733   0.967  0.4013  0.5566  0.1871
12120TIP3    H157775   6.179   5.805   0.996  1.9002 -0.8105  0.8141
12120TIP3    H257776   6.080   5.702   1.047 -0.6026  1.0243 -0.1541
12121TIP3   OH257777   5.424   1.143   4.550  0.0458  0.0221  0.4682
12121TIP3    H157778   5.330   1.148   4.571  0.4775  2.2358  2.2359
12121TIP3    H257779   5.443   1.224   4.503  1.0567 -0.5357 -0.1239
12122TIP3   OH257780   0.450   1.108   0.973 -0.2424 -0.4874 -0.7209
12122TIP3    H157781   0.542   1.114   1.000  0.0479  1.0276 -1.9194
12122TIP3    H257782   0.416   1.034   1.022  1.1608 -0.0215  1.0708
12123TIP3   OH257783   3.414   1.030  14.160  0.5155  0.2207  0.1353
12123TIP3    H157784   3.422   0.967  14.232  0.8018 -0.2654 -0.3154
12123TIP3    H257785   3.327   1.068  14.171  0.6509  0.3305  0.8821
12124TIP3   OH257786   1.405   5.009  13.301  0.3687 -0.3136  0.0138
12124TIP3    H157787   1.394   5.078  13.367  0.2829 -0.6912  0.4016
12124TIP3    H257788   1.346   5.035  13.230  1.4491  0.8004 -0.5153
12125TIP3   OH257789   5.569   2.050   1.148  0.2858 -0.2438  0.2337
12125TIP3    H157790   5.484   2.074   1.183  0.1459 -0.2814 -0.0786
12125TIP3    H257791   5.570   2.086   1.059  0.2901 -0.9203 -0.0410
12126TIP3   OH257792   1.442   5.063   1.530 -0.5584 -0.3844  0.0246
12126TIP3    H157793   1.502   5.102   1.594 -2.2750  0.4381  1.2149
12126TIP3    H257794   1.493   5.058   1.449  1.6016 -1.1772  1.3277
12127TIP3   OH257795   0.488   6.271  12.577 -0.4575  0.2633 -0.2390
12127TIP3    H157796   0.571   6.313  12.595 -0.8887  1.8285 -1.6805
12127TIP3    H257797   0.469   6.220  12.656  1.1957  0.9465  0.6415
12128TIP3   OH257798   4.046   4.788  15.902  0.1210 -0.3095 -0.0669
12128TIP3    H157799   4.120   4.810  15.958 -0.8474  1.5986  0.5631
12128TIP3    H257800   3.976   4.765  15.964 -0.5603  0.4759 -0.5341
12129TIP3   OH257801   5.052   0.314   3.843  0.6952 -0.7512  0.3015
12129TIP3    H157802   5.145   0.312   3.822  0.0896 -1.1785 -2.8199
12129TIP3    H257803   5.021   0.225   3.823 -0.8151  0.0934 -1.3850
12130TIP3   OH257804   6.766   4.954  15.830  0.2253 -0.2873 -1.0472
12130TIP3    H157805   6.676   4.983  15.814  0.1315  0.0251 -0.0408
12130TIP3    H257806   6.819   5.030  15.808  0.3892 -0.9109 -3.0020
12131TIP3   OH257807   0.344   0.718   1.833  0.3520 -0.1661  0.4102
12131TIP3    H157808   0.345   0.623   1.821 -0.4887 -0.3093  1.3143
12131TIP3    H257809   0.424   0.737   1.881  0.9996 -0.2809 -0.5926
12132TIP3   OH257810   3.839   4.264  15.869 -0.4712  0.3830  0.6007
12132TIP3    H157811   3.907   4.205  15.835  1.4252  2.5667  0.3567
12132TIP3    H257812   3.757   4.226  15.838  0.7849 -1.0732 -1.1663
12133TIP3   OH257813   0.746   0.481  16.521  0.7684 -0.1735  0.3692
12133TIP3    H157814   0.770   0.569  16.550  4.4241 -0.6155 -0.7105
12133TIP3    H257815   0.804   0.423  16.570  0.7979 -1.6581 -1.2857
12134TIP3   OH257816   6.038   3.746  16.666 -0.1444 -0.0388 -0.4982
12134TIP3    H157817   5.955   3.700  16.665  0.4872 -1.2128 -0.4697
12134TIP3    H257818   6.093   3.700  16.602  0.4526  0.7779 -0.6014
12135TIP3   OH257819   5.746   3.283  12.493  0.6071 -0.4884  0.4470
12135TIP3    H157820   5.769   3.290  12.401  1.4470  1.1387  0.7509
12135TIP3    H257821   5.825   3.247  12.534  0.8316  0.3692  0.7706
12136TIP3   OH257822   0.827   4.185   3.739 -0.1704 -0.0684  0.3381
12136TIP3    H157823   0.778   4.120   3.790  1.7083 -0.3612  1.8666
12136TIP3    H257824   0.882   4.133   3.681  1.4351  0.0810  1.6545
12137TIP3   OH257825   5.819   0.698   4.889  0.1902  0.1117  0.0703
12137TIP3    H157826   5.751   0.717   4.953 -2.0491 -0.6807 -1.8983
12137TIP3    H257827   5.802   0.607   4.863  0.2171  0.7692 -2.4684
12138TIP3   OH257828   5.678   2.159  16.749  0.5944  0.3119  0.5998
12138TIP3    H157829   5.705   2.174  16.839  2.1869  1.1945  0.0223
12138TIP3    H257830   5.652   2.246  16.717  1.8046  0.3896 -0.2899
12139TIP3   OH257831   2.965   2.894  11.650  0.5731 -0.0370 -0.2534
12139TIP3    H157832   3.025   2.957  11.611  0.7051 -0.4455 -0.7218
12139TIP3    H257833   2.882   2.906  11.604 -0.7701  2.7861  2.5368
12140TIP3   OH257834   3.219   4.623  12.769 -0.1905  0.2704  0.8152
12140TIP3    H157835   3.293   4.607  12.710 -1.2010  0.6761 -0.6050
12140TIP3    H257836   3.216   4.718  12.778 -0.3815  0.2386  1.1100
12141TIP3   OH257837   6.194   0.486   2.277 -0.0067 -0.2005 -0.0013
12141TIP3    H157838   6.146   0.563   2.246 -0.3799 -0.1976  0.5605
12141TIP3    H257839   6.275   0.522   2.313 -0.3885 -0.0102  0.6919
12142TIP3   OH257840   2.820   5.123  14.651  0.3490  0.0136 -0.4262
12142TIP3    H157841   2.905   5.162  14.630  0.7932  0.5400  2.0415
12142TIP3    H257842   2.783   5.181  14.717  0.1413 -2.6240  1.9582
12143TIP3   OH257843   5.146   4.144  12.231 -0.4617  0.0284  0.1788
12143TIP3    H157844   5.196   4.125  12.311 -0.4019  2.6877  0.8858
12143TIP3    H257845   5.065   4.096  12.242  0.2901 -1.1169  0.9629
12144TIP3   OH257846   5.349   4.276   0.946  0.5385  0.9161  0.0098
12144TIP3    H157847   5.364   4.181   0.942  0.4955  0.5720  3.8492
12144TIP3    H257848   5.368   4.307   0.858  0.7710 -2.6143 -1.3512
12145TIP3   OH257849   5.612   5.972   0.284 -0.2529 -0.1751 -0.0543
12145TIP3    H157850   5.696   5.971   0.330  0.1123 -0.7298 -0.7142
12145TIP3    H257851   5.562   5.901   0.323 -0.1138 -0.3562 -0.2064
12146TIP3   OH257852   2.051   6.290   2.501 -0.0002  0.3304  0.0739
12146TIP3    H157853   2.147   6.286   2.499  0.0639  0.9926  1.0845
12146TIP3    H257854   2.031   6.383   2.512 -0.8118  0.3769 -1.5178
12147TIP3   OH257855   2.506   2.377  10.725 -0.1913 -0.3490  0.0340
12147TIP3    H157856   2.566   2.334  10.664 -1.4433 -1.8866 -0.2030
12147TIP3    H257857   2.486   2.461  10.685  1.4985  0.0557 -0.0415
12148TIP3   OH257858   2.006   5.907  13.295 -0.1204 -0.2281  0.6388
12148TIP3    H157859   1.962   5.907  13.210 -0.3474 -0.5904  0.7502
12148TIP3    H257860   2.021   5.999  13.316 -2.6674  0.0527  1.5367
12149TIP3   OH257861   4.207   0.946  14.787  0.1167 -0.9312  0.5034
12149TIP3    H157862   4.280   0.979  14.839  1.6869 -2.1359 -0.8330
12149TIP3    H257863   4.190   1.015  14.722 -0.2931 -0.4299  1.1367
12150TIP3   OH257864   3.877   4.224   4.333 -0.4037 -0.3732  0.3880
12150TIP3    H157865   3.792   4.258   4.361 -1.0294 -0.2810 -1.5048
12150TIP3    H257866   3.862   4.131   4.319 -0.0761 -0.4340  0.4279
12151TIP3   OH257867   5.964   2.831  10.590  0.4308  0.9332  0.3696
12151TIP3    H157868   5.943   2.749  10.543 -2.2092  1.6853  0.0862
12151TIP3    H257869   6.040   2.809  10.643  1.4892 -0.9307 -1.7261
12152TIP3   OH257870   5.056   4.863  15.869 -0.0111 -0.4815  0.3227
12152TIP3    H157871   5.001   4.822  15.936 -1.3114  0.7690  0.0467
12152TIP3    H257872   5.012   4.945  15.848  1.3147 -0.0252 -0.8109
12153TIP3   OH257873   4.827   1.531  12.586 -0.1202 -0.4235  0.3940
12153TIP3    H157874   4.901   1.525  12.526 -0.3058  0.3916  0.0783
12153TIP3    H257875   4.797   1.622  12.580  0.6174  0.0245  2.6401
12154TIP3   OH257876   2.720   2.960   0.155  0.0316 -0.0447  0.0774
12154TIP3    H157877   2.627   2.940   0.143  0.3524 -2.4291  1.0751
12154TIP3    H257878   2.728   2.984   0.247  0.1805  1.9682 -0.4014
12155TIP3   OH257879   0.247   2.791  16.949  0.4061  0.1725  0.1069
12155TIP3    H157880   0.204   2.756  16.870 -1.2666  1.4852  0.3835
12155TIP3    H257881   0.190   2.763  17.021  0.3198  1.4284  0.5512
12156TIP3   OH257882   6.210   6.136   1.043 -0.9446  0.0741 -0.6572
12156TIP3    H157883   6.275   6.203   1.065 -0.5636 -0.5943  0.3034
12156TIP3    H257884   6.251   6.086   0.972 -1.4602  1.1774 -1.7668
12157TIP3   OH257885   5.363   0.243   2.832  1.1302  0.6531 -0.1779
12157TIP3    H157886   5.347   0.214   2.922  1.7369 -0.7909 -0.5134
12157TIP3    H257887   5.456   0.228   2.818  1.0205  0.7988 -1.0850
12158TIP3   OH257888   2.242   3.126  12.324  0.3300 -0.2410 -0.6108
12158TIP3    H157889   2.152   3.135  12.293  0.2106  0.5362 -0.0620
12158TIP3    H257890   2.245   3.039  12.365 -0.6309  0.3473  0.8009
12159TIP3   OH257891   6.572   2.545  14.168  0.7309  0.1932 -0.1837
12159TIP3    H157892   6.643   2.501  14.214 -0.5508 -0.2286  1.5186
12159TIP3    H257893   6.495   2.492  14.187 -0.1428  0.8980 -1.5672
12160TIP3   OH257894   2.410   3.348   4.979 -0.4028  0.6789  0.2912
12160TIP3    H157895   2.400   3.341   5.074  0.7322  2.4373  0.5811
12160TIP3    H257896   2.379   3.264   4.946 -2.6552  0.7054  2.0538
12161TIP3   OH257897   6.034   3.770   3.785  0.2023  0.3347 -0.3342
12161TIP3    H157898   5.947   3.810   3.782 -0.1105 -0.1225  1.4624
12161TIP3    H257899   6.084   3.826   3.845  0.8111 -0.0454 -0.4768
12162TIP3   OH257900   4.720   3.959  15.985  0.4967 -0.6615 -0.1689
12162TIP3    H157901   4.679   4.022  15.925 -1.6402 -1.2321  0.6013
12162TIP3    H257902   4.798   4.004  16.017 -0.3289  1.1323 -0.5354
12163TIP3   OH257903   2.152   1.796   3.379 -0.0243 -0.8717  0.5379
12163TIP3    H157904   2.113   1.851   3.448  3.2216  1.0849  1.0427
12163TIP3    H257905   2.217   1.743   3.425  0.8942 -0.9120 -0.7574
12164TIP3   OH257906   0.448   1.000   0.527  0.4388 -0.4523  0.0425
12164TIP3    H157907   0.534   0.970   0.496  0.2653  0.0196 -0.9374
12164TIP3    H257908   0.469   1.074   0.585  0.7520 -1.1478  0.8387
12165TIP3   OH257909   2.231   0.482   4.804 -0.1982  0.1102 -0.6731
12165TIP3    H157910   2.266   0.517   4.721  0.7528 -1.3983 -0.9503
12165TIP3    H257911   2.304   0.490   4.865  0.1842 -1.6326 -0.8382
12166TIP3   OH257912   6.074   1.954  17.061  0.0370 -0.0447 -0.7297
12166TIP3    H157913   5.988   1.967  17.100 -0.1159 -0.2921 -0.9770
12166TIP3    H257914   6.058   1.958  16.967 -0.0702 -2.1684 -0.8565
12167TIP3   OH257915   0.932   6.410  15.474 -0.8183 -0.0092 -0.4183
12167TIP3    H157916   0.847   6.451  15.456 -0.3082  0.8158 -1.0299
12167TIP3    H257917   0.978   6.412  15.390  0.1427  0.3650  0.0977
12168TIP3   OH257918   1.796   4.276  14.333 -0.9242  0.3976 -0.0572
12168TIP3    H157919   1.733   4.222  14.284 -2.2747  0.9804  0.9665
12168TIP3    H257920   1.747   4.355  14.355  0.2084  0.9063  0.7213
12169TIP3   OH257921   5.545   5.580  11.516  0.2034  0.2846 -0.2052
12169TIP3    H157922   5.599   5.598  11.592  0.1796  1.6226 -0.4738
12169TIP3    H257923   5.511   5.492  11.530  2.7643 -0.7791 -0.2302
12170TIP3   OH257924   0.738   0.482   2.113 -0.2678  0.7135  0.3334
12170TIP3    H157925   0.689   0.555   2.073 -1.5321 -0.1294  0.2889
12170TIP3    H257926   0.695   0.404   2.079  0.1900 -0.0451  1.4608
12171TIP3   OH257927   3.421   4.159   4.207 -0.6735  0.2881  0.7369
12171TIP3    H157928   3.333   4.135   4.233 -1.2591  1.4009 -0.1416
12171TIP3    H257929   3.476   4.134   4.282 -1.5293 -1.5226  0.8144
12172TIP3   OH257930   3.125   6.420   5.620 -0.3461 -0.3637 -0.2164
12172TIP3    H157931   3.041   6.459   5.643 -0.1020  0.9661 -1.4111
12172TIP3    H257932   3.188   6.463   5.678 -0.2998 -0.2204 -0.3713
12173TIP3   OH257933   0.011   0.731  15.455 -0.1440  0.0713 -0.1911
12173TIP3    H157934   0.084   0.672  15.473  1.8499  1.2406 -3.5521
12173TIP3    H257935   0.038   0.815  15.493  0.6184  0.6435 -1.8998
12174TIP3   OH257936   0.282   6.072   0.789  0.5244  0.0162 -0.2563
12174TIP3    H157937   0.340   5.997   0.798  0.0677 -0.4985 -1.4463
12174TIP3    H257938   0.205   6.050   0.842  0.9031  0.1857  0.3708
12175TIP3   OH257939   0.953   4.438   4.250  0.5671 -0.1790 -0.5072
12175TIP3    H157940   0.912   4.429   4.164 -0.8318 -0.0268  0.1103
12175TIP3    H257941   0.921   4.363   4.300 -0.1332  0.6991  0.4254
12176TIP3   OH257942   0.785   3.284   3.709  0.8735  0.0214  0.2254
12176TIP3    H157943   0.716   3.255   3.650  0.7307  0.7096  0.0511
12176TIP3    H257944   0.861   3.230   3.685 -0.1702 -2.4349  1.9608
12177TIP3   OH257945   3.708   0.649  12.134  0.0383  0.1181 -0.3665
12177TIP3    H157946   3.612   0.657  12.136  0.0917  0.7107  0.3670
12177TIP3    H257947   3.739   0.738  12.149  0.6956 -0.3724  1.4143
12178TIP3   OH257948   4.523   4.741   5.518  0.3055 -0.5121  0.0592
12178TIP3    H157949   4.611   4.768   5.547 -0.2970  2.1419 -0.3528
12178TIP3    H257950   4.491   4.815   5.467 -2.3848 -1.2062  0.6088
12179TIP3   OH257951   4.116   6.017  14.396  0.7490  0.0084 -0.3023
12179TIP3    H157952   4.056   6.086  14.368 -1.5348 -1.2011  1.1999
12179TIP3    H257953   4.158   6.052  14.475  1.7336  0.7048 -1.1208
12180TIP3   OH257954   0.643   5.176  13.768 -0.0816  0.9776 -0.3898
12180TIP3    H157955   0.641   5.198  13.861  0.2506  0.5134 -0.2717
12180TIP3    H257956   0.734   5.157  13.749 -0.3631 -0.4096 -0.4516
12181TIP3   OH257957   6.588   5.835   1.243 -0.2806 -0.3397 -0.0230
12181TIP3    H157958   6.497   5.853   1.216 -0.0534  1.8952  0.4674
12181TIP3    H257959   6.580   5.777   1.318 -1.4269  0.7607  0.7603
12182TIP3   OH257960   2.256   2.128  14.420  0.1337  0.4273 -0.8532
12182TIP3    H157961   2.248   2.172  14.505 -0.0409  0.5229 -0.9181
12182TIP3    H257962   2.311   2.186  14.368 -0.4433  0.7849 -1.0787
12183TIP3   OH257963   3.072   3.333  12.531 -0.2147 -0.2664 -0.3684
12183TIP3    H157964   3.104   3.270  12.596  1.9642  0.7635 -0.3514
12183TIP3    H257965   3.035   3.404  12.583  1.0230  0.2982 -0.2162
12184TIP3   OH257966   2.099   2.399   6.359  0.5329 -0.0455  0.0583
12184TIP3    H157967   2.086   2.304   6.352  2.1286 -0.3850  1.1655
12184TIP3    H257968   2.020   2.431   6.402 -0.9860 -0.5247 -2.1912
12185TIP3   OH257969   2.865   0.191   0.126  0.4436  0.2195  0.1755
12185TIP3    H157970   2.771   0.205   0.136  0.7226  1.2890  1.4720
12185TIP3    H257971   2.895   0.267   0.076  1.0535  1.4845  2.3375
12186TIP3   OH257972   4.546   6.420  10.723 -0.1675 -0.3006  0.5160
12186TIP3    H157973   4.480   6.468  10.773  1.0945  2.3228 -0.1518
12186TIP3    H257974   4.496   6.376  10.654 -1.4446 -0.3489  1.4355
12187TIP3   OH257975   3.112   3.297   0.661  0.3304 -0.2027  0.1939
12187TIP3    H157976   3.157   3.380   0.649  1.1145 -0.5173  0.8925
12187TIP3    H257977   3.180   3.235   0.687 -0.1302 -1.2263 -0.9093
12188TIP3   OH257978   5.395   6.250   4.825  0.1367  0.3911 -0.3030
12188TIP3    H157979   5.420   6.288   4.909  0.9238 -1.9135  0.5922
12188TIP3    H257980   5.365   6.161   4.847 -2.4281  0.6700 -2.1486
12189TIP3   OH257981   4.628   1.717   3.306 -0.0823  0.5009 -0.4822
12189TIP3    H157982   4.639   1.685   3.216 -0.0851 -0.5787 -0.1026
12189TIP3    H257983   4.536   1.746   3.310  0.9482  4.8016 -2.1360
12190TIP3   OH257984   0.762   1.559   1.548  0.5415 -0.3232 -0.0605
12190TIP3    H157985   0.759   1.637   1.493  2.7630  0.0239  0.2102
12190TIP3    H257986   0.674   1.522   1.542  0.4925  0.0067 -3.4016
12191TIP3   OH257987   4.093   3.406   4.985  0.6012  0.7454  0.4415
12191TIP3    H157988   4.005   3.422   5.018 -0.6116 -2.3729 -0.9915
12191TIP3    H257989   4.091   3.437   4.894  0.5816 -0.4382  0.0288
12192TIP3   OH257990   2.352   1.657   4.938  0.0320  0.4639  0.3605
12192TIP3    H157991   2.309   1.739   4.964  0.4436  0.4315  1.1591
12192TIP3    H257992   2.322   1.642   4.848 -0.7239  1.0406  0.5063
12193TIP3   OH257993   6.240   1.906   4.095  0.0934  0.1065  0.1395
12193TIP3    H157994   6.194   1.924   4.177  1.8833 -1.0060  1.4373
12193TIP3    H257995   6.203   1.823   4.065  0.7269 -0.4298  0.8120
12194TIP3   OH257996   2.917   3.008   2.543 -0.5513  0.0537  0.2315
12194TIP3    H157997   3.003   2.966   2.543 -0.9297 -0.7645  0.8472
12194TIP3    H257998   2.858   2.939   2.511 -1.0805  0.3800  0.4986
12195TIP3   OH257999   6.506   5.509   4.746  0.1836 -0.3454  0.2527
12195TIP3    H158000   6.550   5.531   4.664  0.4630  0.0040  0.4954
12195TIP3    H258001   6.554   5.558   4.813 -0.4450 -0.1300  0.5461
12196TIP3   OH258002   4.703   5.424  16.955 -0.7386 -0.1351  0.1085
12196TIP3    H158003   4.651   5.437  16.875  1.4374 -0.3407 -1.4250
12196TIP3    H258004   4.791   5.454  16.931 -0.0109 -0.2133  2.4548
12197TIP3   OH258005   2.448   4.232  11.757  0.0559  0.3335 -0.1313
12197TIP3    H158006   2.372   4.175  11.750 -0.2519  0.7366 -0.1504
12197TIP3    H258007   2.523   4.176  11.739 -0.2077 -0.1552  0.2983
12198TIP3   OH258008   3.573   3.227   3.866 -0.3209  0.3096 -0.5376
12198TIP3    H158009   3.620   3.237   3.783  0.4202 -0.6729 -0.2543
12198TIP3    H258010   3.510   3.299   3.867 -2.2896 -1.1898 -3.2497
12199TIP3   OH258011   5.534   2.567   3.183 -0.4251 -0.5052  0.1014
12199TIP3    H158012   5.550   2.594   3.273  0.1702 -0.8928  0.1125
12199TIP3    H258013   5.591   2.623   3.130  0.0493 -1.0382  0.0483
12200TIP3   OH258014   5.759   1.864   2.659  0.1575 -0.1904 -0.8758
12200TIP3    H158015   5.789   1.784   2.704  2.4843  0.7054 -0.6835
12200TIP3    H258016   5.671   1.878   2.693  1.2735 -0.3137  2.5215
12201TIP3   OH258017   2.359   2.893   5.533 -0.6456 -0.4999  0.3805
12201TIP3    H158018   2.334   2.983   5.515 -0.0577 -0.7093 -1.6255
12201TIP3    H258019   2.303   2.840   5.476 -1.1909 -1.4649  1.7324
12202TIP3   OH258020   6.558   3.737   1.462 -0.0161  0.1716  0.2623
12202TIP3    H158021   6.653   3.751   1.464  0.1950 -1.0898 -0.1055
12202TIP3    H258022   6.534   3.745   1.370 -0.3802  1.1060  0.4299
12203TIP3   OH258023   4.672   4.879  11.389 -0.1092  0.0451  0.3352
12203TIP3    H158024   4.662   4.873  11.294  1.6552 -1.6460  0.1835
12203TIP3    H258025   4.766   4.864  11.403 -0.4070 -0.0691  2.3713
12204TIP3   OH258026   1.754   2.959  11.789  0.2963  0.0845  0.0507
12204TIP3    H158027   1.688   3.021  11.758 -0.4430  0.4598  2.1983
12204TIP3    H258028   1.837   2.991  11.753 -0.2423  1.6264  0.1106
12205TIP3   OH258029   6.470   4.438   3.763 -0.0236  0.0876  0.0705
12205TIP3    H158030   6.494   4.487   3.684 -0.5777 -1.4935 -1.1419
12205TIP3    H258031   6.384   4.402   3.744  0.7578 -2.1844  0.4369
12206TIP3   OH258032   5.320   0.983  12.644  0.9265  0.0989 -0.1175
12206TIP3    H158033   5.254   0.932  12.689  1.7431 -1.4472 -0.6062
12206TIP3    H258034   5.307   0.963  12.551  0.6303  1.5785 -0.4275
12207TIP3   OH258035   0.529   5.128   1.752 -0.3471  0.2829  0.0587
12207TIP3    H158036   0.466   5.104   1.684  1.6760 -0.4553 -1.6365
12207TIP3    H258037   0.560   5.215   1.726  1.0804 -0.3725 -0.4729
12208TIP3   OH258038   1.442   1.970   4.331  0.0231  0.4975 -0.5016
12208TIP3    H158039   1.371   2.008   4.382 -0.7947 -2.5521  0.8601
12208TIP3    H258040   1.406   1.961   4.242 -0.4175  1.0790 -0.3885
12209TIP3   OH258041   1.106   6.722   4.096 -0.9293  0.1067 -0.3794
12209TIP3    H158042   1.128   6.658   4.164 -1.4407  1.1928  0.8404
12209TIP3    H258043   1.097   6.805   4.143 -1.8820  0.7725 -1.6860
12210TIP3   OH258044   6.372   4.642  15.923  0.0515  0.4564  0.1612
12210TIP3    H158045   6.301   4.669  15.865  2.3549 -1.0418 -3.6749
12210TIP3    H258046   6.337   4.567  15.971 -1.8918  1.6881  0.8114
12211TIP3   OH258047   4.550   0.159  11.907 -0.1668 -0.2847 -0.5618
12211TIP3    H158048   4.497   0.099  11.959 -0.9051  1.4963  0.8824
12211TIP3    H258049   4.628   0.109  11.883 -0.5864 -1.6978  0.8745
12212TIP3   OH258050   6.183   4.774  14.950 -0.0214 -0.0009  0.1078
12212TIP3    H158051   6.119   4.722  14.999  0.7139 -1.6111 -0.5845
12212TIP3    H258052   6.132   4.815  14.880 -0.7196  0.7610  1.0252
12213TIP3   OH258053   6.550   4.572  11.143  0.8046 -0.1265 -0.8367
12213TIP3    H158054   6.477   4.589  11.202  0.7528  3.5168 -1.6865
12213TIP3    H258055   6.626   4.610  11.187  1.2171  0.4510 -1.9950
12214TIP3   OH258056   1.655   5.470   2.275 -0.3568  0.1222  0.2011
12214TIP3    H158057   1.579   5.521   2.302 -0.2613  0.0628  0.5836
12214TIP3    H258058   1.715   5.476   2.349 -1.2848 -2.4685  1.2587
12215TIP3   OH258059   0.314   2.001  14.830 -0.1188  0.0452 -0.3033
12215TIP3    H158060   0.243   1.972  14.773 -0.2681 -2.8757  1.2009
12215TIP3    H258061   0.272   2.015  14.915  1.0333 -1.9089  0.6532
12216TIP3   OH258062   0.218   0.548   3.460 -0.5764  0.0809  0.2656
12216TIP3    H158063   0.169   0.542   3.379  1.5014 -1.4070 -0.9812
12216TIP3    H258064   0.223   0.458   3.492  0.7222  0.2760  0.6961
12217TIP3   OH258065   0.172   1.618   0.375  0.7762  0.0609  0.5413
12217TIP3    H158066   0.264   1.639   0.359  0.2996  1.4127 -0.6847
12217TIP3    H258067   0.126   1.702   0.367 -0.5178 -0.5036  1.6304
12218TIP3   OH258068   3.029   5.068   5.467 -0.0924  0.0916  0.4224
12218TIP3    H158069   3.015   5.061   5.372  1.5654  0.5981  0.1056
12218TIP3    H258070   3.069   5.154   5.479 -0.3124  0.0378  1.5930
12219TIP3   OH258071   3.498   6.332   4.479  0.1024  0.0686 -0.2606
12219TIP3    H158072   3.580   6.375   4.454  0.3549  0.4180  1.0921
12219TIP3    H258073   3.521   6.239   4.483  0.2545  0.0933 -0.5279
12220TIP3   OH258074   1.758   5.067  12.352 -0.1765  0.0303  0.2615
12220TIP3    H158075   1.736   5.152  12.314  2.2006  0.3090 -0.6643
12220TIP3    H258076   1.771   5.085  12.445 -2.1741  0.1316  0.5543
12221TIP3   OH258077   5.042   4.050   3.704  0.3151 -0.4720  0.2186
12221TIP3    H158078   5.109   4.054   3.772 -0.4324 -1.0122  1.0125
12221TIP3    H258079   5.059   3.969   3.658  0.3596 -0.4867  0.2608
12222TIP3   OH258080   1.166   4.780  11.137  0.1839  0.2790 -0.3169
12222TIP3    H158081   1.211   4.768  11.053  0.0136 -2.1296 -0.1174
12222TIP3    H258082   1.087   4.728  11.131  0.8170 -1.0825  1.7830
12223TIP3   OH258083   2.584   5.389  11.337 -0.3128  0.5882 -0.1390
12223TIP3    H158084   2.623   5.324  11.395  3.4773 -0.3249 -3.2170
12223TIP3    H258085   2.546   5.337  11.266 -1.5022  1.7105 -0.3549
12224TIP3   OH258086   5.194   0.860   4.534  0.2938 -0.0011 -0.0848
12224TIP3    H158087   5.145   0.906   4.602  0.7839  1.2565 -0.5376
12224TIP3    H258088   5.154   0.773   4.530 -0.5209  0.2986  0.9736
12225TIP3   OH258089   0.346   1.500   3.634  0.2382 -0.2235 -0.0563
12225TIP3    H158090   0.365   1.572   3.695  0.6024 -0.0226 -0.4006
12225TIP3    H258091   0.423   1.443   3.640  1.1560  0.7483 -1.6798
12226TIP3   OH258092   3.183   1.058  15.325  0.1208  0.2440 -0.0544
12226TIP3    H158093   3.200   1.140  15.279 -0.5331  1.7294  2.2080
12226TIP3    H258094   3.101   1.073  15.371 -0.0741 -1.7470  0.3278
12227TIP3   OH258095   6.290   6.438   0.044  0.5150 -0.4230 -0.2514
12227TIP3    H158096   6.277   6.519  -0.005  1.8562 -0.3150 -0.4709
12227TIP3    H258097   6.223   6.378   0.011 -2.6689  1.5029  2.1443
12228TIP3   OH258098   0.929   0.690   1.008  0.4166 -0.7012 -0.0102
12228TIP3    H158099   0.982   0.619   1.043 -0.7672 -1.7804 -0.3068
12228TIP3    H258100   0.850   0.690   1.061  0.1852  0.0772 -0.3341
12229TIP3   OH258101   0.540   6.310  15.377 -0.2188  0.4579  0.1813
12229TIP3    H158102   0.592   6.382  15.411 -0.8333  0.3639  1.3727
12229TIP3    H258103   0.481   6.287  15.449  0.1765 -1.4382 -0.0624
12230TIP3   OH258104   2.129   3.874   2.298 -0.1799  0.0716  0.2185
12230TIP3    H158105   2.177   3.953   2.320 -0.3149  0.2281 -0.0363
12230TIP3    H258106   2.068   3.861   2.371  0.5697 -0.3948  0.7727
12231TIP3   OH258107   1.248   1.991  15.755  0.7737  0.0912  0.3933
12231TIP3    H158108   1.312   2.060  15.774  0.8453 -0.2980  1.6600
12231TIP3    H258109   1.223   1.958  15.841  0.0098 -0.8051 -0.1611
12232TIP3   OH258110   3.540   5.914   2.745 -0.0639  0.1434  0.2029
12232TIP3    H158111   3.514   5.861   2.669  0.6453 -1.2134  0.8582
12232TIP3    H258112   3.458   5.949   2.779 -0.4861  0.0008 -0.6395
12233TIP3   OH258113   4.451   4.391   5.797  0.5796 -0.3736  0.4290
12233TIP3    H158114   4.517   4.461   5.802  1.9210 -1.2668 -2.4550
12233TIP3    H258115   4.401   4.412   5.718 -0.1930 -1.7107  0.5462
12234TIP3   OH258116   2.872   3.260   2.641 -1.0141 -0.3567 -0.1566
12234TIP3    H158117   2.888   3.165   2.634  1.4440 -0.2069  1.9282
12234TIP3    H258118   2.960   3.298   2.636 -1.9166  1.7939 -0.3227
12235TIP3   OH258119   2.898   1.234   4.936  0.2329  0.6978  0.2643
12235TIP3    H158120   2.812   1.273   4.918 -1.4637 -2.4636  0.8327
12235TIP3    H258121   2.940   1.227   4.850 -1.2939 -0.2350 -0.4458
12236TIP3   OH258122   0.875   1.282  17.028  0.0901  0.3089  0.2480
12236TIP3    H158123   0.951   1.335  17.049 -0.0362  1.1599 -1.3086
12236TIP3    H258124   0.805   1.345  17.013 -0.6431 -0.4131  0.5679
12237TIP3   OH258125   0.608   4.396   2.376 -0.9819 -0.3582  0.1671
12237TIP3    H158126   0.514   4.385   2.363 -0.9876 -1.5934  1.1516
12237TIP3    H258127   0.616   4.475   2.430 -1.2928  1.0399 -1.7104
12238TIP3   OH258128   0.898   1.702  14.065 -0.1517  0.1358 -0.1141
12238TIP3    H158129   0.913   1.616  14.106 -1.2313  0.6055  1.3493
12238TIP3    H258130   0.877   1.681  13.974  1.9561 -0.9755 -0.4150
12239TIP3   OH258131   6.379   0.893   1.640  0.1744 -0.1394  1.1465
12239TIP3    H158132   6.441   0.955   1.601  1.2626 -0.3580  2.4559
12239TIP3    H258133   6.297   0.908   1.593  0.5017  2.0256  1.1569
12240TIP3   OH258134   5.182   4.884   4.270  0.0644  0.1053 -0.2761
12240TIP3    H158135   5.249   4.948   4.294 -1.2707  1.5169 -0.1969
12240TIP3    H258136   5.153   4.911   4.183 -0.3246 -0.5544 -0.3585
12241TIP3   OH258137   3.417   5.199  14.614  1.0757 -0.2212 -0.3647
12241TIP3    H158138   3.369   5.244  14.543 -0.1046 -0.4657  0.2594
12241TIP3    H258139   3.374   5.114  14.622  1.7601 -0.5311  0.0794
12242TIP3   OH258140   4.489   6.779  13.060  0.2995 -0.7862 -0.1405
12242TIP3    H158141   4.420   6.822  13.111  0.7790  1.7404 -1.4296
12242TIP3    H258142   4.443   6.721  13.000 -0.8630  1.4691 -1.5436
12243TIP3   OH258143   1.057   4.126   0.714  0.6127 -0.8703  0.7848
12243TIP3    H158144   1.150   4.147   0.715  0.6108 -0.8646  0.8273
12243TIP3    H258145   1.023   4.171   0.637  0.9705 -2.2658 -0.2253
12244TIP3   OH258146   3.676   4.912   1.894 -0.1420  0.4515 -0.4744
12244TIP3    H158147   3.647   4.917   1.985 -2.1861 -0.1036 -1.0221
12244TIP3    H258148   3.625   4.840   1.857  0.6032  0.6955 -2.0703
12245TIP3   OH258149   3.727   1.887  14.128 -0.4079 -0.2638  0.2886
12245TIP3    H158150   3.819   1.908  14.112 -1.1092  2.4836 -0.5263
12245TIP3    H258151   3.718   1.895  14.223  0.0551  0.0734  0.3100
12246TIP3   OH258152   0.501   5.554  10.103 -0.5469  0.2320  0.2417
12246TIP3    H158153   0.432   5.516  10.157 -0.2199  1.2170  1.3949
12246TIP3    H258154   0.543   5.479  10.061 -2.2930 -0.3780 -0.4865
12247TIP3   OH258155   5.455   0.795   3.006 -0.5056  0.4082 -0.4606
12247TIP3    H158156   5.507   0.747   3.070 -0.6019  1.6778  0.6227
12247TIP3    H258157   5.500   0.879   2.997 -0.4113  0.2120 -2.2084
12248TIP3   OH258158   3.684   0.047  15.808 -0.2692  0.3790  0.5069
12248TIP3    H158159   3.674   0.088  15.722  1.6482 -0.5028 -0.1870
12248TIP3    H258160   3.614   0.086  15.861 -0.6836  1.9214 -1.0663
12249TIP3   OH258161   2.581   1.324   5.130  0.9112 -0.2723  0.2711
12249TIP3    H158162   2.608   1.355   5.044 -0.2340  0.5285  0.1752
12249TIP3    H258163   2.549   1.235   5.114  0.7427 -0.1428 -0.1262
12250TIP3   OH258164   6.381   5.893  15.487  0.3071 -0.0321  0.8834
12250TIP3    H158165   6.327   5.821  15.453 -2.2263  1.5603  1.2056
12250TIP3    H258166   6.367   5.889  15.582  1.1492  0.1310  1.0138
12251TIP3   OH258167   5.489   0.790  13.450  0.3652 -0.6579  0.3330
12251TIP3    H158168   5.462   0.701  13.430  1.1785 -0.7585 -0.3584
12251TIP3    H258169   5.476   0.798  13.545  0.6578 -1.6360  0.4655
12252TIP3   OH258170   0.048   3.000  13.631 -0.8150 -0.0084  0.5728
12252TIP3    H158171   0.125   3.053  13.651 -1.6256  0.6966  1.9976
12252TIP3    H258172   0.084   2.921  13.590  0.6154  0.5343  0.7145
12253TIP3   OH258173   2.005   0.409   5.861  0.2439  0.4193 -0.3676
12253TIP3    H158174   1.931   0.464   5.887  0.6768  1.3606 -1.0671
12253TIP3    H258175   1.966   0.324   5.843 -1.0729  1.4436 -2.8537
12254TIP3   OH258176   1.663   0.726  12.710  0.4430  0.4007 -0.1889
12254TIP3    H158177   1.698   0.749  12.796  0.2416  1.5520 -0.3964
12254TIP3    H258178   1.735   0.743  12.649  0.1221  1.0347 -0.4054
12255TIP3   OH258179   0.716   1.960  16.568  0.1474  0.1309  0.1441
12255TIP3    H158180   0.714   2.053  16.590 -1.1787  0.3966 -1.0037
12255TIP3    H258181   0.656   1.950  16.495  1.5667 -1.3406 -0.9239
12256TIP3   OH258182   3.106   0.650  13.011  0.0522 -0.2681 -0.0559
12256TIP3    H158183   3.062   0.646  13.096 -1.6129  0.0435 -0.8588
12256TIP3    H258184   3.154   0.732  13.013 -0.6928  0.1731  0.2725
12257TIP3   OH258185   5.853   6.591  11.528  0.1292 -0.4489 -0.6797
12257TIP3    H158186   5.758   6.579  11.523  0.2160 -1.2962 -0.5101
12257TIP3    H258187   5.880   6.538  11.603  0.6037  0.7048 -0.0154
12258TIP3   OH258188   2.593   0.340   1.184 -0.1015  0.6911 -0.3841
12258TIP3    H158189   2.588   0.252   1.146 -0.4447  1.3582 -1.9503
12258TIP3    H258190   2.676   0.341   1.231 -1.3687 -1.4257  2.2470
12259TIP3   OH258191   4.770   2.672   2.483 -0.2186  0.2630 -0.1367
12259TIP3    H158192   4.833   2.645   2.416 -0.0893  1.9208 -0.7205
12259TIP3    H258193   4.790   2.764   2.500 -1.6858  0.4821  0.5709
12260TIP3   OH258194   2.287   6.286  13.579 -0.7505 -0.1620  0.3529
12260TIP3    H158195   2.198   6.316  13.556 -0.3409  0.2284 -0.7850
12260TIP3    H258196   2.273   6.202  13.623 -1.7671  0.5193  1.4341
12261TIP3   OH258197   6.745   3.003   4.628  0.0705  0.1226  0.5100
12261TIP3    H158198   6.797   2.974   4.553  0.2170  0.8297  0.3347
12261TIP3    H258199   6.680   3.062   4.591 -1.9616 -2.0164  0.4827
12262TIP3   OH258200   4.000   2.306   3.348  0.1813  0.2108 -0.2756
12262TIP3    H158201   4.086   2.267   3.335  0.2172  0.8662 -2.5727
12262TIP3    H258202   3.991   2.315   3.443  1.0200 -3.3367  0.2752
12263TIP3   OH258203   4.765   2.914  16.337 -0.1111 -0.1720  0.1602
12263TIP3    H158204   4.711   2.835  16.329 -1.1398  0.5839 -0.6487
12263TIP3    H258205   4.701   2.985  16.340  0.8385  0.6992 -0.0084
12264TIP3   OH258206   3.876   6.367   4.742 -0.8188  0.2755 -0.2227
12264TIP3    H158207   3.880   6.341   4.834  0.8004  1.1215 -0.0176
12264TIP3    H258208   3.862   6.285   4.694  0.3420 -0.4677  0.6616
12265TIP3   OH258209   0.438   6.776   4.432 -0.0915  0.2208 -0.7600
12265TIP3    H158210   0.377   6.846   4.456  1.2260  1.2048 -0.0690
12265TIP3    H258211   0.407   6.699   4.480 -1.0842  0.5452 -0.8595
12266TIP3   OH258212   4.039   3.744  15.951  0.6498 -0.2302 -0.1463
12266TIP3    H158213   4.109   3.697  15.997  1.1528  0.7440  0.1204
12266TIP3    H258214   4.010   3.810  16.014 -0.3384 -0.4476 -0.3577
12267TIP3   OH258215   3.352   2.786   1.500 -0.1740 -0.8912 -0.0069
12267TIP3    H158216   3.403   2.867   1.498 -1.4996  0.0362  1.5811
12267TIP3    H258217   3.263   2.814   1.479 -0.6297 -1.9615  0.4401
12268TIP3   OH258218   2.788   4.924  15.722  0.0554  0.1777 -0.5437
12268TIP3    H158219   2.772   4.924  15.816  0.3039 -2.3091 -0.4431
12268TIP3    H258220   2.701   4.921  15.682 -0.0268  0.4056 -0.3833
12269TIP3   OH258221   2.095   0.210   3.936  0.3105  0.2095 -0.0237
12269TIP3    H158222   2.129   0.166   4.014 -1.3620 -1.5016 -0.2011
12269TIP3    H258223   2.035   0.277   3.970  1.8252  1.5253  0.1961
12270TIP3   OH258224   5.275   0.921  14.437 -0.5137  0.6916 -0.2083
12270TIP3    H158225   5.303   0.840  14.479  1.3137  0.5504 -1.5286
12270TIP3    H258226   5.180   0.915  14.432 -0.5121 -0.7146  0.9882
12271TIP3   OH258227   5.632   4.007  14.756  0.1969 -0.8132 -0.3582
12271TIP3    H158228   5.550   4.053  14.770 -0.0044 -1.9614  3.3331
12271TIP3    H258229   5.610   3.936  14.696 -2.0824 -2.0962  1.7730
12272TIP3   OH258230   6.207   0.526   0.246  0.0936  0.0584 -0.5888
12272TIP3    H158231   6.126   0.573   0.263  1.4006  2.2368 -0.0711
12272TIP3    H258232   6.247   0.571   0.171  2.6361  1.5924  1.5295
12273TIP3   OH258233   4.110   0.147  14.365 -0.3786 -0.3498 -0.1296
12273TIP3    H158234   4.058   0.068  14.348  2.1796 -1.6896 -2.6126
12273TIP3    H258235   4.082   0.208  14.297  0.4427 -0.7004 -0.8155
12274TIP3   OH258236   5.846   2.848   2.322  0.2048  0.0256 -0.6882
12274TIP3    H158237   5.826   2.926   2.374 -0.4971 -1.2903  1.0908
12274TIP3    H258238   5.932   2.821   2.350  0.0638 -0.3703 -0.6402
12275TIP3   OH258239   1.799   6.548  13.624 -0.7015  0.4626  0.3120
12275TIP3    H158240   1.818   6.609  13.553 -1.2170  0.4385  0.1519
12275TIP3    H258241   1.728   6.494  13.591 -0.8758  0.3802  0.8079
12276TIP3   OH258242   5.817   1.978  12.830  0.1772 -0.0620  0.2083
12276TIP3    H158243   5.882   1.993  12.898  1.7127  2.0610 -1.5939
12276TIP3    H258244   5.799   2.065  12.794 -1.7412 -0.9269 -1.0763
12277TIP3   OH258245   1.165   3.303  16.387  0.2248 -0.6443  0.0692
12277TIP3    H158246   1.156   3.221  16.338  0.8615 -0.3963 -0.4798
12277TIP3    H258247   1.139   3.371  16.325 -0.0960 -0.4100  0.4560
12278TIP3   OH258248   1.288   3.317  17.260 -0.1505 -0.3350 -0.3003
12278TIP3    H158249   1.294   3.380  17.332 -1.0692  0.2254 -0.7061
12278TIP3    H258250   1.334   3.359  17.187  1.0693 -1.0396  0.0140
12279TIP3   OH258251   2.733   4.679  14.316 -0.7858  0.0323 -0.1503
12279TIP3    H158252   2.647   4.637  14.305 -1.1963  0.8665 -0.2078
12279TIP3    H258253   2.715   4.773  14.306  0.0330  0.2612  0.4471
12280TIP3   OH258254   5.416   3.883  16.923 -0.0958 -0.1323  0.0585
12280TIP3    H158255   5.452   3.909  17.008  0.1008  1.3776 -0.4684
12280TIP3    H258256   5.408   3.787  16.929  0.1748 -0.0816  1.6631
12281TIP3   OH258257   1.207   3.692  16.802  0.3714  0.1232  0.1733
12281TIP3    H158258   1.264   3.724  16.733  1.7951 -1.9216  0.3221
12281TIP3    H258259   1.120   3.723  16.777  1.2749  2.0192 -0.8677
12282TIP3   OH258260   2.534   3.132  16.509 -0.2696  0.3574  0.5608
12282TIP3    H158261   2.593   3.208  16.507  2.7538 -1.7612  1.2376
12282TIP3    H258262   2.507   3.120  16.418 -1.1267  2.4262  0.5087
12283TIP3   OH258263   1.245   5.851   0.294 -0.5814  0.0217  0.0369
12283TIP3    H158264   1.320   5.908   0.311 -0.6786 -0.1780  1.1938
12283TIP3    H258265   1.168   5.908   0.307 -0.6668 -0.2243  0.5956
12284TIP3   OH258266   3.627   2.617  13.750  0.5592 -0.2031 -0.1657
12284TIP3    H158267   3.563   2.619  13.822 -1.5941  0.0798 -1.9898
12284TIP3    H258268   3.608   2.536  13.703 -0.8187  1.4588 -2.6939
12285TIP3   OH258269   5.287   6.421  11.470  0.3653 -0.0564  1.0152
12285TIP3    H158270   5.241   6.500  11.441 -2.4048 -1.7743  0.3250
12285TIP3    H258271   5.244   6.350  11.422  2.0799 -2.0869  2.3322
12286TIP3   OH258272   5.452   0.293  12.928 -0.0437  0.1668  1.1150
12286TIP3    H158273   5.478   0.262  12.841  0.2288  0.4279  1.1023
12286TIP3    H258274   5.501   0.374  12.940 -0.4007  0.3514  1.3383
12287TIP3   OH258275   2.029   3.127   6.359  0.1246  0.1032  0.3025
12287TIP3    H158276   2.000   3.075   6.434  0.9142 -1.4098 -0.3963
12287TIP3    H258277   2.093   3.072   6.315  0.2719  1.2915 -1.0413
12288TIP3   OH258278   1.195   3.138  10.727 -0.1183 -1.1264 -0.1870
12288TIP3    H158279   1.107   3.119  10.694  0.3917 -0.6992 -1.8984
12288TIP3    H258280   1.208   3.231  10.710  1.2049 -1.4899 -1.3721
12289TIP3   OH258281   1.714   5.240   4.519  0.0478 -0.4841 -0.0959
12289TIP3    H158282   1.643   5.304   4.510 -2.2104 -2.4403  2.1325
12289TIP3    H258283   1.709   5.188   4.439 -0.1168  0.2087 -0.5502
12290TIP3   OH258284   0.741   0.983  16.036 -0.0992  0.8599 -0.2121
12290TIP3    H158285   0.722   0.889  16.040  0.9027  0.6794  2.3897
12290TIP3    H258286   0.655   1.025  16.030 -0.8077 -0.1676  1.8603
12291TIP3   OH258287   6.416   5.866  11.387 -0.5224 -0.2536 -0.0847
12291TIP3    H158288   6.455   5.863  11.475 -1.7079  1.7842  0.5757
12291TIP3    H258289   6.477   5.818  11.332  0.3787 -1.3822  1.8040
12292TIP3   OH258290   6.285   6.110  16.406 -0.3970  0.6387  0.1575
12292TIP3    H158291   6.342   6.057  16.461 -1.2885  0.6661  1.1374
12292TIP3    H258292   6.290   6.069  16.320 -1.9111 -1.7713  1.1101
12293TIP3   OH258293   6.133   5.970   0.469  0.0976 -0.3794 -0.1821
12293TIP3    H158294   6.092   5.885   0.482  2.3469 -1.6133 -0.7081
12293TIP3    H258295   6.208   5.970   0.528 -1.3278  2.3997  1.8541
12294TIP3   OH258296   1.839   1.649  12.703 -0.4004  0.4705 -0.3413
12294TIP3    H158297   1.795   1.588  12.763  0.3677  0.8930  0.6958
12294TIP3    H258298   1.927   1.613  12.692  0.5151  2.0054  1.3402
12295TIP3   OH258299   4.111   1.854  16.325  0.1228  0.6854  0.3390
12295TIP3    H158300   4.165   1.867  16.247  0.6320 -1.2332  0.3311
12295TIP3    H258301   4.172   1.866  16.398  0.1236  0.4308  0.3808
12296TIP3   OH258302   1.452   2.784   1.314 -0.0546 -0.3217 -0.2700
12296TIP3    H158303   1.458   2.862   1.259 -0.1767 -0.4133 -0.4140
12296TIP3    H258304   1.462   2.816   1.403  0.5657 -0.2178 -0.3701
12297TIP3   OH258305   6.443   1.704  11.787  0.1052 -0.5980  0.5532
12297TIP3    H158306   6.523   1.738  11.747  0.2400 -1.5993 -0.0723
12297TIP3    H258307   6.473   1.648  11.858 -0.1539  2.1545  3.0120
12298TIP3   OH258308   4.136   4.687  13.288 -0.1467  0.3062 -0.5170
12298TIP3    H158309   4.172   4.666  13.202  1.1606 -0.3805  0.1718
12298TIP3    H258310   4.165   4.615  13.345  0.0445  1.3525  0.7697
12299TIP3   OH258311   6.086   5.396   4.358  0.0412  0.1616  0.1307
12299TIP3    H158312   6.140   5.344   4.299 -1.1943 -0.3851 -0.5687
12299TIP3    H258313   5.999   5.356   4.352 -0.4585  1.0342  1.1804
12300TIP3   OH258314   6.199   6.321  11.767 -0.2587 -0.0266 -0.0931
12300TIP3    H158315   6.245   6.390  11.719 -1.5847  0.3423 -0.8914
12300TIP3    H258316   6.269   6.268  11.806  0.8567  0.1597 -1.7282
12301TIP3   OH258317   5.480   2.271  11.211 -0.4610 -0.3039 -0.0206
12301TIP3    H158318   5.419   2.216  11.163  1.1616 -0.2290 -2.3372
12301TIP3    H258319   5.559   2.273  11.157  1.0662  0.8519  2.0769
12302TIP3   OH258320   4.957   0.013   4.598 -0.0840 -0.3612 -0.0959
12302TIP3    H158321   4.925  -0.028   4.679 -0.3178 -0.9626 -0.4796
12302TIP3    H258322   5.049   0.033   4.616 -0.7139  1.6815  1.1365
12303TIP3   OH258323   3.160   6.395   0.954 -0.1049  0.0237 -0.1588
12303TIP3    H158324   3.070   6.426   0.968 -0.4780 -0.0256 -2.1015
12303TIP3    H258325   3.149   6.310   0.910  0.9023 -0.5241  0.6276
12304TIP3   OH258326   0.221   1.838  16.399 -0.1431  0.4207  0.4327
12304TIP3    H158327   0.187   1.765  16.451  0.7977  0.0549  0.5564
12304TIP3    H258328   0.295   1.872  16.449  0.0984  0.7661 -0.1377
12305TIP3   OH258329   1.463   5.209  17.264 -0.5333 -0.3099  0.7427
12305TIP3    H158330   1.380   5.165  17.251 -0.3381 -0.2038 -0.9906
12305TIP3    H258331   1.442   5.302  17.260 -0.2882 -0.2846 -0.0558
12306TIP3   OH258332   5.790   4.836   0.916 -0.1688 -0.4766 -0.3175
12306TIP3    H158333   5.881   4.863   0.904  0.3525 -1.0281  1.8939
12306TIP3    H258334   5.750   4.850   0.831  2.1283 -0.8002 -1.5511
12307TIP3   OH258335   4.635   2.264  11.112  0.2701 -0.2695  0.0799
12307TIP3    H158336   4.715   2.310  11.088 -0.2427  0.0003 -1.1644
12307TIP3    H258337   4.626   2.196  11.045  0.4216 -1.4934  1.2567
12308TIP3   OH258338   0.550   2.417  12.679  0.0454 -0.4857  0.6055
12308TIP3    H158339   0.605   2.383  12.609  0.0874  0.1793  0.3083
12308TIP3    H258340   0.500   2.341  12.709  1.9349 -1.3797  1.6714
12309TIP3   OH258341   6.196   3.044  15.827  0.3687 -0.5977 -0.5150
12309TIP3    H158342   6.189   2.968  15.885 -0.1871 -0.1835 -0.0273
12309TIP3    H258343   6.172   3.118  15.882 -1.8796 -0.3630 -1.7016
12310TIP3   OH258344   5.241   0.399   4.416  0.0240  0.4471  0.4707
12310TIP3    H158345   5.149   0.380   4.432  0.3959 -1.3609  0.6457
12310TIP3    H258346   5.281   0.401   4.503  0.6061 -1.5230  0.3061
12311TIP3   OH258347   2.501   5.697  10.641 -0.1434 -0.2473  0.4104
12311TIP3    H158348   2.494   5.788  10.613  0.3697 -0.5760 -0.8739
12311TIP3    H258349   2.585   5.667  10.604 -0.6728 -1.4493  0.1373
12312TIP3   OH258350   5.863   5.200  13.240  0.3650  0.2376 -0.0449
12312TIP3    H158351   5.921   5.253  13.186  0.2182  1.2173  0.7286
12312TIP3    H258352   5.873   5.111  13.206  1.4756  0.5690 -0.6311
12313TIP3   OH258353   3.873   4.656  13.444 -0.3814  0.0252 -0.2227
12313TIP3    H158354   3.958   4.677  13.405  0.8817 -2.2626  1.0987
12313TIP3    H258355   3.848   4.573  13.404 -0.3336 -1.0163  1.7757
12314TIP3   OH258356   4.577   0.974  14.060 -0.1390  0.4387  0.1521
12314TIP3    H158357   4.542   1.023  14.135  1.4831  0.1171  1.1755
12314TIP3    H258358   4.620   1.040  14.006 -1.4206  0.6906 -0.6083
12315TIP3   OH258359   4.117   2.591  16.156 -0.0234  0.1098 -0.0930
12315TIP3    H158360   4.162   2.624  16.078 -0.0653 -2.1876 -1.2054
12315TIP3    H258361   4.066   2.664  16.188  0.5588  1.3321 -1.8203
12316TIP3   OH258362   4.561   0.340  15.209  0.0246  0.6406 -0.2996
12316TIP3    H158363   4.565   0.245  15.199  1.3540  0.6451  0.0483
12316TIP3    H258364   4.542   0.373  15.121  1.9556  0.1785 -0.9204
12317TIP3   OH258365   0.714   0.333   1.154 -0.1345  0.1323  0.4201
12317TIP3    H158366   0.748   0.415   1.117  0.9759 -0.6344 -0.3227
12317TIP3    H258367   0.661   0.360   1.229 -1.7619  1.6983 -1.1838
12318TIP3   OH258368   6.405   0.226   3.993 -0.7193 -0.3708  0.1851
12318TIP3    H158369   6.393   0.289   4.064 -1.2905  0.0197 -0.2471
12318TIP3    H258370   6.496   0.239   3.964 -0.3122 -0.9076  1.1894
12319TIP3   OH258371   1.919   1.442  13.424 -0.4222 -0.4570 -0.3041
12319TIP3    H158372   1.845   1.383  13.436 -0.7642 -0.0221 -0.2462
12319TIP3    H258373   1.880   1.530  13.427  0.4564 -0.0126  3.0980
12320TIP3   OH258374   2.630   0.549   4.942 -0.4291  0.1830 -0.0276
12320TIP3    H158375   2.723   0.536   4.962 -0.5981  0.1175  0.7623
12320TIP3    H258376   2.586   0.540   5.027 -0.9714  1.9523 -0.0944
12321TIP3   OH258377   4.485   6.635  11.573  0.4742  0.5264 -0.2710
12321TIP3    H158378   4.461   6.719  11.536 -0.2327  0.4976  0.0989
12321TIP3    H258379   4.560   6.606  11.521  0.3149  1.0778 -0.8207
12322TIP3   OH258380   4.686   5.492   5.632  0.0856  0.1958  0.2242
12322TIP3    H158381   4.619   5.532   5.687 -0.8797  2.3284 -2.2862
12322TIP3    H258382   4.758   5.555   5.632  1.7552 -1.5699  2.0104
12323TIP3   OH258383   1.425   1.412  14.500 -0.6050  0.7798 -0.3531
12323TIP3    H158384   1.418   1.317  14.499  0.7468  0.6619 -0.9616
12323TIP3    H258385   1.519   1.429  14.504 -0.8538  2.0945  0.6370
12324TIP3   OH258386   5.360   5.087   4.311 -0.3374  0.5500  0.1010
12324TIP3    H158387   5.426   5.089   4.381 -1.2677 -0.8502  1.0741
12324TIP3    H258388   5.310   5.168   4.323 -0.9650 -0.0300  1.5675
12325TIP3   OH258389   3.299   1.975  14.848 -0.4445  0.0240 -0.8819
12325TIP3    H158390   3.211   2.002  14.873 -0.2260  0.8888 -1.0115
12325TIP3    H258391   3.355   2.050  14.873  0.1935 -0.3582 -1.1488
12326TIP3   OH258392   2.869   3.996   6.593  0.6400 -0.3624 -0.9601
12326TIP3    H158393   2.821   3.969   6.515 -0.6714 -0.3793 -0.1783
12326TIP3    H258394   2.932   3.926   6.608  1.4231 -0.0080 -2.4057
12327TIP3   OH258395   1.147   2.948  15.009  0.6884  0.2828 -0.3952
12327TIP3    H158396   1.080   2.893  15.051 -0.7718  0.9582 -1.7391
12327TIP3    H258397   1.164   3.017  15.073 -0.7371  0.7110 -0.4374
12328TIP3   OH258398   4.587   6.396  13.755  0.1856 -0.2424 -0.2887
12328TIP3    H158399   4.594   6.491  13.762  0.2978 -0.0428 -2.4187
12328TIP3    H258400   4.639   6.362  13.828 -0.9973  1.2895  1.3498
12329TIP3   OH258401   3.462   4.786   2.517 -0.4503 -0.1576 -0.0440
12329TIP3    H158402   3.481   4.695   2.540  0.2063  0.1968  0.8702
12329TIP3    H258403   3.454   4.831   2.602 -0.2958  0.7314 -0.4921
12330TIP3   OH258404   5.817   6.111   3.892  0.1055  0.7218  0.3142
12330TIP3    H158405   5.800   6.091   3.984 -1.7563 -1.0307 -0.3444
12330TIP3    H258406   5.877   6.186   3.895  0.6853  0.2624  2.9335
12331TIP3   OH258407   6.121   1.637  14.439  0.2170  0.0677  0.1928
12331TIP3    H158408   6.089   1.598  14.358  0.6976  0.5741 -0.2490
12331TIP3    H258409   6.074   1.719  14.446 -0.8275 -0.5881  1.1453
12332TIP3   OH258410   2.833   1.433   3.006  0.6936  0.0208 -0.2639
12332TIP3    H158411   2.861   1.376   2.934  0.6994  2.0004 -1.9198
12332TIP3    H258412   2.738   1.421   3.009  0.5887  0.4996 -1.1705
12333TIP3   OH258413   3.796   0.642  16.777  0.1085 -0.1347 -0.1598
12333TIP3    H158414   3.761   0.714  16.725 -1.1286  1.7094  2.9188
12333TIP3    H258415   3.728   0.575  16.773 -0.9287  0.8200  0.6131
12334TIP3   OH258416   1.579   5.411  13.282 -0.0547 -0.1720 -0.0941
12334TIP3    H158417   1.614   5.475  13.345  0.5214 -1.4039  0.8750
12334TIP3    H258418   1.519   5.462  13.227 -1.9337  0.6563  2.5100
12335TIP3   OH258419   2.139   4.530   5.311  0.2473 -0.5840  0.1440
12335TIP3    H158420   2.228   4.558   5.289  0.2702 -0.9701 -0.2584
12335TIP3    H258421   2.116   4.584   5.387  0.9197 -0.6655  0.4174
12336TIP3   OH258422   6.110   0.966   0.288 -0.2217 -0.0426  0.1546
12336TIP3    H158423   6.046   0.986   0.220  0.7959  0.5090 -0.6580
12336TIP3    H258424   6.100   0.872   0.303  1.0789 -0.6754 -2.4253
12337TIP3   OH258425   5.712   2.318   5.157  0.3133  0.1985 -0.0675
12337TIP3    H158426   5.624   2.336   5.191 -0.2010 -1.3463 -0.4921
12337TIP3    H258427   5.756   2.272   5.228  0.9747  1.3757  0.3208
12338TIP3   OH258428   4.885   4.887  16.458 -0.2102 -0.4447  0.2949
12338TIP3    H158429   4.974   4.879  16.426 -0.8699 -1.4998 -1.4498
12338TIP3    H258430   4.890   4.866  16.551  1.5061  0.6977  0.4893
12339TIP3   OH258431   2.677   4.155   6.030 -0.7927 -0.2112 -0.2624
12339TIP3    H158432   2.741   4.177   6.097  1.4733 -0.3902 -2.2442
12339TIP3    H258433   2.692   4.062   6.012 -0.2323  0.1728 -2.0525
12340TIP3   OH258434   5.116   3.313   4.879  0.1726 -0.4773  0.3686
12340TIP3    H158435   5.175   3.378   4.842  0.5980  0.0156  1.8480
12340TIP3    H258436   5.115   3.242   4.815 -0.8021  1.1996 -1.6185
12341TIP3   OH258437   0.621   6.689  17.053 -0.3166  0.2642  0.6030
12341TIP3    H158438   0.686   6.730  16.996 -0.0638 -0.4824  0.3413
12341TIP3    H258439   0.541   6.687  17.001 -1.0940  2.8396  1.5575
12342TIP3   OH258440   5.792   3.654  15.746  0.6124 -0.5093  0.0345
12342TIP3    H158441   5.835   3.665  15.661 -0.9305 -1.7411 -0.9488
12342TIP3    H258442   5.723   3.720  15.747 -0.8722 -1.9867 -0.7131
12343TIP3   OH258443   2.560   0.563   0.240 -0.3350 -0.1697  0.1559
12343TIP3    H158444   2.541   0.491   0.299 -1.4255  1.3175  1.6795
12343TIP3    H258445   2.478   0.611   0.232  0.1601  0.4869 -1.4531
12344TIP3   OH258446   4.377   3.117   4.567 -0.5710  0.5069 -0.4084
12344TIP3    H158447   4.371   3.074   4.482 -0.2041  0.9100 -0.6393
12344TIP3    H258448   4.402   3.207   4.548  0.3644  0.3880  0.1670
12345TIP3   OH258449   5.036   3.848  13.280 -0.4584 -0.2699  0.0210
12345TIP3    H158450   4.967   3.850  13.215  0.4178 -0.2242 -0.9266
12345TIP3    H258451   5.033   3.759  13.316 -0.9483 -0.2876 -0.0555
12346TIP3   OH258452   3.394   1.569  13.630 -0.0530 -0.3151  0.1768
12346TIP3    H158453   3.407   1.542  13.720 -0.9500  1.8094  1.0039
12346TIP3    H258454   3.307   1.611  13.629  1.2829  2.7377 -0.8514
12347TIP3   OH258455   1.940   4.842   4.381  0.4333  0.4972  0.2292
12347TIP3    H158456   2.016   4.809   4.333  0.3898  0.8891 -0.1206
12347TIP3    H258457   1.936   4.788   4.459 -0.1078 -0.8669 -0.6955
12348TIP3   OH258458   1.160   3.674  14.822  0.0419 -0.4897 -0.2637
12348TIP3    H158459   1.129   3.657  14.911  2.4605  0.1993  0.7884
12348TIP3    H258460   1.240   3.622  14.814 -1.0478 -1.9968 -2.7450
12349TIP3   OH258461   5.866   4.688   1.183  0.6663 -0.1124 -0.1421
12349TIP3    H158462   5.931   4.619   1.174 -0.0872 -1.0802  1.3735
12349TIP3    H258463   5.843   4.711   1.093  1.7665 -1.0254 -0.6838
12350TIP3   OH258464   4.390   1.879  15.077 -0.9612  0.4388 -1.0097
12350TIP3    H158465   4.445   1.939  15.026  0.3352  1.0549  0.9627
12350TIP3    H258466   4.437   1.796  15.073 -1.8693 -0.0303 -2.3533
12351TIP3   OH258467   3.610   5.676  11.564 -0.1467  0.3923 -0.2665
12351TIP3    H158468   3.548   5.743  11.534  0.5647  0.1429 -2.4405
12351TIP3    H258469   3.696   5.713  11.543  0.2558 -1.1891 -1.5560
12352TIP3   OH258470   4.029   6.243  12.948  0.0897 -0.1226  0.2500
12352TIP3    H158471   4.019   6.265  12.855  0.3734  1.6040  0.5929
12352TIP3    H258472   4.019   6.326  12.994 -0.5417 -1.0153  1.8321
12353TIP3   OH258473   2.552   2.669  11.366  0.4026 -0.2246 -0.0853
12353TIP3    H158474   2.475   2.698  11.317 -0.5448 -1.5680  0.5494
12353TIP3    H258475   2.622   2.666  11.301  0.3865  2.5924 -0.3598
12354TIP3   OH258476   5.499   0.999   0.219  0.1676 -0.6865  0.0389
12354TIP3    H158477   5.591   1.022   0.229  0.0679 -0.6450  0.8920
12354TIP3    H258478   5.471   0.970   0.306 -0.4593 -1.3033 -0.3595
12355TIP3   OH258479   0.834   3.441   2.818 -0.0276 -0.2928  0.1448
12355TIP3    H158480   0.759   3.387   2.795 -0.2280 -0.2536  0.6976
12355TIP3    H258481   0.862   3.480   2.735 -1.0962  0.3108  0.0416
12356TIP3   OH258482   2.475   3.579   5.933  0.8842 -0.4030  0.5364
12356TIP3    H158483   2.441   3.493   5.905  2.3676 -0.8005 -0.1344
12356TIP3    H258484   2.555   3.559   5.980  0.8919  0.5943  0.9665
12357TIP3   OH258485   1.125   4.182   5.379 -0.3106  0.3648 -0.4026
12357TIP3    H158486   1.202   4.136   5.414  1.1835  1.5208 -1.9894
12357TIP3    H258487   1.051   4.145   5.427  1.2736 -0.3786  1.6252
12358TIP3   OH258488   5.835   4.119  15.024  0.2509 -0.1425  0.0327
12358TIP3    H158489   5.750   4.152  14.995 -0.4928  0.2281  2.3808
12358TIP3    H258490   5.842   4.032  14.984 -1.6437 -0.5263  0.4337
12359TIP3   OH258491   2.744   4.022  11.217 -0.3859  0.6394 -0.1188
12359TIP3    H158492   2.678   4.056  11.277 -1.3949 -0.8627 -0.3216
12359TIP3    H258493   2.779   4.099  11.173 -0.8279  1.6138  1.1829
12360TIP3   OH258494   5.270   0.533   2.030 -0.1481 -0.9260 -0.0517
12360TIP3    H158495   5.178   0.530   2.002 -0.1827 -0.6491  0.0304
12360TIP3    H258496   5.320   0.520   1.949 -0.2610 -2.5945  0.1006
12361TIP3   OH258497   1.091   0.293  15.170 -0.5396  0.3721 -0.4011
12361TIP3    H158498   1.029   0.318  15.101  0.8920  2.0083 -1.1701
12361TIP3    H258499   1.110   0.201  15.151 -0.4365  0.6830 -2.0133
12362TIP3   OH258500   5.485   1.083  14.773 -0.5238 -0.1620 -0.0567
12362TIP3    H158501   5.397   1.048  14.759  0.1343 -2.0234  0.1780
12362TIP3    H258502   5.543   1.009  14.759  1.0865  1.1644 -0.7877
12363TIP3   OH258503   3.360   1.371  15.772 -0.4405 -0.3326 -0.3589
12363TIP3    H158504   3.377   1.450  15.823  1.0217 -0.7562 -0.1358
12363TIP3    H258505   3.447   1.337  15.750 -1.0052 -2.1658 -0.0045
12364TIP3   OH258506   1.011   2.719  16.948 -0.0659 -0.3838  0.4184
12364TIP3    H158507   0.924   2.681  16.942 -0.7274  0.7888  2.1203
12364TIP3    H258508   1.007   2.797  16.893 -0.5931  0.5037  1.6733
12365TIP3   OH258509   2.747   3.686   3.493  0.8081 -0.3770  0.0743
12365TIP3    H158510   2.774   3.661   3.404 -1.9857  1.1440 -1.3305
12365TIP3    H258511   2.800   3.764   3.513  0.8829 -0.2402 -0.6302
12366TIP3   OH258512   6.572   5.868  11.639  0.4870 -0.1951 -0.2184
12366TIP3    H158513   6.569   5.774  11.625  0.4745 -0.1234 -0.7440
12366TIP3    H258514   6.521   5.883  11.719  0.0896 -0.5872 -0.3969
12367TIP3   OH258515   1.289   1.115  14.070  1.0633  0.2824  0.1998
12367TIP3    H158516   1.259   1.202  14.095  2.0556  0.9205 -0.7337
12367TIP3    H258517   1.213   1.074  14.028  0.2334  0.2240  1.7203
12368TIP3   OH258518   0.570   2.469  16.467  0.6082 -0.0812 -0.0347
12368TIP3    H158519   0.505   2.517  16.518  0.7876 -1.3378  1.4176
12368TIP3    H258520   0.641   2.532  16.455  0.3926  0.3690  0.9432
12369TIP3   OH258521   1.081   0.005   1.998  0.6087 -0.1876 -0.4722
12369TIP3    H158522   1.078  -0.080   1.955 -1.7792 -0.3857 -0.0123
12369TIP3    H258523   1.023  -0.004   2.073  0.3878  1.8160 -0.3533
12370TIP3   OH258524   0.704   2.887  12.634 -0.7210 -0.1765 -0.0793
12370TIP3    H158525   0.624   2.910  12.587 -0.2034 -1.6062 -1.7734
12370TIP3    H258526   0.719   2.961  12.693 -1.4256  1.7474 -2.1486
12371TIP3   OH258527   3.372   4.691   3.114 -0.5101 -0.0123  0.1593
12371TIP3    H158528   3.449   4.643   3.143 -0.7250 -0.2320  0.3639
12371TIP3    H258529   3.374   4.684   3.018 -1.1745 -1.4056  0.2389
12372TIP3   OH258530   5.903   2.807  11.433 -0.0497 -0.0952  0.2970
12372TIP3    H158531   5.993   2.800  11.400 -0.2682  0.7708 -0.5223
12372TIP3    H258532   5.854   2.846  11.361 -1.0347 -0.3032  0.8385
12373TIP3   OH258533   5.219   2.648   5.300 -0.3646  0.7316  0.0628
12373TIP3    H158534   5.185   2.699   5.226  0.1883  1.2788  0.1758
12373TIP3    H258535   5.208   2.557   5.273 -1.5596  0.8996 -0.0619
12374TIP3   OH258536   3.430   3.141  16.050 -0.5358 -0.5233  0.1740
12374TIP3    H158537   3.441   3.143  16.145  1.0225 -0.2045  0.0110
12374TIP3    H258538   3.506   3.092  16.018 -0.0478  0.9509 -1.0313
12375TIP3   OH258539   2.363   1.058  10.870 -0.2337 -0.7513  0.3021
12375TIP3    H158540   2.343   1.105  10.951  0.7958  1.3387 -0.5774
12375TIP3    H258541   2.317   1.108  10.802  1.3394 -0.6495 -0.7390
12376TIP3   OH258542   0.450   3.164   6.217 -0.1671 -0.0986  0.9754
12376TIP3    H158543   0.519   3.108   6.182 -1.3136 -0.4222 -0.9124
12376TIP3    H258544   0.426   3.124   6.300  0.1712 -1.4723  0.4393
12377TIP3   OH258545   4.640   0.501   6.027  0.0108  0.2062  0.7197
12377TIP3    H158546   4.692   0.497   6.107 -0.3578  0.2061  0.9611
12377TIP3    H258547   4.701   0.531   5.960  0.2482  0.4950  1.0617
12378TIP3   OH258548   0.361   3.627   1.215  0.2372 -0.0650  0.5850
12378TIP3    H158549   0.339   3.701   1.157  1.2318 -0.8226 -0.8282
12378TIP3    H258550   0.413   3.667   1.285 -0.2605  0.7601  0.4970
12379TIP3   OH258551   1.915   4.597  12.832  0.0102  0.3531  0.5876
12379TIP3    H158552   2.007   4.608  12.856 -0.1211  2.7969  0.2168
12379TIP3    H258553   1.869   4.668  12.877 -1.3936  0.4031 -0.8081
12380TIP3   OH258554   1.229   5.348   3.787 -0.3963 -0.0906 -0.4096
12380TIP3    H158555   1.269   5.406   3.852  1.9082 -0.7891 -1.1263
12380TIP3    H258556   1.162   5.300   3.835  0.9099 -0.2245  1.3609
12381TIP3   OH258557   3.246   3.727   6.567 -0.1853  0.8480  0.6607
12381TIP3    H158558   3.245   3.700   6.476 -2.2844  0.7869  0.6344
12381TIP3    H258559   3.335   3.711   6.597  0.4175  0.4392 -1.2409
12382TIP3   OH258560   0.914   2.301   4.573  0.1124  0.5637  0.2674
12382TIP3    H158561   0.980   2.368   4.556 -0.1751  0.3238 -2.2587
12382TIP3    H258562   0.961   2.218   4.561 -0.9658  0.3278 -4.3092
12383TIP3   OH258563   0.021   0.480   2.063 -0.0732  0.2464 -0.3373
12383TIP3    H158564   0.052   0.499   1.975  0.6705 -0.5044 -0.2518
12383TIP3    H258565   0.092   0.429   2.103 -0.6960 -0.0220  0.4559
12384TIP3   OH258566   2.224   4.914   2.063  0.3630  0.8373  0.6361
12384TIP3    H158567   2.231   4.983   2.128 -1.2688 -0.7070  2.5600
12384TIP3    H258568   2.137   4.926   2.024  0.7358  0.8368 -0.2389
12385TIP3   OH258569   2.271   0.458  15.287  0.5587 -0.7675  0.2053
12385TIP3    H158570   2.266   0.377  15.338 -2.4577 -1.0971 -0.4524
12385TIP3    H258571   2.180   0.478  15.263  1.2244  2.6153 -0.0171
12386TIP3   OH258572   3.883   3.188   5.157 -0.1754 -0.4224  0.0520
12386TIP3    H158573   3.947   3.173   5.088 -0.4447  0.1118 -0.3216
12386TIP3    H258574   3.856   3.279   5.145  1.4538  0.4416  2.2797
12387TIP3   OH258575   2.162   3.496  16.339  0.4301 -0.3606 -0.1709
12387TIP3    H158576   2.148   3.589  16.327  2.5451 -0.0092 -0.2482
12387TIP3    H258577   2.104   3.472  16.412 -0.5440  0.8625 -0.5101
12388TIP3   OH258578   5.673   4.009  11.520  0.3178 -0.2236  0.8790
12388TIP3    H158579   5.691   3.993  11.427 -1.8034 -0.2561  0.4206
12388TIP3    H258580   5.749   3.972  11.566  0.8115 -1.3891 -0.7718
12389TIP3   OH258581   5.044   4.504   2.448 -0.1181  0.5028 -0.7862
12389TIP3    H158582   5.066   4.586   2.493 -1.3079 -1.0231  2.9867
12389TIP3    H258583   4.949   4.498   2.455 -0.0724 -1.0627 -1.2406
12390TIP3   OH258584   3.920   4.019  11.407  0.1392 -0.2979 -0.0052
12390TIP3    H158585   3.898   4.104  11.369  4.2593  0.5692 -1.0076
12390TIP3    H258586   3.961   3.971  11.334 -0.0655 -2.2853  1.1149
12391TIP3   OH258587   5.204   1.210  15.188 -0.1135 -0.6202  0.5104
12391TIP3    H158588   5.268   1.197  15.258  1.3603 -0.2635 -0.7070
12391TIP3    H258589   5.128   1.250  15.231  0.9775  0.1429  1.8017
12392TIP3   OH258590   5.324   5.883   5.252  0.5651 -0.2155 -0.3410
12392TIP3    H158591   5.237   5.852   5.280  0.7495  1.1728  2.1105
12392TIP3    H258592   5.310   5.974   5.227  1.0892 -0.3937 -1.2939
12393TIP3   OH258593   5.922   3.725  15.523 -0.8128 -0.7121 -0.7206
12393TIP3    H158594   5.941   3.818  15.505  0.0412 -0.2138  2.2580
12393TIP3    H258595   6.008   3.684  15.529 -1.1429 -1.3844 -0.4977
12394TIP3   OH258596   0.384   0.251   4.232 -0.2379  0.2661  0.0723
12394TIP3    H158597   0.302   0.251   4.182  0.5978 -0.4135 -1.3533
12394TIP3    H258598   0.384   0.335   4.277 -1.3332  0.6258 -0.5536
12395TIP3   OH258599   2.446   2.647  14.287  0.1048  0.0174  0.3065
12395TIP3    H158600   2.414   2.696  14.212  0.6512 -0.6228 -0.3618
12395TIP3    H258601   2.484   2.568  14.249  0.3807 -0.3176  1.2604
12396TIP3   OH258602   3.666   2.453  14.322  0.2123  0.1553  0.1634
12396TIP3    H158603   3.737   2.436  14.260 -0.4003 -1.6051 -0.1024
12396TIP3    H258604   3.675   2.384  14.388  0.9654  2.0853  2.1986
12397TIP3   OH258605   4.783   1.484  15.685  0.2792  0.0323  0.1051
12397TIP3    H158606   4.870   1.451  15.661  0.3915 -0.4284  1.1002
12397TIP3    H258607   4.752   1.424  15.752 -0.4235  0.7354  0.4224
12398TIP3   OH258608   4.528   5.980  16.278  0.8827 -0.8670 -0.1507
12398TIP3    H158609   4.552   6.072  16.278  1.8295 -0.9833 -3.5073
12398TIP3    H258610   4.479   5.968  16.360  2.0082  2.2016  1.1146
12399TIP3   OH258611   6.748   0.386  16.334  0.1950 -0.6280 -0.8575
12399TIP3    H158612   6.674   0.392  16.393  1.4208  0.9232  0.6216
12399TIP3    H258613   6.723   0.318  16.271 -1.1947 -2.3498  1.3855
12400TIP3   OH258614   2.610   1.701   0.834  0.6214 -0.2451 -0.2258
12400TIP3    H158615   2.605   1.606   0.829  0.1268 -0.1802 -1.2570
12400TIP3    H258616   2.703   1.721   0.823  0.4338 -0.5041 -2.9677
12401TIP3   OH258617   4.355   4.147   4.469 -0.2775 -0.3537  0.1264
12401TIP3    H158618   4.283   4.084   4.474  0.7262 -1.5100  0.6967
12401TIP3    H258619   4.403   4.122   4.389 -1.3837  1.4368 -1.1664
12402TIP3   OH258620   5.057   1.227   6.094 -0.1261 -0.3574 -0.2985
12402TIP3    H158621   5.052   1.160   6.162  3.0303 -0.7798 -0.3345
12402TIP3    H258622   5.061   1.309   6.143 -0.6777 -0.4259 -0.1233
12403TIP3   OH258623   4.671   2.882  12.472  0.0150  0.0102  0.9264
12403TIP3    H158624   4.693   2.858  12.382  1.8980  1.7252  0.8540
12403TIP3    H258625   4.586   2.926  12.464  0.5255  0.8644 -0.1767
12404TIP3   OH258626   2.335   1.823  14.016  0.5053 -0.0422  0.1073
12404TIP3    H158627   2.392   1.748  14.032  0.8915  0.3689  0.7002
12404TIP3    H258628   2.298   1.807  13.930  1.2782 -0.4770 -0.1550
12405TIP3   OH258629   4.463   0.028   5.878 -0.1709 -0.1666  0.0579
12405TIP3    H158630   4.412   0.081   5.939  0.7208  0.6502  0.1137
12405TIP3    H258631   4.518  -0.027   5.933  0.4047  0.3448  0.0048
12406TIP3   OH258632   5.331   0.574  14.310 -0.5207 -0.3421  0.1319
12406TIP3    H158633   5.408   0.523  14.331  0.1360  1.0498  1.2952
12406TIP3    H258634   5.298   0.604  14.394 -1.9878 -0.3857 -0.3839
12407TIP3   OH258635   6.548   2.651  15.179  0.1030  0.6305 -0.0872
12407TIP3    H158636   6.474   2.652  15.118  0.3727  0.6849 -0.4175
12407TIP3    H258637   6.509   2.630  15.264 -0.2039 -0.0212 -0.3809
12408TIP3   OH258638   1.038   5.833   2.400  0.5547 -0.5301 -0.1865
12408TIP3    H158639   1.078   5.898   2.457  2.7264 -2.5611  0.7894
12408TIP3    H258640   1.039   5.873   2.313  2.0181  0.6705  0.3439
12409TIP3   OH258641   4.384   6.783   2.776  0.7597  0.2073  0.2844
12409TIP3    H158642   4.352   6.792   2.866  1.3963 -2.3778  0.8588
12409TIP3    H258643   4.305   6.789   2.722  0.0469 -0.3616  1.2257
12410TIP3   OH258644   1.196   3.026  14.163 -0.2899  0.2694  0.3914
12410TIP3    H158645   1.266   3.002  14.224 -0.5562 -1.5330  0.0457
12410TIP3    H258646   1.154   3.102  14.204  0.2238 -0.2254  1.9093
12411TIP3   OH258647   5.489   2.946  13.336  0.0313  0.3092  0.1152
12411TIP3    H158648   5.511   3.000  13.413  0.7989  0.6505 -0.3294
12411TIP3    H258649   5.404   2.908  13.358  0.6216 -0.2901  1.5014
12412TIP3   OH258650   1.592   1.819   5.830 -0.4709  0.2418  0.4127
12412TIP3    H158651   1.514   1.771   5.860  1.2413 -2.1920  1.2776
12412TIP3    H258652   1.588   1.814   5.735 -0.2630 -1.8953  0.4686
12413TIP3   OH258653   1.147   2.321   0.012  0.3085  0.9176  0.3056
12413TIP3    H158654   1.109   2.338   0.097 -0.7033 -0.8320  0.2507
12413TIP3    H258655   1.072   2.313  -0.047  0.7310 -1.5377 -0.0041
12414TIP3   OH258656   0.005   1.487   1.134 -0.0774  0.3001 -0.0226
12414TIP3    H158657   0.026   1.558   1.073 -1.0252  0.9135  0.3380
12414TIP3    H258658  -0.052   1.428   1.084  0.7211 -0.2346 -0.3264
12415TIP3   OH258659   4.867   1.469  11.382 -0.2077 -0.4872 -0.3091
12415TIP3    H158660   4.867   1.565  11.384 -1.6846 -0.3574  3.7449
12415TIP3    H258661   4.838   1.447  11.293  0.1764  2.7622 -1.3846
12416TIP3   OH258662   0.199   5.841   5.341 -0.3691 -0.5671  0.2366
12416TIP3    H158663   0.142   5.778   5.385 -0.1909 -0.0649  1.1916
12416TIP3    H258664   0.288   5.810   5.358 -0.3187 -1.0915 -0.8693
12417TIP3   OH258665   0.620   1.618   5.115  0.2400 -0.5869 -0.3180
12417TIP3    H158666   0.581   1.659   5.039  0.1663  1.6546  0.8545
12417TIP3    H258667   0.701   1.578   5.082  0.6600  1.0942 -1.4404
12418TIP3   OH258668   1.936   5.796  15.606  0.1792  0.2104 -0.1904
12418TIP3    H158669   1.957   5.777  15.697  0.2925  0.4988 -0.1569
12418TIP3    H258670   1.899   5.884  15.607 -0.0565  0.1145 -0.3884
12419TIP3   OH258671   3.564   6.415  12.889 -0.0228 -0.1965 -0.1764
12419TIP3    H158672   3.592   6.440  12.977  1.0630  0.7226 -0.7568
12419TIP3    H258673   3.602   6.328  12.875  0.2338 -0.1262  0.0789
12420TIP3   OH258674   2.771   1.234  11.760  0.4356  0.1452  0.5686
12420TIP3    H158675   2.780   1.319  11.802  0.6095  0.4439 -0.0726
12420TIP3    H258676   2.860   1.199  11.756  0.1285 -1.3309  3.3670
12421TIP3   OH258677   3.960   4.562   2.639  0.0788 -0.2859 -0.4020
12421TIP3    H158678   4.003   4.638   2.679  1.4813 -0.2191 -1.9104
12421TIP3    H258679   3.875   4.595   2.609 -0.1162  0.1744  0.6220
12422TIP3   OH258680   0.226   0.531  16.628  0.1457 -0.2806 -0.1523
12422TIP3    H158681   0.289   0.591  16.589  0.0035 -0.1379 -0.1608
12422TIP3    H258682   0.273   0.447  16.633  0.3617 -0.1547 -0.0818
12423TIP3   OH258683   2.628   4.390  12.750 -0.4833 -0.5117 -0.3836
12423TIP3    H158684   2.650   4.354  12.664  1.5398 -0.6058  0.1112
12423TIP3    H258685   2.713   4.398  12.794 -1.3044  1.1012  0.9960
12424TIP3   OH258686   5.875   1.797  14.357  0.7699  0.1289  0.3506
12424TIP3    H158687   5.813   1.727  14.375  0.6867 -0.1337 -0.8771
12424TIP3    H258688   5.831   1.852  14.292  1.7270  0.0501 -0.3901
12425TIP3   OH258689   3.316   5.341   6.750  1.2369  0.3787 -0.4842
12425TIP3    H158690   3.238   5.397   6.748  0.7602 -0.2928 -1.3735
12425TIP3    H258691   3.357   5.356   6.665  0.8820 -0.9271 -0.8946
12426TIP3   OH258692   2.301   0.689   4.560 -1.2406  0.3653 -0.4775
12426TIP3    H158693   2.258   0.741   4.628  0.4965 -0.3954  1.3226
12426TIP3    H258694   2.391   0.680   4.591 -1.6406 -4.6806  0.0515
12427TIP3   OH258695   6.110   3.304  14.203  0.2114  0.2155 -0.2111
12427TIP3    H158696   6.093   3.212  14.222  1.6292 -0.0556 -0.0873
12427TIP3    H258697   6.203   3.316  14.225 -0.2242  1.9744  0.9308
12428TIP3   OH258698   6.593   1.050  11.011 -0.1380 -0.1837 -0.0531
12428TIP3    H158699   6.517   1.059  10.954 -1.1597 -2.0912  0.9163
12428TIP3    H258700   6.576   1.109  11.084  0.0911  0.5577 -0.5831
12429TIP3   OH258701   0.095   1.891   0.183  0.3924 -0.5768 -0.8762
12429TIP3    H158702   0.073   1.949   0.110  0.4866  0.3399 -0.1969
12429TIP3    H258703   0.148   1.822   0.144 -0.6551 -0.8214 -1.8978
12430TIP3   OH258704   4.384   0.298   3.880  0.0313  0.1303 -0.5557
12430TIP3    H158705   4.370   0.279   3.787 -0.8544  1.0619 -0.6399
12430TIP3    H258706   4.297   0.324   3.912  0.4102  0.2042  0.4288
12431TIP3   OH258707   5.885   1.678  14.028  0.5009  0.3306 -0.0856
12431TIP3    H158708   5.806   1.718  14.064  0.5854  0.9731 -0.5799
12431TIP3    H258709   5.927   1.749  13.979  0.9169 -0.2410 -0.5776
12432TIP3   OH258710   0.861   5.002  15.436 -0.2689 -0.0882 -0.7405
12432TIP3    H158711   0.773   5.039  15.426 -0.1517 -0.2041 -2.5288
12432TIP3    H258712   0.916   5.076  15.462 -0.5727  0.3858 -1.4214
12433TIP3   OH258713   4.157   5.679   5.949 -0.1809  0.2491 -0.3158
12433TIP3    H158714   4.098   5.723   6.010 -0.0319  0.2757 -0.1870
12433TIP3    H258715   4.243   5.687   5.991 -0.0501  0.4271 -0.6179
12434TIP3   OH258716   5.159   4.053   4.635 -0.5277 -0.0234  0.1480
12434TIP3    H158717   5.064   4.058   4.623 -0.5392 -0.3729  0.0604
12434TIP3    H258718   5.192   4.020   4.552 -0.3871 -0.4158  0.3557
12435TIP3   OH258719   3.946   6.252  12.172  0.3678  0.5618  0.0138
12435TIP3    H158720   3.880   6.320  12.162  0.2882  0.3122 -1.4233
12435TIP3    H258721   3.899   6.170  12.154  0.9863  0.3585 -0.7481
12436TIP3   OH258722   6.355   1.108  14.355 -0.1191 -0.3815  0.5941
12436TIP3    H158723   6.325   1.199  14.349  0.5743 -0.0586  1.8364
12436TIP3    H258724   6.408   1.105  14.434  0.5025 -1.6979  0.1534
12437TIP3   OH258725   3.838   6.011   5.203 -0.3713  0.4766 -0.3161
12437TIP3    H158726   3.823   6.024   5.296 -1.6020  1.0104 -0.5666
12437TIP3    H258727   3.752   6.024   5.163 -0.1609 -1.0808 -1.3856
12438TIP3   OH258728   3.914   6.136   1.993  0.1084  0.6296  0.2796
12438TIP3    H158729   3.846   6.169   1.934  0.4377  1.2530  0.2420
12438TIP3    H258730   3.990   6.122   1.936 -0.6369 -2.3208 -0.1480
12439TIP3   OH258731   2.514   0.900   2.003  0.0695  0.3426 -0.7317
12439TIP3    H158732   2.424   0.870   1.996  0.1530  0.2577 -1.5591
12439TIP3    H258733   2.560   0.828   2.047 -0.0758 -0.0313 -1.1832
12440TIP3   OH258734   5.694   5.104  14.510  0.5167  0.4750  0.2598
12440TIP3    H158735   5.638   5.064  14.577  2.3866 -2.9886  0.0034
12440TIP3    H258736   5.662   5.068  14.428 -0.5728  3.2378 -0.6193
12441TIP3   OH258737   5.288   4.660  12.918 -0.0655  0.5172 -0.0140
12441TIP3    H158738   5.234   4.582  12.910  2.6579 -1.5325 -0.0055
12441TIP3    H258739   5.262   4.715  12.845 -1.0186 -1.0993 -0.9522
12442TIP3   OH258740   4.415   2.556  12.511  0.0119  0.2052 -0.1234
12442TIP3    H158741   4.369   2.623  12.561  0.0660  0.2323 -0.1097
12442TIP3    H258742   4.472   2.605  12.452  0.9627  0.1681  0.7346
12443TIP3   OH258743   6.152   1.121  15.948  0.2553 -0.3866  0.1730
12443TIP3    H158744   6.089   1.192  15.931  0.6259 -0.4420 -1.5849
12443TIP3    H258745   6.236   1.166  15.957  0.2162 -0.4550  0.9105
12444TIP3   OH258746   5.803   3.846   3.450  0.1409 -0.1166 -0.1263
12444TIP3    H158747   5.846   3.920   3.407  1.2499 -0.6078  0.0864
12444TIP3    H258748   5.860   3.772   3.431 -0.2625 -0.6649  0.7561
12445TIP3   OH258749   4.500   1.465   4.062  0.6750 -0.2824 -0.2325
12445TIP3    H158750   4.405   1.455   4.067  0.8555 -1.8668  1.1748
12445TIP3    H258751   4.518   1.543   4.114  0.0940  0.6025 -1.3201
12446TIP3   OH258752   6.755   3.538  12.363  0.3052 -0.5133  0.1688
12446TIP3    H158753   6.831   3.493  12.402  0.4378  0.7848  1.5242
12446TIP3    H258754   6.681   3.507  12.415  0.3809  0.6869  1.0244
12447TIP3   OH258755   4.709   3.381   2.863 -0.4474  0.7822 -0.0003
12447TIP3    H158756   4.660   3.300   2.869 -1.6232  1.4074 -0.7601
12447TIP3    H258757   4.733   3.388   2.770  2.3547 -0.1933  0.5461
12448TIP3   OH258758   4.909   0.072  12.611  0.2247 -0.0112  0.0218
12448TIP3    H158759   4.934   0.162  12.591 -1.0633  0.4828  0.4820
12448TIP3    H258760   4.932   0.061  12.703 -0.5279  0.1970  0.2418
12449TIP3   OH258761   0.904   6.463  14.015 -0.4153  0.1779  0.0702
12449TIP3    H158762   0.861   6.491  14.096 -0.2385 -1.5580  0.8103
12449TIP3    H258763   0.998   6.471  14.034 -0.3598  1.1905 -0.5261
12450TIP3   OH258764   3.043   1.051   5.108  0.9202 -0.2595  0.2222
12450TIP3    H158765   2.963   1.021   5.151  1.5653 -2.4524  0.0145
12450TIP3    H258766   3.016   1.126   5.055 -1.5113 -2.3629 -1.7339
12451TIP3   OH258767   3.301   1.227   5.403 -0.2844 -0.1273 -0.2733
12451TIP3    H158768   3.268   1.163   5.467  0.9236 -0.5146 -0.0140
12451TIP3    H258769   3.224   1.279   5.380 -1.1667 -1.2569  0.0008
12452TIP3   OH258770   3.786   0.031   3.039 -0.1602  0.0007  0.6094
12452TIP3    H158771   3.856  -0.032   3.052  0.1165  0.3219  0.6917
12452TIP3    H258772   3.829   0.108   3.001 -0.4886  0.1510  0.5314
12453TIP3   OH258773   1.802   1.818  11.406  0.3117  0.1513 -0.1305
12453TIP3    H158774   1.877   1.759  11.412 -0.2635 -0.7682 -1.5381
12453TIP3    H258775   1.827   1.882  11.339  0.5900  1.0244  0.7825
12454TIP3   OH258776   3.091   4.201  13.082 -0.5900 -0.1252 -0.2518
12454TIP3    H158777   3.132   4.259  13.018  0.5872 -1.1159 -0.4426
12454TIP3    H258778   3.132   4.224  13.165 -1.6991  0.7650  0.0715
12455TIP3   OH258779   4.095   0.292   2.344 -0.3714  0.6616 -0.0810
12455TIP3    H158780   4.023   0.300   2.281 -1.7287 -3.9176  0.5776
12455TIP3    H258781   4.169   0.332   2.299 -2.3555  2.0263 -2.4580
12456TIP3   OH258782   6.236   2.781  14.208  0.1346 -0.5909  0.2130
12456TIP3    H158783   6.161   2.784  14.150  0.4356 -0.9047 -0.1921
12456TIP3    H258784   6.311   2.764  14.151  0.6011  0.3186  0.5302
12457TIP3   OH258785   1.964   3.165  12.245 -0.2184  0.1343 -0.1569
12457TIP3    H158786   1.981   3.240  12.189  0.7953 -0.5851 -0.8503
12457TIP3    H258787   1.880   3.131  12.215 -0.6073  0.8878  0.0627
12458TIP3   OH258788   2.727   5.400   1.093 -0.3415  0.0552 -0.0267
12458TIP3    H158789   2.648   5.350   1.076 -0.4728  0.9785 -2.4872
12458TIP3    H258790   2.710   5.445   1.176 -2.7634  0.9388 -0.9465
12459TIP3   OH258791   2.867   4.785   3.311  0.4164  0.7369  0.1954
12459TIP3    H158792   2.902   4.854   3.255  1.2523  0.2184  0.0602
12459TIP3    H258793   2.902   4.704   3.274 -1.8279  0.0655 -0.6103
12460TIP3   OH258794   3.868   3.863   2.128  0.0521 -0.0360  0.3490
12460TIP3    H158795   3.814   3.786   2.110 -1.6989  0.6922  2.0924
12460TIP3    H258796   3.818   3.936   2.092  0.7315  0.4929  0.4632
12461TIP3   OH258797   0.639   5.870  14.929  0.2809 -0.3751 -0.3508
12461TIP3    H158798   0.565   5.929  14.918  0.0137 -0.5786  0.2953
12461TIP3    H258799   0.647   5.859  15.024  1.3941 -0.0263 -0.3834
12462TIP3   OH258800   3.631   1.817   0.573  0.6222 -0.2187  0.8737
12462TIP3    H158801   3.626   1.902   0.616 -0.2552 -1.4218  3.3032
12462TIP3    H258802   3.713   1.779   0.605  2.0167  0.3707 -1.6880
12463TIP3   OH258803   0.063   0.070  16.473  0.1901 -0.2034  0.5574
12463TIP3    H158804   0.135   0.104  16.526  0.9625  0.2279 -0.7157
12463TIP3    H258805   0.106   0.032  16.396 -0.8327 -1.6233  0.6439
12464TIP3   OH258806   2.479   3.210   4.483 -0.4438  0.2921  0.2550
12464TIP3    H158807   2.489   3.128   4.436  0.4178  0.6124 -0.1567
12464TIP3    H258808   2.514   3.276   4.423 -1.5254  1.0230  0.4015
12465TIP3   OH258809   1.695   4.066  12.620  0.4974  0.4235  0.4357
12465TIP3    H158810   1.619   4.102  12.666  0.0430 -0.2970  0.2645
12465TIP3    H258811   1.684   3.971  12.626  2.1674  0.2656  1.6962
12466TIP3   OH258812   4.184   1.758   3.773 -0.0302 -0.4310 -0.1947
12466TIP3    H158813   4.104   1.810   3.768 -0.2918 -0.8468 -0.3996
12466TIP3    H258814   4.251   1.814   3.734 -0.0820  0.1786  0.5773
12467TIP3   OH258815   0.205   2.929   5.651 -0.1661  0.0767  0.1954
12467TIP3    H158816   0.196   2.953   5.744  3.4057  0.7198  0.5190
12467TIP3    H258817   0.290   2.886   5.645 -1.5662 -2.7619 -2.3681
12468TIP3   OH258818   3.804   1.280  11.828  0.0508  0.1766 -0.2347
12468TIP3    H158819   3.832   1.363  11.866  0.7792  0.0671 -0.5174
12468TIP3    H258820   3.885   1.233  11.809 -0.2524  0.2561 -1.9737
12469TIP3   OH258821   0.242   0.539   5.936  0.6408  0.1760  0.5668
12469TIP3    H158822   0.322   0.589   5.951 -0.7761  2.2180  1.7394
12469TIP3    H258823   0.211   0.569   5.851  0.1498  0.8202  0.9649
12470TIP3   OH258824   3.412   2.517   1.100  0.1713  0.7435  0.2845
12470TIP3    H158825   3.487   2.501   1.043  0.3658 -1.5265  1.0841
12470TIP3    H258826   3.450   2.526   1.188 -0.4969 -1.5315  0.8677
12471TIP3   OH258827   2.799   0.485  13.721 -0.4065  0.2063 -0.7773
12471TIP3    H158828   2.874   0.477  13.780  0.1178  1.4900 -1.2196
12471TIP3    H258829   2.734   0.424  13.756  0.5973 -0.4538  0.0003
12472TIP3   OH258830   1.180   5.727   0.648 -0.8807 -0.4761 -0.2716
12472TIP3    H158831   1.273   5.744   0.629 -0.9984 -0.1649 -0.5750
12472TIP3    H258832   1.145   5.694   0.566 -1.1158 -0.2693 -0.2549
12473TIP3   OH258833   1.710   1.019  15.094 -0.0978 -0.1845  0.0412
12473TIP3    H158834   1.643   1.087  15.097  0.7196  0.7372 -1.4785
12473TIP3    H258835   1.681   0.959  15.025 -1.2781 -1.9607  1.9616
12474TIP3   OH258836   4.404   1.263  12.778 -0.1991 -0.4532 -0.4284
12474TIP3    H158837   4.423   1.207  12.853  2.0877  0.2374 -0.4172
12474TIP3    H258838   4.412   1.206  12.702  0.9821 -0.4140 -0.3451
12475TIP3   OH258839   0.628   3.426  13.753  0.1560  0.0929 -0.1668
12475TIP3    H158840   0.565   3.446  13.684  0.0461  0.5152  0.0584
12475TIP3    H258841   0.656   3.336  13.734 -0.2187  0.0446 -0.4919
12476TIP3   OH258842   5.142   1.616   6.046 -0.1835  0.5638 -0.5988
12476TIP3    H158843   5.142   1.612   5.950 -0.4203  0.0078 -0.5794
12476TIP3    H258844   5.160   1.708   6.066  3.2238  0.1487 -1.1435
12477TIP3   OH258845   6.008   1.972  12.140 -0.4625 -0.4261  0.2553
12477TIP3    H158846   6.036   1.936  12.055 -1.3475 -1.4269  0.3696
12477TIP3    H258847   5.993   1.895  12.194 -2.2426  0.1221  0.5774
12478TIP3   OH258848   6.280   1.164  12.214  0.3909 -0.0804 -0.9789
12478TIP3    H158849   6.375   1.163  12.208  0.7312 -1.4224  2.2686
12478TIP3    H258850   6.259   1.253  12.242  0.8249 -0.0945 -0.5984
12479TIP3   OH258851   1.766   3.608  11.687  0.2546  0.0288  0.6686
12479TIP3    H158852   1.858   3.587  11.704  0.4533  1.0182  0.8530
12479TIP3    H258853   1.735   3.649  11.768 -0.4452 -0.5631  0.7163
12480TIP3   OH258854   4.127   2.071   3.277  0.0515  0.2843  0.7351
12480TIP3    H158855   4.040   2.095   3.244  0.0728  2.7855  2.2372
12480TIP3    H258856   4.110   2.007   3.345 -0.4413 -0.5096 -0.1085
12481TIP3   OH258857   3.603   4.573   3.209 -0.5906  0.1558 -0.1544
12481TIP3    H158858   3.636   4.651   3.254 -1.4927  1.4426 -1.6264
12481TIP3    H258859   3.627   4.501   3.267  3.5301  1.0482 -0.4292
12482TIP3   OH258860   1.294   6.722  12.252 -0.3503  0.0426  0.2862
12482TIP3    H158861   1.251   6.779  12.317  0.5676  1.3454 -0.2218
12482TIP3    H258862   1.344   6.660  12.305  1.9340  2.2623  0.9108
12483TIP3   OH258863   0.464   6.024  14.618  0.1303  0.1155  0.3793
12483TIP3    H158864   0.450   5.930  14.609  1.1907 -0.0305  0.0889
12483TIP3    H258865   0.419   6.047  14.699 -2.0223 -0.2155 -0.6443
12484TIP3   OH258866   5.627   1.718  16.234 -0.3722 -0.3965  0.1937
12484TIP3    H158867   5.607   1.688  16.323 -0.9443 -2.1785 -0.4902
12484TIP3    H258868   5.548   1.699  16.184 -0.0056  0.4385 -0.7388
12485TIP3   OH258869   5.868   5.359   1.056  0.1866  0.4623 -0.3622
12485TIP3    H158870   5.907   5.348   0.969 -1.7980 -1.3365 -1.1470
12485TIP3    H258871   5.785   5.310   1.050 -0.3497  0.9122  2.3290
12486TIP3   OH258872   0.788   1.140   0.155  0.1290 -0.3805  0.6943
12486TIP3    H158873   0.828   1.058   0.124  1.5017  0.7652 -0.6829
12486TIP3    H258874   0.853   1.177   0.214  0.5337  0.8323 -0.4877
12487TIP3   OH258875   0.176   3.520  14.283 -0.1292  0.2553  0.1059
12487TIP3    H158876   0.256   3.483  14.319 -1.1183  0.3688  2.6148
12487TIP3    H258877   0.196   3.613  14.271  0.7365 -0.0851 -1.3256
12488TIP3   OH258878   2.833   1.112   5.473 -0.1409 -0.1636  0.4060
12488TIP3    H158879   2.745   1.149   5.472  0.6601  1.8874  1.5665
12488TIP3    H258880   2.852   1.093   5.381 -1.4107  0.2937  0.0333
12489TIP3   OH258881   4.659   2.258   5.357  0.3716 -0.0462  0.0487
12489TIP3    H158882   4.577   2.307   5.364  1.2130  1.3076  1.0147
12489TIP3    H258883   4.642   2.176   5.404 -0.2838  0.4182  0.6371
12490TIP3   OH258884   3.685   1.078   6.484  0.2412 -0.3757 -0.0398
12490TIP3    H158885   3.680   0.994   6.438 -0.5755 -0.4030  0.0778
12490TIP3    H258886   3.600   1.119   6.468 -0.1751 -0.5087  1.6508
12491TIP3   OH258887   5.976   1.975   0.307  0.2182  0.0485 -0.2774
12491TIP3    H158888   5.978   1.935   0.219 -0.6588 -0.3649 -0.1168
12491TIP3    H258889   6.057   2.027   0.311  0.0597  0.4270 -1.4930
12492TIP3   OH258890   6.145   4.319  14.233 -0.4217  0.1290 -0.9365
12492TIP3    H158891   6.081   4.248  14.240  0.3866 -0.4774  1.6763
12492TIP3    H258892   6.159   4.347  14.324  1.2409  1.8548 -1.6526
12493TIP3   OH258893   5.033   5.102   2.730  0.2493 -0.0652 -0.1490
12493TIP3    H158894   4.982   5.024   2.709  0.1919  0.2775 -1.3521
12493TIP3    H258895   4.980   5.175   2.697  0.5481  0.4429  0.4804
12494TIP3   OH258896   1.695   4.003  15.836 -0.6096 -0.3674  0.0727
12494TIP3    H158897   1.715   3.916  15.870  0.3071 -0.3183 -0.3237
12494TIP3    H258898   1.647   4.045  15.907  0.8549 -0.4424  1.1493
12495TIP3   OH258899   6.654   5.696   3.924 -0.0878 -0.0653  0.1783
12495TIP3    H158900   6.656   5.750   3.845  0.0612  1.0528  0.9241
12495TIP3    H258901   6.563   5.668   3.931 -0.3655  0.8210  0.2522
12496TIP3   OH258902   3.393   1.529  11.341  1.2057 -0.4530 -0.6214
12496TIP3    H158903   3.304   1.551  11.366  1.2884  0.5298 -1.1465
12496TIP3    H258904   3.396   1.542  11.247  1.4333 -2.2127 -0.8949
12497TIP3   OH258905   2.899   4.831   2.004  0.4892  0.2372 -0.0574
12497TIP3    H158906   2.835   4.761   1.990 -0.2761  1.3029 -2.4740
12497TIP3    H258907   2.845   4.909   2.019  1.2548  0.7972 -0.1762
12498TIP3   OH258908   3.252   6.105   4.936  0.5938 -0.1422 -0.2535
12498TIP3    H158909   3.221   6.194   4.920 -2.1055 -1.2702 -1.9415
12498TIP3    H258910   3.297   6.110   5.021 -0.5350  2.5783  0.2798
12499TIP3   OH258911   4.338   0.881   3.516  0.4870  0.5783  0.0528
12499TIP3    H158912   4.245   0.862   3.530 -0.3068  1.8232 -2.6604
12499TIP3    H258913   4.350   0.870   3.421  2.9839  1.0194  0.2562
12500TIP3   OH258914   4.900   4.066  14.424  0.4331  0.2013  0.2102
12500TIP3    H158915   4.890   4.052  14.330 -0.5839  0.2910  0.2983
12500TIP3    H258916   4.979   4.119  14.432  0.4346  0.3292 -0.6042
12501TIP3   OH258917   4.432   0.472  11.732  0.0385 -0.8344  0.3263
12501TIP3    H158918   4.454   0.440  11.819  0.4484 -2.7456 -0.4314
12501TIP3    H258919   4.420   0.393  11.679  1.1487  0.2479 -1.6859
12502TIP3   OH258920   1.774   5.606   4.401 -0.9509  0.4653 -0.1998
12502TIP3    H158921   1.738   5.570   4.482 -1.9089 -3.3665 -2.0679
12502TIP3    H258922   1.700   5.650   4.360 -0.8861  1.0496  0.3057
12503TIP3   OH258923   5.555   0.270   0.741 -0.4967 -0.4308  0.0797
12503TIP3    H158924   5.636   0.232   0.777 -1.1413 -0.9181  1.0602
12503TIP3    H258925   5.488   0.247   0.806 -1.3531  0.2726 -0.5528
12504TIP3   OH258926   0.502   3.315   0.387 -0.1695 -0.6953 -0.9404
12504TIP3    H158927   0.477   3.240   0.331  2.3540 -1.3895 -1.2551
12504TIP3    H258928   0.532   3.275   0.468  1.0186 -0.0300 -1.0320
12505TIP3   OH258929   3.226   4.191   1.192  0.9336  0.2630  0.2445
12505TIP3    H158930   3.321   4.182   1.201  0.8647  0.4179  1.1977
12505TIP3    H258931   3.195   4.210   1.280 -0.5334 -4.3340  1.0150
12506TIP3   OH258932   0.298   2.528   4.683  0.2108 -0.3884  0.3115
12506TIP3    H158933   0.371   2.578   4.647 -0.4789  0.6978  0.3557
12506TIP3    H258934   0.308   2.441   4.645 -0.7452  0.7820 -3.0463
12507TIP3   OH258935   6.229   0.102  11.366  0.1053  0.3320  0.0773
12507TIP3    H158936   6.271   0.017  11.383 -0.0572  0.2801  0.2266
12507TIP3    H258937   6.157   0.081  11.306 -0.3578  0.2544  0.6461
12508TIP3   OH258938   5.899   6.488   2.500  0.0337 -0.4545  0.0347
12508TIP3    H158939   5.807   6.461   2.510  0.4098 -1.8907 -0.1475
12508TIP3    H258940   5.913   6.552   2.569 -1.9511  2.1754 -1.7967
12509TIP3   OH258941   5.997   3.013  14.895  0.4618 -0.1593 -0.7038
12509TIP3    H158942   6.002   3.063  14.977  0.8738 -1.0374 -0.1796
12509TIP3    H258943   5.917   3.044  14.853 -0.2947 -0.3891  0.5129
12510TIP3   OH258944   3.585   3.803  13.229  0.1265  0.2448  0.2261
12510TIP3    H158945   3.543   3.721  13.202  1.6859 -0.6983  0.4894
12510TIP3    H258946   3.657   3.775  13.286 -1.2565  1.9862  3.0430
12511TIP3   OH258947   2.875   3.917  16.988  0.3942  0.2755 -0.0852
12511TIP3    H158948   2.835   3.836  17.019  0.3089  0.7739  1.1767
12511TIP3    H258949   2.895   3.901  16.896 -2.5282 -0.0724 -0.7579
12512TIP3   OH258950   2.685   4.336   2.500  0.4150 -0.4217 -0.0070
12512TIP3    H158951   2.639   4.339   2.416  1.1094  1.1318 -0.3763
12512TIP3    H258952   2.686   4.427   2.529 -0.8320 -1.0749  2.2799
12513TIP3   OH258953   6.586   6.299   1.075  0.1273  0.1208  0.2086
12513TIP3    H158954   6.499   6.336   1.060 -0.0347  0.1245  1.0670
12513TIP3    H258955   6.643   6.376   1.086  0.3454  0.1237 -0.8467
12514TIP3   OH258956   6.640   2.983   5.128 -0.2143 -0.3894 -0.7814
12514TIP3    H158957   6.620   2.924   5.201 -0.7049  0.1122 -0.5119
12514TIP3    H258958   6.611   3.069   5.157  1.8197  0.2885 -0.5878
12515TIP3   OH258959   0.504   1.481   1.634  0.1758 -0.5826 -0.5142
12515TIP3    H158960   0.473   1.392   1.648  0.6707 -0.5748  0.6825
12515TIP3    H258961   0.433   1.536   1.665  1.3097 -0.5644  2.2566
12516TIP3   OH258962   0.779   1.612  13.829 -0.5287  0.0442  0.0325
12516TIP3    H158963   0.810   1.564  13.753 -3.2399  0.3745 -1.3693
12516TIP3    H258964   0.720   1.552  13.874 -0.5100  0.5595  0.7761
12517TIP3   OH258965   5.528   5.230  13.158  0.6131  0.2673  0.1486
12517TIP3    H158966   5.615   5.228  13.199  1.3099  1.2811 -1.1836
12517TIP3    H258967   5.487   5.309  13.193 -0.4762 -1.0462  2.0258
12518TIP3   OH258968   3.257   5.583   2.080  0.2483  0.0181  0.4593
12518TIP3    H158969   3.166   5.558   2.096 -0.9613  2.7001 -1.5140
12518TIP3    H258970   3.285   5.526   2.008  0.2061 -0.8694  1.1243
12519TIP3   OH258971   3.276   6.129   1.499  0.1012 -0.5617  0.5616
12519TIP3    H158972   3.185   6.130   1.529  0.2874 -0.4666  1.1231
12519TIP3    H258973   3.327   6.100   1.575  0.7523  1.2096  0.8581
12520TIP3   OH258974   3.473   2.767  14.012 -0.0751  0.1668  0.0993
12520TIP3    H158975   3.512   2.846  13.974 -1.8212  1.3199  0.5599
12520TIP3    H258976   3.495   2.771  14.105 -1.1419  0.7900  0.3494
12521TIP3   OH258977   4.488   2.242  11.790 -1.0003 -0.3425 -0.4672
12521TIP3    H158978   4.534   2.208  11.868  0.0899 -0.7920 -1.2702
12521TIP3    H258979   4.471   2.334  11.810 -2.8643 -0.9908  1.2397
12522TIP3   OH258980   1.390   5.295  12.793  0.3457  0.2886 -0.4303
12522TIP3    H158981   1.295   5.282  12.796  0.2271  1.3496  1.3573
12522TIP3    H258982   1.423   5.250  12.871  1.3507 -0.1778 -1.0975
12523TIP3   OH258983   3.606   0.734  15.506  0.2857  0.6644  0.4864
12523TIP3    H158984   3.699   0.746  15.525  0.0383  1.6625  1.1581
12523TIP3    H258985   3.569   0.706  15.589  0.1679 -0.9730 -0.0820
12524TIP3   OH258986   2.068   2.843  12.184  0.0445  0.0396  0.3612
12524TIP3    H158987   2.036   2.791  12.258  1.5323  0.1121  1.1012
12524TIP3    H258988   2.024   2.927  12.193 -0.1069 -0.0951  0.9275
12525TIP3   OH258989   3.177   2.149   3.474 -1.2080  0.2340 -0.8278
12525TIP3    H158990   3.128   2.201   3.537  0.4803  2.2806 -1.0762
12525TIP3    H258991   3.163   2.058   3.501 -0.7031  0.9965  2.3991
12526TIP3   OH258992   0.552   1.339  16.088  0.1596  0.2637  0.3001
12526TIP3    H158993   0.581   1.270  16.149  0.9052  0.1124 -0.2171
12526TIP3    H258994   0.538   1.293  16.005  0.0896  0.6387  0.1052
12527TIP3   OH258995   1.571   4.146   4.193 -0.2718  0.3381  0.3658
12527TIP3    H158996   1.516   4.074   4.225  1.1691 -1.5982 -1.2770
12527TIP3    H258997   1.657   4.129   4.231  0.0386  1.3765  0.1609
12528TIP3   OH258998   2.484   5.076   5.993 -0.6352  0.5557  0.3580
12528TIP3    H158999   2.535   5.142   5.947 -1.1734  1.7932  1.4497
12528TIP3    H259000   2.419   5.045   5.929  0.3040  0.2916 -0.4813
12529TIP3   OH259001   0.809   4.899  16.605 -0.5132  0.4750  0.4944
12529TIP3    H159002   0.764   4.983  16.609  0.6350  1.2098 -0.8968
12529TIP3    H259003   0.773   4.855  16.528 -0.1099  0.3041  0.3985
12530TIP3   OH259004   1.809   5.853   0.491 -0.2737 -0.4105  0.0001
12530TIP3    H159005   1.828   5.946   0.480 -0.3725 -0.5979 -2.3104
12530TIP3    H259006   1.736   5.836   0.431 -0.5478 -1.8962  0.6933
12531TIP3   OH259007   5.857   5.032  11.466  0.3400  0.1808  0.2755
12531TIP3    H159008   5.942   5.004  11.432  0.5797  1.5157 -0.2910
12531TIP3    H259009   5.877   5.113  11.513 -0.7218  0.8761 -0.4508
12532TIP3   OH259010   0.247   1.491  13.131 -0.4358  0.4860 -0.2932
12532TIP3    H159011   0.216   1.403  13.110 -0.9311  0.6949 -0.4727
12532TIP3    H259012   0.171   1.534  13.172 -0.2504  0.8739 -0.3500
12533TIP3   OH259013   3.376   2.247   1.187 -0.1824 -0.3597 -0.4189
12533TIP3    H159014   3.362   2.332   1.144  0.4381 -0.6937 -1.3086
12533TIP3    H259015   3.354   2.263   1.279  1.0829  1.0948 -0.3311
12534TIP3   OH259016   6.106   2.525   0.037 -0.5059 -0.4490 -0.3169
12534TIP3    H159017   6.165   2.557  -0.031 -0.5320 -0.6499 -0.4334
12534TIP3    H259018   6.033   2.486  -0.011 -1.9433  1.9237 -0.2143
12535TIP3   OH259019   5.909   4.652  15.832  0.2247 -0.0009  0.3380
12535TIP3    H159020   5.938   4.586  15.770 -1.3885 -0.2303 -0.1982
12535TIP3    H259021   5.839   4.610  15.882 -1.9545  1.7527 -1.0806
12536TIP3   OH259022   2.481   1.138   3.013  0.5947 -0.4050 -0.0234
12536TIP3    H159023   2.476   1.089   3.096 -0.6490 -0.2171  0.0453
12536TIP3    H259024   2.391   1.135   2.979  1.0916 -0.4857 -1.3798
12537TIP3   OH259025   0.508   4.033   5.300 -0.7764  0.6440 -0.4943
12537TIP3    H159026   0.561   3.967   5.254  0.5164  2.0481 -1.1001
12537TIP3    H259027   0.538   4.029   5.390 -0.9919  0.1442 -0.4385
12538TIP3   OH259028   5.088   5.883  15.234  0.1923 -0.0854 -0.2650
12538TIP3    H159029   5.092   5.788  15.226 -1.3744 -0.1854 -0.0447
12538TIP3    H259030   5.111   5.900  15.326 -0.7725 -0.3580  0.0373
12539TIP3   OH259031   5.222   4.992  12.933  0.1600 -0.1066  0.3394
12539TIP3    H159032   5.207   4.937  12.856 -1.9676  2.5051 -1.3077
12539TIP3    H259033   5.284   5.058  12.904  0.6285 -0.0579  1.4125
12540TIP3   OH259034   1.381   0.354  16.996 -0.1545  0.8098 -0.2276
12540TIP3    H159035   1.314   0.381  16.934 -2.0185 -0.8391  0.9374
12540TIP3    H259036   1.439   0.429  17.004  1.5212  0.4831 -5.5318
12541TIP3   OH259037   0.054   4.577   2.446  0.9021  0.7255 -0.2184
12541TIP3    H159038  -0.008   4.543   2.381  1.6673  1.3069 -1.2754
12541TIP3    H259039   0.130   4.604   2.395  2.6646 -1.2952  1.1836
12542TIP3   OH259040   6.321   1.612  15.597  0.1833  0.1170  0.0687
12542TIP3    H159041   6.240   1.638  15.553  0.0665  3.2999  1.8478
12542TIP3    H259042   6.293   1.564  15.674  0.1021 -0.3778 -0.2658
12543TIP3   OH259043   6.358   2.529   3.289  0.3012  0.0218 -0.3398
12543TIP3    H159044   6.307   2.452   3.263 -0.5403  0.6509 -0.5750
12543TIP3    H259045   6.372   2.518   3.383 -0.7426  0.1034 -0.1611
12544TIP3   OH259046   5.668   3.064   1.697 -0.8047 -0.0187  0.0444
12544TIP3    H159047   5.643   2.982   1.740 -1.5189 -0.3951 -1.0458
12544TIP3    H259048   5.702   3.119   1.768  0.8421 -1.6820  0.6283
12545TIP3   OH259049   5.620   6.294   4.660  0.0112  0.2122 -0.2031
12545TIP3    H159050   5.614   6.374   4.609  1.4322 -0.6018 -1.7549
12545TIP3    H259051   5.536   6.287   4.705 -1.5784  0.6799 -2.9134
12546TIP3   OH259052   1.350   1.509  14.745 -0.1905 -0.1562 -0.9114
12546TIP3    H159053   1.382   1.500  14.655 -0.1511 -0.7513 -0.8407
12546TIP3    H259054   1.416   1.563  14.788  1.5524 -2.5138 -0.3910
12547TIP3   OH259055   4.238   4.081   2.295 -0.2092  0.6144 -0.3955
12547TIP3    H159056   4.243   3.990   2.267 -1.1306 -0.1477  1.6852
12547TIP3    H259057   4.158   4.115   2.255 -0.7257 -0.0098  0.0784
12548TIP3   OH259058   2.573   4.447   4.970 -0.2435 -0.2947 -0.2016
12548TIP3    H159059   2.558   4.425   5.062  1.0817 -1.5677 -0.2482
12548TIP3    H259060   2.668   4.457   4.963 -0.3136 -0.3378 -1.4585
12549TIP3   OH259061   2.110   3.710  11.301  0.2471  0.1583 -0.2862
12549TIP3    H159062   2.093   3.774  11.370  0.8255  0.9128 -0.8230
12549TIP3    H259063   2.024   3.683  11.271 -0.0049  0.6808 -0.0381
12550TIP3   OH259064   0.134   4.595  13.281  0.5903 -0.4371 -0.6875
12550TIP3    H159065   0.189   4.529  13.325 -0.0286 -1.6990 -1.7422
12550TIP3    H259066   0.124   4.562  13.192 -0.0373  0.9333 -1.1500
12551TIP3   OH259067   0.135   3.654  13.805 -0.3286  0.0579  0.1075
12551TIP3    H159068   0.073   3.584  13.827 -0.2411 -0.4203 -1.1104
12551TIP3    H259069   0.159   3.692  13.890 -0.6084 -1.1890  0.7702
12552TIP3   OH259070   2.792   0.686   4.542 -0.1249  0.1430  0.3440
12552TIP3    H159071   2.860   0.679   4.476 -1.4786  0.9005 -1.2021
12552TIP3    H259072   2.765   0.778   4.539 -1.4031 -0.1981  0.6840
12553TIP3   OH259073   5.896   0.221  13.782 -0.2422 -0.0878 -0.1392
12553TIP3    H159074   5.813   0.262  13.759 -0.1398  0.8066  1.0016
12553TIP3    H259075   5.949   0.229  13.704 -1.4713 -1.3661 -1.1546
12554TIP3   OH259076   5.075   1.874   5.708 -0.1192  0.2194 -0.2432
12554TIP3    H159077   5.083   1.784   5.742  0.1852  0.3219 -0.0438
12554TIP3    H259078   5.132   1.876   5.631 -0.5031  0.1039 -0.5388
12555TIP3   OH259079   5.139   2.171   0.185 -0.1686 -0.6983 -0.4029
12555TIP3    H159080   5.128   2.146   0.093 -0.8442 -0.5842 -0.3532
12555TIP3    H259081   5.103   2.259   0.191 -0.9977 -1.0610  0.1649
12556TIP3   OH259082   0.723   4.859   2.048 -0.7197 -0.5856  0.3288
12556TIP3    H159083   0.733   4.892   1.959  2.1268 -0.3208  0.6781
12556TIP3    H259084   0.655   4.914   2.087 -0.5138  0.6656 -1.0288
12557TIP3   OH259085   6.076   1.552  14.938  0.6028  0.3519 -0.2140
12557TIP3    H159086   6.054   1.487  14.871 -0.0130 -0.6998  0.9795
12557TIP3    H259087   6.144   1.606  14.897  1.6672 -1.4849 -0.9771
12558TIP3   OH259088   3.279   1.297  15.203 -0.0673 -0.6171 -0.4660
12558TIP3    H159089   3.343   1.289  15.133  0.8637 -0.1313  0.2960
12558TIP3    H259090   3.326   1.343  15.273 -1.0460 -0.8447  0.3677
12559TIP3   OH259091   1.982   2.133   1.689 -0.3419 -0.2002  0.3718
12559TIP3    H159092   1.992   2.227   1.671  0.6182 -0.7519 -2.4747
12559TIP3    H259093   1.888   2.122   1.704 -0.2029  1.5085  3.4154
12560TIP3   OH259094   3.582   4.113   4.428  0.5867 -0.2456 -0.1497
12560TIP3    H159095   3.643   4.044   4.455  2.7014  1.6734  0.2432
12560TIP3    H259096   3.571   4.168   4.505  0.8098  1.1571 -1.0752
12561TIP3   OH259097   6.473   5.122   4.006 -0.5497  0.1288 -0.2921
12561TIP3    H159098   6.560   5.112   4.045 -1.3115 -0.5677  1.3409
12561TIP3    H259099   6.487   5.178   3.930  1.5258 -1.0224 -0.8365
12562TIP3   OH259100   0.958   5.372   1.033  0.2141 -0.2524 -0.4925
12562TIP3    H159101   0.910   5.338   1.109 -0.2188 -0.5810 -0.9111
12562TIP3    H259102   0.892   5.379   0.964  1.1110 -2.6689 -1.7305
12563TIP3   OH259103   6.541   0.517   1.695  0.4396  0.8955  0.1781
12563TIP3    H159104   6.558   0.611   1.691  3.5726  0.4091 -0.6637
12563TIP3    H259105   6.527   0.498   1.788  0.0455  2.1264  0.3784
12564TIP3   OH259106   5.476   6.305  11.689 -0.3259  0.1179  0.3487
12564TIP3    H159107   5.473   6.228  11.745  1.0144 -0.9708 -0.9930
12564TIP3    H259108   5.434   6.278  11.607  0.2207  0.7659 -0.1639
12565TIP3   OH259109   6.475   5.700   0.598 -0.3326 -0.4608 -0.2480
12565TIP3    H159110   6.478   5.699   0.502 -1.7557 -1.7289 -0.3333
12565TIP3    H259111   6.546   5.758   0.624  0.1187 -0.1251 -2.0691
12566TIP3   OH259112   1.141   0.244  12.026  0.4108  0.2230 -0.1306
12566TIP3    H159113   1.105   0.327  11.994 -1.7041 -0.3067  0.7003
12566TIP3    H259114   1.153   0.258  12.120  1.1658 -0.0421 -0.1844
12567TIP3   OH259115   3.552   2.528  12.469  0.4892  0.2721  0.2597
12567TIP3    H159116   3.472   2.509  12.519  1.6489 -1.0359  1.7248
12567TIP3    H259117   3.526   2.517  12.378 -1.5392  2.0692  0.5574
12568TIP3   OH259118   3.701   2.054  15.030 -0.5170 -0.1978  0.6777
12568TIP3    H159119   3.697   2.127  14.968 -0.3288 -0.4289  0.3895
12568TIP3    H259120   3.685   2.094  15.116 -1.0208  0.0884  0.4563
12569TIP3   OH259121   5.998   3.890   0.059 -0.0934 -0.4952  0.4233
12569TIP3    H159122   5.982   3.865   0.150  0.0317 -1.5680  0.1618
12569TIP3    H259123   6.004   3.807   0.012 -0.1038  0.0458 -0.5598
12570TIP3   OH259124   2.008   2.449   2.263  0.3513 -0.1095 -0.2214
12570TIP3    H159125   1.953   2.416   2.333  1.5909 -1.4507  0.1641
12570TIP3    H259126   2.085   2.485   2.308  1.5056 -1.6535 -0.8780
12571TIP3   OH259127   5.668   0.291   1.966  0.3996 -0.2099 -0.2096
12571TIP3    H159128   5.745   0.266   1.914  0.8416  0.5063  0.0725
12571TIP3    H259129   5.691   0.377   2.001 -0.8279  0.3432 -0.6967
12572TIP3   OH259130   5.668   6.262   0.500 -0.4168 -0.4587  0.4198
12572TIP3    H159131   5.658   6.325   0.572  0.8029  0.5242 -0.2261
12572TIP3    H259132   5.712   6.187   0.539  0.5024  0.1909  0.6582
12573TIP3   OH259133   1.760   1.861   3.438  0.6610  0.6946 -0.1366
12573TIP3    H159134   1.766   1.907   3.522 -1.4855 -1.0833  1.0866
12573TIP3    H259135   1.778   1.770   3.460 -1.3899 -0.0495 -1.2949
12574TIP3   OH259136   6.091   5.357  13.970  0.3235 -0.2542 -0.3665
12574TIP3    H159137   6.088   5.262  13.968  0.3754 -0.2647  0.1009
12574TIP3    H259138   6.116   5.379  14.060 -2.6468  0.2855  0.4151
12575TIP3   OH259139   4.784   5.061   4.225  0.3255  0.0157  0.0308
12575TIP3    H159140   4.706   5.094   4.180 -0.3250 -1.2766  0.1548
12575TIP3    H259141   4.778   4.966   4.217  1.4644 -0.1417  0.7634
12576TIP3   OH259142   4.435   1.887  14.042 -0.6312  0.5145  0.2165
12576TIP3    H159143   4.385   1.807  14.053  0.4470 -0.3875 -1.1370
12576TIP3    H259144   4.471   1.882  13.953  0.2390  2.0463  0.4350
12577TIP3   OH259145   2.533   1.974  12.604 -0.2595 -0.0273  0.1979
12577TIP3    H159146   2.450   1.993  12.647 -0.3716 -0.6446  0.2666
12577TIP3    H259147   2.532   2.027  12.524 -0.7103 -0.0163  0.2123
12578TIP3   OH259148   1.229   3.985  17.178  0.2129  0.4929 -0.3333
12578TIP3    H159149   1.210   4.068  17.135  1.1993  1.3742  0.8595
12578TIP3    H259150   1.208   4.001  17.270 -1.2900 -1.1539 -0.3365
12579TIP3   OH259151   4.535   1.837   0.122  0.4037 -0.3719 -0.2307
12579TIP3    H159152   4.586   1.757   0.137 -0.6938 -0.8226  1.3719
12579TIP3    H259153   4.453   1.806   0.084 -0.2973 -0.1184  1.0128
12580TIP3   OH259154   0.283   4.373  13.416  0.7817  0.2658  0.1334
12580TIP3    H159155   0.338   4.347  13.490 -0.2683  0.3851  0.9705
12580TIP3    H259156   0.242   4.291  13.387  1.9693  0.0358 -1.0022
12581TIP3   OH259157   2.394   0.673   4.141  0.2844  0.4854  0.4957
12581TIP3    H159158   2.440   0.603   4.187 -0.6625  0.5694  1.6384
12581TIP3    H259159   2.360   0.632   4.062  0.8576 -0.0034  0.4956
12582TIP3   OH259160   6.707   6.122  13.384  0.0935 -0.3768 -0.2391
12582TIP3    H159161   6.673   6.056  13.444 -1.8256  0.9171  0.1860
12582TIP3    H259162   6.662   6.104  13.301 -0.4959  0.4262 -0.0996
12583TIP3   OH259163   3.553   2.121  12.132  0.0606 -0.3518 -0.2277
12583TIP3    H159164   3.603   2.085  12.060  2.0930 -0.5104  1.1864
12583TIP3    H259165   3.558   2.216  12.120  2.0790 -0.2927  0.7077
12584TIP3   OH259166   6.057   6.510  13.500  0.1034 -0.9408 -0.3825
12584TIP3    H159167   6.013   6.448  13.559  2.9059 -3.3699 -0.6036
12584TIP3    H259168   6.131   6.543  13.551 -0.5197  1.2487 -0.7839
12585TIP3   OH259169   1.128   2.129   2.068 -0.7848 -0.3388 -0.5681
12585TIP3    H159170   1.076   2.179   2.005  0.4935  1.5691 -0.1945
12585TIP3    H259171   1.121   2.179   2.150  0.9201 -0.4905 -0.2969
12586TIP3   OH259172   0.297   1.505  16.779  0.0088  0.4183  0.3421
12586TIP3    H159173   0.371   1.561  16.800  1.3855 -0.7407 -1.0552
12586TIP3    H259174   0.259   1.481  16.863  0.7916  1.5948  1.0510
12587TIP3   OH259175   3.568   2.970   2.908 -0.3213  0.1667  0.3620
12587TIP3    H159176   3.583   2.952   3.001  0.1698 -0.9983  0.0787
12587TIP3    H259177   3.654   2.993   2.873 -0.7635  2.1798  0.4863
12588TIP3   OH259178   5.089   3.432  13.985 -0.6137  0.8199  0.0806
12588TIP3    H159179   4.999   3.455  14.010 -0.4988  1.3307  0.0252
12588TIP3    H259180   5.143   3.464  14.058 -0.6914 -1.7761  1.3991
12589TIP3   OH259181   4.216   1.404  15.716 -0.2120  0.1549  0.2920
12589TIP3    H159182   4.305   1.434  15.737  0.2640 -0.8176 -0.2131
12589TIP3    H259183   4.213   1.407  15.620  0.9091 -3.9351 -0.0870
12590TIP3   OH259184   6.530   0.992   2.221  0.0952 -0.1781  0.1480
12590TIP3    H159185   6.435   1.002   2.220  0.1401  0.3010 -0.1304
12590TIP3    H259186   6.562   1.070   2.176  0.4737 -1.8916 -2.8312
12591TIP3   OH259187   0.322   3.630   2.085  0.0441 -0.3911  0.0602
12591TIP3    H159188   0.356   3.706   2.133 -1.0906 -0.3764  0.8608
12591TIP3    H259189   0.231   3.653   2.065 -0.2144 -1.4127  0.0254
12592TIP3   OH259190   6.613   1.112   1.343  0.8392 -0.3671 -0.0229
12592TIP3    H159191   6.693   1.060   1.346  0.9709 -0.1366  1.7291
12592TIP3    H259192   6.643   1.202   1.338  0.7201 -0.2671  0.8518
12593TIP3   OH259193   1.044   5.452  11.763  0.4591  1.1399 -0.3392
12593TIP3    H159194   1.098   5.500  11.827  0.6178  2.3072 -1.3172
12593TIP3    H259195   1.102   5.441  11.687  0.5770 -1.0436  0.0176
12594TIP3   OH259196   4.362   3.215   1.509  0.1241  0.0688 -0.1630
12594TIP3    H159197   4.289   3.260   1.465 -0.4214 -0.3867  0.2620
12594TIP3    H259198   4.365   3.129   1.467 -0.8083 -0.6048  1.0879
12595TIP3   OH259199   2.347   6.315   2.428 -0.0576 -0.5041 -0.3467
12595TIP3    H159200   2.371   6.271   2.346 -0.5559 -0.9127 -0.2809
12595TIP3    H259201   2.337   6.407   2.404 -0.1811 -0.6180 -0.7401
12596TIP3   OH259202   4.868   5.518   3.957  0.6642  0.1164  0.2960
12596TIP3    H159203   4.852   5.425   3.973  1.0169 -0.2719 -1.4041
12596TIP3    H259204   4.866   5.527   3.862 -0.8274  2.1477  0.4660
12597TIP3   OH259205   1.961   4.424  13.117  0.7512  0.4575 -0.0507
12597TIP3    H159206   1.979   4.410  13.210 -3.0154  1.6194  1.0534
12597TIP3    H259207   1.974   4.518  13.104 -1.1658  0.7907  0.0783
12598TIP3   OH259208   4.966   5.964  14.228 -0.2644 -0.1398  0.2784
12598TIP3    H159209   5.028   6.030  14.198  0.9970 -0.5830  1.7705
12598TIP3    H259210   4.991   5.948  14.320 -3.5747  0.8126  1.4808
12599TIP3   OH259211   1.382   4.193  12.502 -0.5368  0.0561  0.7139
12599TIP3    H159212   1.330   4.180  12.423 -0.4345  0.8812  0.5009
12599TIP3    H259213   1.342   4.135  12.567 -0.2165 -1.1343 -0.1119
12600TIP3   OH259214   5.038   1.012  16.806  0.8198 -0.2805 -0.0177
12600TIP3    H159215   4.974   1.024  16.876 -1.9312 -0.9761 -2.1973
12600TIP3    H259216   5.083   0.931  16.828 -1.6515 -1.7759 -0.1433
12601TIP3   OH259217   4.052   4.429  13.107 -0.9763 -0.1879  0.7109
12601TIP3    H159218   3.993   4.378  13.051  0.3066 -0.2863 -0.6054
12601TIP3    H259219   4.018   4.518  13.102  1.0590  0.5939 -3.2415
12602TIP3   OH259220   2.381   4.637  10.655  0.5576  0.0164 -0.0318
12602TIP3    H159221   2.455   4.580  10.677  1.0660  1.2105  1.5296
12602TIP3    H259222   2.308   4.577  10.641  1.7816 -1.1834 -1.5416
12603TIP3   OH259223   2.537   0.082  13.742  0.0837  0.0399  0.1676
12603TIP3    H159224   2.476   0.066  13.670 -1.5921  0.6378  1.3718
12603TIP3    H259225   2.499   0.034  13.816  0.1298  1.8064  1.3841
12604TIP3   OH259226   2.857   2.657  13.376  0.2509  0.6752 -0.0402
12604TIP3    H159227   2.929   2.594  13.383 -0.3028  0.0545  0.1951
12604TIP3    H259228   2.884   2.730  13.431  0.8556  0.5997 -0.2276
12605TIP3   OH259229   3.551   6.223   3.395  0.3897 -0.2802  0.2281
12605TIP3    H159230   3.601   6.145   3.369  0.0030 -0.8697  1.2083
12605TIP3    H259231   3.564   6.285   3.323  3.5944  0.1034  0.9853
12606TIP3   OH259232   4.238   2.093  14.070 -0.4736  0.0443  0.0228
12606TIP3    H159233   4.229   2.111  14.164 -0.9753 -1.8131  0.3671
12606TIP3    H259234   4.309   2.030  14.064 -1.6398 -1.2694 -0.6198
12607TIP3   OH259235   1.452   5.592   3.135 -0.0384 -0.4100  0.3408
12607TIP3    H159236   1.448   5.635   3.049  1.3104 -0.6590  0.1223
12607TIP3    H259237   1.374   5.538   3.139  1.0729 -2.3656 -1.8335
12608TIP3   OH259238   2.317   3.656   5.554  0.0783 -0.0888 -0.4702
12608TIP3    H159239   2.230   3.670   5.590  0.5713  1.9008  0.0810
12608TIP3    H259240   2.328   3.725   5.490  1.4268 -0.0024 -0.1776
12609TIP3   OH259241   0.977   6.687  16.475 -0.2554 -0.7572  0.3338
12609TIP3    H159242   1.061   6.663  16.514 -0.0257 -0.6696 -0.0997
12609TIP3    H259243   0.946   6.760  16.528  0.7105  0.2835 -0.4598
12610TIP3   OH259244   5.874   0.585  15.209  0.2188 -0.0614 -0.0251
12610TIP3    H159245   5.872   0.558  15.117  3.1339 -0.9041  0.0867
12610TIP3    H259246   5.843   0.676  15.207 -0.8140 -0.3967 -1.6468
12611TIP3   OH259247   1.529   2.813  11.887  0.7080 -0.2006  0.1756
12611TIP3    H159248   1.587   2.863  11.830  1.2453 -0.1810  0.7198
12611TIP3    H259249   1.552   2.721  11.870 -0.0219 -0.2519 -0.5580
12612TIP3   OH259250   0.767   0.094  12.235  0.1806  0.3884 -0.0775
12612TIP3    H159251   0.760   0.098  12.331 -2.9095  0.3816 -0.1889
12612TIP3    H259252   0.774   0.001  12.215 -1.9668  0.1158  0.1421
12613TIP3   OH259253   2.742   2.590  10.883 -0.2211 -0.5409 -0.4224
12613TIP3    H159254   2.702   2.628  10.804 -0.7173 -1.7536 -0.7734
12613TIP3    H259255   2.835   2.586  10.862 -0.1911  0.2667 -0.4683
12614TIP3   OH259256   6.307   1.893  16.668 -0.2710 -0.2035 -0.1692
12614TIP3    H159257   6.338   1.839  16.740  0.4164 -0.3879 -0.5986
12614TIP3    H259258   6.308   1.982  16.703  0.8175 -0.1949 -0.1824
12615TIP3   OH259259   3.709   2.108   2.386  0.0099  0.3870  0.0482
12615TIP3    H159260   3.621   2.139   2.405 -0.2072 -1.4264  2.5230
12615TIP3    H259261   3.752   2.105   2.471  1.8108 -0.6577 -0.8313
12616TIP3   OH259262   2.146   1.676  16.829  0.1459  0.1801 -0.1881
12616TIP3    H159263   2.169   1.711  16.915  0.0857 -0.8387  0.2563
12616TIP3    H259264   2.229   1.651  16.789  0.1516  0.3931 -0.3081
12617TIP3   OH259265   4.035   5.882   5.790 -0.2646 -0.4046  0.0091
12617TIP3    H159266   3.985   5.943   5.845  0.3682  1.2474 -1.1658
12617TIP3    H259267   4.093   5.837   5.852  1.0821  2.0529  0.6733
12618TIP3   OH259268   3.301   0.097  14.076 -0.4912  0.5914 -0.2018
12618TIP3    H159269   3.256   0.086  13.993 -1.3465  2.0915  0.0378
12618TIP3    H259270   3.232   0.122  14.138 -0.3187 -2.7075  1.5579
12619TIP3   OH259271   6.128   2.697   4.345 -0.1700 -0.3338  1.0455
12619TIP3    H159272   6.055   2.661   4.396 -0.2531 -1.5413  0.1212
12619TIP3    H259273   6.205   2.652   4.378 -0.1760 -0.8507  0.3712
12620TIP3   OH259274   5.409   1.825  13.839  0.2918  0.5656 -0.6669
12620TIP3    H159275   5.376   1.913  13.819 -1.6575 -0.1391 -0.6666
12620TIP3    H259276   5.389   1.813  13.932 -0.7490 -0.4159 -1.0069
12621TIP3   OH259277   5.757   1.205  13.829 -0.2027  0.4297 -0.3245
12621TIP3    H159278   5.779   1.127  13.779 -0.7405 -0.5227  0.8542
12621TIP3    H259279   5.826   1.211  13.896  0.3664  1.5294 -0.9859
12622TIP3   OH259280   5.946   1.121   0.116 -0.1019  0.1242  0.3004
12622TIP3    H159281   5.942   1.196   0.057 -0.3608  1.0498  1.4697
12622TIP3    H259282   5.880   1.140   0.184  0.7486 -0.5177  1.3314
12623TIP3   OH259283   0.196   5.987   3.505  0.4524 -0.4853  0.0092
12623TIP3    H159284   0.257   5.932   3.456  0.7750  0.0089 -0.1554
12623TIP3    H259285   0.216   5.968   3.597  0.3668 -0.8469 -0.0431
12624TIP3   OH259286   3.864   6.373  11.874 -0.1329 -0.5638  0.7458
12624TIP3    H159287   3.822   6.370  11.788 -1.2015 -1.4032  1.2668
12624TIP3    H259288   3.849   6.462  11.905  0.9601 -0.0061 -0.2498
12625TIP3   OH259289   0.640   2.139   0.455 -0.1652 -0.1508  0.1036
12625TIP3    H159290   0.665   2.228   0.481 -0.6834  0.1706 -0.4597
12625TIP3    H259291   0.721   2.088   0.463 -0.1963  0.0275  1.8336
12626TIP3   OH259292   5.970   0.404  16.439 -0.0516 -0.6834 -0.6702
12626TIP3    H159293   5.958   0.335  16.505 -0.2444 -0.8899 -0.9198
12626TIP3    H259294   5.951   0.485  16.486 -0.5355 -0.8536 -0.5615
12627TIP3   OH259295   1.676   3.865   5.548  0.1783 -0.3012  0.1332
12627TIP3    H159296   1.646   3.775   5.544  4.2657 -2.0283  2.3692
12627TIP3    H259297   1.734   3.875   5.473 -0.5223  0.6772 -0.3119
12628TIP3   OH259298   1.984   1.213  16.792 -0.7265 -0.0850  0.0866
12628TIP3    H159299   2.074   1.245  16.781 -0.3737 -0.5310  1.4085
12628TIP3    H259300   1.945   1.274  16.855 -1.2772 -0.0310 -0.3052
12629TIP3   OH259301   3.271   1.654  12.665 -0.2234 -0.5665 -0.3289
12629TIP3    H159302   3.296   1.667  12.756 -0.0815 -2.1353 -0.1156
12629TIP3    H259303   3.347   1.680  12.614 -0.3662  0.4830 -0.0192
12630TIP3   OH259304   6.490   5.957   1.957 -0.3274  0.1354  0.4274
12630TIP3    H159305   6.470   5.863   1.947  1.1547 -0.2054  0.5031
12630TIP3    H259306   6.502   5.987   1.867 -0.0145  0.0750  0.4499
12631TIP3   OH259307   6.167   6.656  13.897 -0.1440 -0.3553  0.2054
12631TIP3    H159308   6.101   6.645  13.965 -2.0959  0.0974 -1.5127
12631TIP3    H259309   6.174   6.570  13.856 -3.0140  0.4518 -2.3908
12632TIP3   OH259310   4.551   1.890   2.540  0.3597 -0.0735 -0.3502
12632TIP3    H159311   4.563   1.976   2.498 -1.1532 -0.6816 -2.1693
12632TIP3    H259312   4.621   1.836   2.505  2.3826  0.7587  2.0952
12633TIP3   OH259313   5.318   0.193   3.125  0.1716  0.0158  0.0630
12633TIP3    H159314   5.353   0.180   3.213 -2.6602 -1.3703  1.1238
12633TIP3    H259315   5.309   0.104   3.090 -1.4843  0.3426 -0.4108
12634TIP3   OH259316   6.094   2.905  11.088 -0.0277 -0.7871  0.0410
12634TIP3    H159317   6.171   2.862  11.051 -0.0699 -2.6090  1.8330
12634TIP3    H259318   6.033   2.912  11.015  1.8025  0.7874 -1.4497
12635TIP3   OH259319   5.303   6.170  13.110 -0.3639  0.8883 -0.4901
12635TIP3    H159320   5.344   6.198  13.192 -2.6909 -1.8193  1.8007
12635TIP3    H259321   5.353   6.094  13.082 -2.2592 -1.1031  1.1531
12636TIP3   OH259322   2.713   4.912  10.903 -0.0869 -1.0986  0.0469
12636TIP3    H159323   2.748   4.954  10.981 -0.6259 -0.8886  0.1802
12636TIP3    H259324   2.716   4.818  10.923  0.2168 -1.0693  0.1327
12637TIP3   OH259325   3.039   0.629   0.199  0.9054  0.1346 -0.5964
12637TIP3    H159326   3.046   0.565   0.128 -1.3440 -2.5240  1.3771
12637TIP3    H259327   2.950   0.665   0.190  0.5771 -0.2646  0.8193
12638TIP3   OH259328   1.240   2.753  14.712  0.1783  0.5877  0.3356
12638TIP3    H159329   1.307   2.813  14.745 -0.8712  2.0353 -0.0930
12638TIP3    H259330   1.280   2.666  14.720  1.2883  1.2129  2.0713
12639TIP3   OH259331   1.834   3.238  11.885 -0.1904  0.1258  0.3781
12639TIP3    H159332   1.749   3.210  11.854 -1.6044  1.3846  2.7821
12639TIP3    H259333   1.869   3.292  11.814 -2.2595  1.0972  0.0119
12640TIP3   OH259334   0.492   0.973   5.018 -0.2803  0.1979 -0.2746
12640TIP3    H159335   0.488   0.877   5.010 -2.2811  0.2301 -0.1835
12640TIP3    H259336   0.422   0.994   5.080 -1.2792  1.8797 -1.8916
12641TIP3   OH259337   5.761   6.521  15.013 -0.3135 -0.0696  0.1195
12641TIP3    H159338   5.706   6.599  15.018  2.6403  2.0828  3.6964
12641TIP3    H259339   5.850   6.554  15.012  1.0856 -3.4345 -0.0718
12642TIP3   OH259340   3.533   4.674   1.811  0.7889 -0.0349  0.1772
12642TIP3    H159341   3.474   4.599   1.807 -0.9732  1.2433  0.8889
12642TIP3    H259342   3.590   4.665   1.735 -1.2065 -0.6190 -1.2966
12643TIP3   OH259343   4.439   6.419  14.230 -0.0703 -0.2872 -0.1297
12643TIP3    H159344   4.396   6.397  14.147 -1.2900  1.7727 -0.1090
12643TIP3    H259345   4.403   6.505  14.253  3.1086  0.9706  0.5801
12644TIP3   OH259346   6.314   3.407   3.698 -0.3075 -0.7324 -0.5579
12644TIP3    H159347   6.322   3.312   3.702 -0.8044 -0.7894 -0.7903
12644TIP3    H259348   6.376   3.439   3.763  1.2265 -1.1405 -1.7658
12645TIP3   OH259349   6.023   0.117  13.544 -0.2191 -0.2220 -0.1087
12645TIP3    H159350   5.955   0.087  13.484 -0.4748 -2.0708  1.0172
12645TIP3    H259351   6.100   0.130  13.489 -0.2867 -2.4134 -0.8202
12646TIP3   OH259352   0.277   1.811   2.704 -0.1178 -0.5016  0.2343
12646TIP3    H159353   0.307   1.883   2.760  2.7827 -1.0461 -0.4492
12646TIP3    H259354   0.316   1.733   2.743 -0.0737 -1.2080 -1.1576
12647TIP3   OH259355   5.099   1.509   2.568  0.0214 -0.2123 -0.4392
12647TIP3    H159356   5.127   1.600   2.558 -0.3853  0.0547  0.7989
12647TIP3    H259357   5.039   1.494   2.495 -0.9105  0.9055  0.0773
12648TIP3   OH259358   1.950   3.744   3.921 -0.0347  0.2109 -0.2465
12648TIP3    H159359   2.013   3.742   3.850 -0.0492 -0.1286 -0.2490
12648TIP3    H259360   1.991   3.692   3.991 -0.7998 -0.9683 -0.6549
12649TIP3   OH259361   5.253   4.049   3.407  0.3242 -0.0537  0.2743
12649TIP3    H159362   5.228   4.129   3.454 -0.1833  0.2352 -0.4771
12649TIP3    H259363   5.347   4.041   3.421  0.3422  0.5664  0.5183
12650TIP3   OH259364   3.727   3.195   0.836  1.0859  0.3759  0.5060
12650TIP3    H159365   3.793   3.153   0.780  1.8044  2.0958 -0.0327
12650TIP3    H259366   3.775   3.221   0.915  0.7795  0.5820  0.6271
12651TIP3   OH259367   6.067   5.952   4.067 -0.4029  0.1004 -0.2134
12651TIP3    H159368   5.978   5.959   4.102 -0.2886  1.4224 -0.1425
12651TIP3    H259369   6.123   5.965   4.143 -0.1356 -0.9477 -0.2211
12652TIP3   OH259370   6.697   5.786  12.696 -0.1357 -0.0422 -0.9265
12652TIP3    H159371   6.647   5.800  12.777  0.2313  0.5581 -0.7955
12652TIP3    H259372   6.788   5.801  12.722 -0.0935  1.0754 -1.6424
12653TIP3   OH259373   0.177   4.599  16.108 -0.4011  0.6245 -0.1663
12653TIP3    H159374   0.219   4.544  16.042  2.4662 -0.2683  2.1485
12653TIP3    H259375   0.093   4.557  16.124  0.0614 -0.8034 -1.2475
12654TIP3   OH259376   4.133   2.970   0.359  0.2190 -0.4032 -0.3441
12654TIP3    H159377   4.041   2.945   0.367  0.2449 -0.1933  0.8678
12654TIP3    H259378   4.139   3.018   0.277 -0.7765 -0.3277 -0.3764
12655TIP3   OH259379   5.656   4.758   5.232  0.7094  0.3098 -0.3976
12655TIP3    H159380   5.583   4.698   5.217 -1.3375  2.1699  1.2872
12655TIP3    H259381   5.672   4.754   5.326 -0.1129  2.8795 -0.0470
12656TIP3   OH259382   4.282   3.557   1.216 -0.1623 -0.2262  0.2141
12656TIP3    H159383   4.226   3.502   1.161 -0.7592  0.2206  0.3623
12656TIP3    H259384   4.232   3.638   1.226  0.8698  0.4887 -0.3130
12657TIP3   OH259385   5.644   3.002   6.625 -0.1070 -0.3238 -0.1760
12657TIP3    H159386   5.635   2.916   6.583  0.8775 -1.1651  1.2302
12657TIP3    H259387   5.692   2.983   6.706 -1.8880  1.2181  1.3075
12658TIP3   OH259388   0.109   3.154   3.864  0.5766 -0.0744  0.0274
12658TIP3    H159389   0.016   3.151   3.886  0.3294 -0.1698 -0.9623
12658TIP3    H259390   0.117   3.099   3.786  1.2496  0.8610 -0.5889
12659TIP3   OH259391   3.197   0.047  13.815  0.2129 -0.5664  0.2862
12659TIP3    H159392   3.218   0.033  13.722  0.8629  1.8608  0.0066
12659TIP3    H259393   3.106   0.076  13.815  0.6055  0.7291  0.2301
12660TIP3   OH259394   2.534   5.123  11.789 -0.2329 -0.1231  0.2507
12660TIP3    H159395   2.485   5.116  11.871 -1.8885  1.1437 -0.5496
12660TIP3    H259396   2.621   5.154  11.815 -0.5487 -0.2810  1.5665
12661TIP3   OH259397   1.526   2.806   6.370  0.5243 -0.1456  0.0906
12661TIP3    H159398   1.562   2.788   6.457 -1.1065  0.9541  1.0345
12661TIP3    H259399   1.499   2.898   6.374  0.1667 -0.1581 -1.4993
12662TIP3   OH259400   3.931   3.722   6.053 -0.8276 -0.2527  0.2967
12662TIP3    H159401   4.000   3.763   6.106 -0.3999 -1.4962  0.7380
12662TIP3    H259402   3.904   3.646   6.105 -1.2408 -0.8177 -0.7355
12663TIP3   OH259403   4.586   2.116  16.431 -1.0849 -0.3881  0.5274
12663TIP3    H159404   4.625   2.153  16.510 -0.1252 -0.6025  0.1619
12663TIP3    H259405   4.585   2.187  16.368 -0.5725 -0.5817  0.2932
12664TIP3   OH259406   3.900   0.049   3.984 -0.1559 -0.8728 -0.1628
12664TIP3    H159407   3.958   0.010   3.919  1.4033 -0.3414  0.8451
12664TIP3    H259408   3.825   0.079   3.934  0.3388 -1.7659 -1.4986
12665TIP3   OH259409   2.179   1.623   3.943 -0.2866 -0.3335  0.0732
12665TIP3    H159410   2.205   1.549   3.888 -1.9442 -1.1968  0.3897
12665TIP3    H259411   2.135   1.584   4.018 -1.1655  0.9626  0.2806
12666TIP3   OH259412   1.694   3.822  15.404  0.1867 -0.2705 -0.3387
12666TIP3    H159413   1.674   3.784  15.490 -0.0673 -0.0892 -0.3163
12666TIP3    H259414   1.612   3.814  15.355 -0.3416  1.5366  0.1419
12667TIP3   OH259415   3.504   1.411  15.331 -0.1516 -0.1762 -0.4401
12667TIP3    H159416   3.590   1.373  15.350  0.5139  0.9680 -0.9983
12667TIP3    H259417   3.515   1.505  15.349 -1.3187 -0.0282 -0.4207
12668TIP3   OH259418   5.089   0.859  10.954  0.6303 -0.3039  0.6188
12668TIP3    H159419   5.002   0.893  10.935  0.0155 -1.5432  1.0993
12668TIP3    H259420   5.092   0.774  10.910  2.0134  0.1801 -0.3178
12669TIP3   OH259421   4.777   2.642   0.009 -0.7734  0.6332 -0.1393
12669TIP3    H159422   4.865   2.648   0.046 -1.1055 -0.0372  0.7966
12669TIP3    H259423   4.743   2.558   0.040 -0.7330 -0.4733 -2.7799
12670TIP3   OH259424   6.784   0.917   2.065 -0.0700 -0.2365 -0.2247
12670TIP3    H159425   6.727   0.959   2.129  0.4830  0.1572  0.0186
12670TIP3    H259426   6.815   0.988   2.009  1.2734 -0.2292  0.5028
12671TIP3   OH259427   4.041   3.015   2.268 -0.1313 -0.1897 -0.4683
12671TIP3    H159428   4.095   3.088   2.297 -2.3660  1.7738 -0.9435
12671TIP3    H259429   3.987   2.993   2.345 -0.6741 -0.1770 -0.8403
12672TIP3   OH259430   0.904   2.915   6.113 -0.2531  0.0190 -0.2807
12672TIP3    H159431   0.997   2.928   6.093 -0.3885  2.3898  0.3505
12672TIP3    H259432   0.904   2.852   6.186  0.8192 -0.2631 -0.4984
12673TIP3   OH259433   3.816   5.815  16.350  0.3913 -0.3447  0.6546
12673TIP3    H159434   3.893   5.862  16.317  1.4752 -1.7880  0.9990
12673TIP3    H259435   3.759   5.806  16.274  0.8542  0.2053  0.2347
12674TIP3   OH259436   4.771   2.234  13.025  0.2042  0.0906 -0.1180
12674TIP3    H159437   4.722   2.301  13.071  1.6431  0.7029  0.5779
12674TIP3    H259438   4.857   2.233  13.067  0.9686 -0.6012 -1.6023
12675TIP3   OH259439   5.429   3.220   2.491 -0.4858 -0.0522  0.5317
12675TIP3    H159440   5.392   3.200   2.405 -0.4854  0.9406  0.2890
12675TIP3    H259441   5.374   3.173   2.553 -2.2164  1.4161  0.1799
12676TIP3   OH259442   3.709   1.333  11.311  0.7603 -0.4679  0.1326
12676TIP3    H159443   3.652   1.365  11.242  0.4871 -1.6061 -0.1779
12676TIP3    H259444   3.773   1.403  11.323  0.6926 -0.1676 -1.1301
12677TIP3   OH259445   5.985   4.078  12.814 -0.6026 -0.3533 -0.2463
12677TIP3    H159446   5.895   4.045  12.804 -1.0458 -0.0962  2.2839
12677TIP3    H259447   5.987   4.157  12.760 -2.8268  1.1879  1.7330
12678TIP3   OH259448   2.366   0.858   1.600 -0.3092  0.0862  0.5695
12678TIP3    H159449   2.345   0.772   1.564 -0.0555 -0.0474  0.7379
12678TIP3    H259450   2.330   0.856   1.689 -0.9612  0.4259  0.3191
12679TIP3   OH259451   3.031   1.307  12.216  0.5412  0.1505 -0.6812
12679TIP3    H159452   3.064   1.265  12.136  4.2432  0.2264  0.5900
12679TIP3    H259453   3.091   1.380  12.230 -0.5052  0.6218  1.7555
12680TIP3   OH259454   1.730   5.963   4.297  0.1627 -0.0700  0.1165
12680TIP3    H159455   1.734   6.030   4.229  1.6307 -0.6366 -0.4073
12680TIP3    H259456   1.666   5.899   4.265 -0.8490  0.7960  0.3723
12681TIP3   OH259457   4.308   0.063   5.404 -0.0958  0.5264  0.7072
12681TIP3    H159458   4.311  -0.010   5.342 -1.0115  1.0620 -0.0095
12681TIP3    H259459   4.289   0.022   5.488 -2.2458  0.0174  0.0525
12682TIP3   OH259460   4.320   1.843   1.987  0.3681 -0.1037  0.0814
12682TIP3    H159461   4.310   1.930   1.947 -3.1584 -0.0076  0.8985
12682TIP3    H259462   4.236   1.826   2.030  0.9883 -3.8686  0.1320
12683TIP3   OH259463   1.065   6.540  14.869 -0.3579 -0.6203  0.2879
12683TIP3    H159464   1.093   6.508  14.783 -0.4418  1.7417 -0.6949
12683TIP3    H259465   1.118   6.619  14.883 -1.4329 -0.1121  1.7003
12684TIP3   OH259466   3.610   1.083   4.371  0.6140 -0.5068 -0.2822
12684TIP3    H159467   3.620   0.993   4.401  1.0120 -0.9980 -1.7809
12684TIP3    H259468   3.698   1.120   4.377  0.6482 -0.5346 -0.5816
12685TIP3   OH259469   5.974   6.087   3.092 -0.4096  0.1541  0.1643
12685TIP3    H159470   6.028   6.157   3.057 -0.8987  0.9563  0.9743
12685TIP3    H259471   6.004   6.076   3.182  1.2386 -2.2772 -0.5821
12686TIP3   OH259472   0.192   5.471   0.766 -0.0623 -0.3985  0.3173
12686TIP3    H159473   0.225   5.483   0.855  0.3714  1.2806 -0.0310
12686TIP3    H259474   0.218   5.551   0.720 -1.2656 -0.7354 -1.0190
12687TIP3   OH259475   2.352   3.997  10.994 -0.6864  0.1808  0.1849
12687TIP3    H159476   2.429   3.959  10.952 -0.0812  1.1951  0.3282
12687TIP3    H259477   2.295   4.022  10.920  0.0851  1.3590 -0.0532
12688TIP3   OH259478   5.683   0.461   5.067 -0.2716  0.0680 -0.0987
12688TIP3    H159479   5.686   0.557   5.066 -0.3191  0.0764  0.4128
12688TIP3    H259480   5.773   0.434   5.048 -0.6451  0.1889 -2.2713
12689TIP3   OH259481   1.451   5.215   0.753 -0.2659 -0.3163  0.0679
12689TIP3    H159482   1.522   5.177   0.806  0.1475 -0.7135 -0.7546
12689TIP3    H259483   1.372   5.196   0.803  0.2692  1.1379  1.5925
12690TIP3   OH259484   1.602   3.139   3.488  0.6829  0.0836 -0.0478
12690TIP3    H159485   1.568   3.162   3.574  1.2951  0.6405  0.0544
12690TIP3    H259486   1.639   3.052   3.499  0.1621 -0.1270  0.0783
12691TIP3   OH259487   4.278   3.144   2.352 -0.2689  0.1511  0.4368
12691TIP3    H159488   4.283   3.075   2.419 -0.6010 -1.3165 -0.9958
12691TIP3    H259489   4.328   3.109   2.278  2.2269  2.7547  0.6979
12692TIP3   OH259490   1.639   5.340  16.415 -0.1327  0.1688  1.1407
12692TIP3    H159491   1.700   5.281  16.370 -1.4091  0.2995 -0.8772
12692TIP3    H259492   1.577   5.282  16.459 -2.3569 -0.2319 -2.1431
12693TIP3   OH259493   5.055   1.264  14.673  0.3318 -0.5718  0.5348
12693TIP3    H159494   4.999   1.188  14.657 -1.9679  1.3762 -1.7542
12693TIP3    H259495   5.108   1.271  14.594 -0.7860  1.1051 -0.1343
12694TIP3   OH259496   1.076   2.818  10.718 -0.5884  0.3814 -0.2874
12694TIP3    H159497   1.025   2.878  10.664 -0.5385 -0.6378 -1.5037
12694TIP3    H259498   1.136   2.875  10.767 -1.2294  1.3934 -0.6570
12695TIP3   OH259499   3.770   4.999  14.680  0.6820  0.4687  0.4746
12695TIP3    H159500   3.682   4.974  14.653  1.0380  1.9826 -2.5833
12695TIP3    H259501   3.823   4.920  14.663  0.3760  0.4808 -0.6466
12696TIP3   OH259502   6.659   2.295  16.501  0.0895 -0.0288  0.1413
12696TIP3    H159503   6.644   2.332  16.414 -1.0720 -0.1449  0.2838
12696TIP3    H259504   6.741   2.245  16.492  1.8746  2.7139  0.0136
12697TIP3   OH259505   3.760   2.680   5.708  0.4008  0.0627 -0.0795
12697TIP3    H159506   3.748   2.763   5.755 -0.5639 -0.2597  0.2816
12697TIP3    H259507   3.718   2.615   5.765  3.6513 -1.1814  1.0982
12698TIP3   OH259508   0.823   6.206  10.733  0.5035 -0.0218 -0.4640
12698TIP3    H159509   0.901   6.248  10.698 -0.2200  0.4438 -1.5637
12698TIP3    H259510   0.827   6.116  10.700  1.6360 -0.6555  1.2333
12699TIP3   OH259511   3.611   5.760  15.771  0.0674 -0.2625  0.3489
12699TIP3    H159512   3.692   5.739  15.724 -0.2860 -0.2859 -0.2610
12699TIP3    H259513   3.637   5.763  15.863  0.6643 -0.7441  0.2037
12700TIP3   OH259514   0.977   6.156  14.565  0.1775 -0.1365  0.0219
12700TIP3    H159515   0.949   6.192  14.481  1.2558  0.9045  0.0914
12700TIP3    H259516   0.896   6.155  14.618 -0.4084 -0.3506 -0.8576
12701TIP3   OH259517   5.911   5.649  14.081  0.0018 -0.5810 -0.0736
12701TIP3    H159518   5.815   5.657  14.076  0.0027  0.6200  1.1750
12701TIP3    H259519   5.943   5.738  14.069  0.8515 -0.6831  1.2410
12702TIP3   OH259520   0.637   2.726   0.464 -0.5323 -0.1733  0.1601
12702TIP3    H159521   0.555   2.684   0.438 -0.4525  0.2791 -0.8787
12702TIP3    H259522   0.687   2.731   0.383  1.1844 -1.8566  1.0428
12703TIP3   OH259523   1.490   6.253   0.883  0.3877  0.1023 -0.0047
12703TIP3    H159524   1.477   6.163   0.856  0.1197  0.5660 -1.5022
12703TIP3    H259525   1.504   6.248   0.978  0.4524 -1.5005 -0.0752
12704TIP3   OH259526   6.009   3.400  12.107 -0.1632 -0.1187  0.4906
12704TIP3    H159527   6.048   3.487  12.100  0.0486 -0.0524  2.1310
12704TIP3    H259528   6.079   3.345  12.143 -0.4407 -0.8757 -0.0844
12705TIP3   OH259529   5.075   2.435  13.610  0.3625 -0.5643 -0.1028
12705TIP3    H159530   5.088   2.478  13.526 -0.7515 -1.1323 -0.5856
12705TIP3    H259531   4.980   2.435  13.623  0.4453 -1.4452  0.6341
12706TIP3   OH259532   0.662   2.725  16.338 -0.2631 -0.1086 -0.2172
12706TIP3    H159533   0.654   2.815  16.307 -0.3009  0.3812  1.1564
12706TIP3    H259534   0.736   2.689  16.289 -1.1913  0.1657 -1.8968
12707TIP3   OH259535   5.058   6.346  16.684  0.2320  0.1045 -0.1552
12707TIP3    H159536   5.129   6.388  16.733 -0.6569  1.2669  0.1770
12707TIP3    H259537   5.034   6.270  16.736  1.6012 -0.6268 -0.5554
12708TIP3   OH259538   5.905   0.480   2.609  0.3369  0.1475 -0.1893
12708TIP3    H159539   5.830   0.503   2.663  0.3783  1.4473 -0.6590
12708TIP3    H259540   5.981   0.514   2.656  0.4958  0.1371 -0.4325
12709TIP3   OH259541   6.765   6.419  16.996 -0.0038  0.3848  0.2145
12709TIP3    H159542   6.837   6.462  16.949  1.6015 -0.3547  1.8845
12709TIP3    H259543   6.728   6.489  17.050 -0.6803  0.7960 -0.7368
12710TIP3   OH259544   4.046   3.359   1.094 -0.3404 -0.2029 -0.0006
12710TIP3    H159545   3.951   3.346   1.093 -0.2226 -1.1656 -0.2797
12710TIP3    H259546   4.072   3.355   1.002  0.2104 -2.1125  0.1950
12711TIP3   OH259547   2.689   1.397   0.307 -0.4258  0.2010 -0.1140
12711TIP3    H159548   2.733   1.319   0.274 -1.1450  0.0051 -0.6374
12711TIP3    H259549   2.646   1.435   0.230 -1.6919  0.0357  0.4903
12712TIP3   OH259550   5.191   2.319   5.271  0.3690  0.1589 -0.2197
12712TIP3    H159551   5.268   2.334   5.327 -0.0609 -0.0875  0.4478
12712TIP3    H259552   5.117   2.318   5.331 -0.1833  0.5603 -0.8836
12713TIP3   OH259553   5.380   1.215   0.830  0.1694 -0.0192  0.3056
12713TIP3    H159554   5.421   1.169   0.904 -0.6426  1.9170  2.0452
12713TIP3    H259555   5.451   1.268   0.793  0.7707 -1.5464 -0.8821
12714TIP3   OH259556   4.781   0.840   5.794  0.0249  0.1115  0.7951
12714TIP3    H159557   4.695   0.861   5.758  0.4737  0.8335  0.1108
12714TIP3    H259558   4.843   0.886   5.736  0.9597 -1.6385  0.3383
12715TIP3   OH259559   3.415   2.313  14.591  0.2901 -0.4628  0.2974
12715TIP3    H159560   3.454   2.269  14.515  0.6206  0.5351 -0.1307
12715TIP3    H259561   3.349   2.252  14.623  0.4840 -1.1105 -0.4983
12716TIP3   OH259562   6.551   2.353  13.919 -0.2887  0.5951 -0.0301
12716TIP3    H159563   6.636   2.381  13.886 -0.2206  0.7579  0.2934
12716TIP3    H259564   6.524   2.420  13.981 -0.1635  0.0046  0.6824
12717TIP3   OH259565   3.027   0.679   6.010  0.4642  0.4500  0.2167
12717TIP3    H159566   3.088   0.605   6.002 -0.1664 -0.1613  0.8492
12717TIP3    H259567   2.964   0.650   6.077 -1.1426  0.6156 -1.1593
12718TIP3   OH259568   0.164   2.396  13.103  0.5656 -0.6181  0.1298
12718TIP3    H159569   0.075   2.427  13.091  1.0555  0.2431 -1.5982
12718TIP3    H259570   0.218   2.457  13.053  2.0366 -1.6339  0.3996
12719TIP3   OH259571   2.473   0.879  10.459  0.0210  0.4269 -0.2635
12719TIP3    H159572   2.421   0.870  10.379  1.2006  0.2635 -1.0337
12719TIP3    H259573   2.493   0.788  10.484 -0.2386  0.4825  0.1498
12720TIP3   OH259574   4.285   5.508  12.254  0.5819  0.5929 -0.1286
12720TIP3    H159575   4.235   5.426  12.245  0.0962  0.8278  0.4051
12720TIP3    H259576   4.222   5.571  12.287  1.2764  0.8565  0.7241
12721TIP3   OH259577   1.590   5.306  12.394  0.9365  0.7572 -0.1417
12721TIP3    H159578   1.539   5.377  12.432  1.5997  1.4661 -0.5318
12721TIP3    H259579   1.681   5.338  12.398  1.2304 -0.0289 -0.4124
12722TIP3   OH259580   0.726   5.091  17.157  0.8441  0.2779  0.0017
12722TIP3    H159581   0.695   5.163  17.213 -0.2701 -0.2859  0.1511
12722TIP3    H259582   0.736   5.130  17.070  1.9579  1.0102  0.4374
12723TIP3   OH259583   2.201   0.540   5.695 -0.8802 -0.1873  0.5209
12723TIP3    H159584   2.119   0.509   5.734 -3.4506  1.7777 -2.8461
12723TIP3    H259585   2.206   0.632   5.721 -0.6143  0.1270 -0.6178
12724TIP3   OH259586   4.995   1.266   4.441  0.9046 -0.1225 -0.0052
12724TIP3    H159587   4.971   1.179   4.410 -1.2664  0.6383 -0.5872
12724TIP3    H259588   4.952   1.326   4.381  3.4005  1.4078 -0.3865
12725TIP3   OH259589   6.424   3.914  11.831  0.6390 -0.2852 -0.0498
12725TIP3    H159590   6.419   3.840  11.769 -1.0066 -0.6930  0.5160
12725TIP3    H259591   6.515   3.915  11.859  1.5150  0.0499 -2.6104
12726TIP3   OH259592   3.603   6.243  16.943  0.2626 -0.2831 -0.2233
12726TIP3    H159593   3.576   6.266  16.854 -1.4044 -0.1050  0.3048
12726TIP3    H259594   3.684   6.293  16.956  0.0491  0.3893 -1.3095
12727TIP3   OH259595   3.732   0.293  16.050  0.2653 -0.1965 -0.2186
12727TIP3    H159596   3.695   0.351  16.116  0.1958 -1.1121  0.5552
12727TIP3    H259597   3.714   0.337  15.967 -2.9918 -0.7854  0.0452
12728TIP3   OH259598   0.046   0.668   4.971  0.0301 -0.2962  0.6338
12728TIP3    H159599  -0.035   0.646   5.017  1.4366 -1.7410  2.6305
12728TIP3    H259600   0.115   0.646   5.034  1.9933  0.6167 -1.0860
12729TIP3   OH259601   1.559   1.284  15.065 -0.0490  0.0261 -0.1042
12729TIP3    H159602   1.560   1.376  15.093 -0.2585 -0.5238  1.8406
12729TIP3    H259603   1.558   1.288  14.969  0.6523  2.0370 -0.0624
12730TIP3   OH259604   1.873   4.199  13.457  0.0780 -0.5169  0.6457
12730TIP3    H159605   1.920   4.116  13.454  1.1855  0.0878 -2.0220
12730TIP3    H259606   1.935   4.260  13.497 -0.0188 -0.5716  0.8810
12731TIP3   OH259607   2.503   5.833   2.041 -0.0369  0.1195 -0.2006
12731TIP3    H159608   2.432   5.834   1.977  1.1003 -0.3064 -1.4897
12731TIP3    H259609   2.572   5.885   2.001  0.4057  0.5271  1.0431
12732TIP3   OH259610   3.229   1.237  13.568 -0.3877 -0.2628  0.3443
12732TIP3    H159611   3.198   1.318  13.609 -0.6153 -0.6504  0.9487
12732TIP3    H259612   3.245   1.261  13.476  0.5007  0.7152  0.7314
12733TIP3   OH259613   6.691   0.581  11.087 -0.7337 -0.2020  0.7198
12733TIP3    H159614   6.764   0.609  11.031 -0.4436 -0.7078  0.8350
12733TIP3    H259615   6.631   0.535  11.027 -0.4125 -0.7627  0.8203
12734TIP3   OH259616   3.927   6.125  14.822 -0.0287 -0.5449 -0.3298
12734TIP3    H159617   3.931   6.205  14.771 -0.1758  0.0104  0.5048
12734TIP3    H259618   3.843   6.129  14.867 -0.0828 -1.2180 -0.3616
12735TIP3   OH259619   1.869   4.075  16.428  0.4118 -0.0676 -0.1123
12735TIP3    H159620   1.930   4.026  16.483 -0.0719  0.5099  0.9670
12735TIP3    H259621   1.826   4.008  16.375  0.6350 -0.6830  0.4645
12736TIP3   OH259622   4.010   6.511   5.115 -0.3901  0.7477 -0.4033
12736TIP3    H159623   4.055   6.510   5.031 -1.0196  0.3870 -0.7451
12736TIP3    H259624   3.917   6.518   5.092 -0.5043  1.7963  0.2882
12737TIP3   OH259625   3.095   0.470  14.899  0.0345 -0.1753  0.4015
12737TIP3    H159626   3.016   0.442  14.946  0.6125 -1.6819  0.5375
12737TIP3    H259627   3.159   0.490  14.968  0.3814 -0.8436  0.2797
12738TIP3   OH259628   6.505   0.784   6.556 -0.1955  0.4175 -0.1294
12738TIP3    H159629   6.462   0.710   6.513  1.3826  0.0585 -1.2088
12738TIP3    H259630   6.486   0.772   6.649 -1.4333 -0.3520 -0.4608
12739TIP3   OH259631   4.867   2.394  12.039 -0.0702  0.4252  0.1091
12739TIP3    H159632   4.864   2.324  11.974  0.4329  0.5079 -0.0075
12739TIP3    H259633   4.776   2.419  12.053 -0.2456 -0.2051  0.0983
12740TIP3   OH259634   3.938   1.732   0.528 -0.2179 -0.9897  0.1501
12740TIP3    H159635   3.989   1.681   0.466  0.0219  0.9874 -1.3683
12740TIP3    H259636   3.962   1.823   0.511 -0.4326 -0.3053  2.8980
12741TIP3   OH259637   2.026   1.822  13.536  0.2232  0.4381 -0.4619
12741TIP3    H159638   2.043   1.853  13.447 -1.2948  0.4672 -0.7754
12741TIP3    H259639   1.936   1.851  13.554 -0.1241 -1.1048  0.4128
12742TIP3   OH259640   3.132   5.228   0.055  0.0958  0.3703 -0.4032
12742TIP3    H159641   3.152   5.198  -0.033 -0.6673 -0.0681 -0.4354
12742TIP3    H259642   3.125   5.323   0.047 -2.0067  0.1854 -1.2526
12743TIP3   OH259643   0.265   6.037   2.705 -0.1438 -0.7233  0.0102
12743TIP3    H159644   0.231   6.118   2.743 -0.3248 -1.6114  1.8763
12743TIP3    H259645   0.191   6.000   2.657 -0.4004 -0.3450  0.1108
12744TIP3   OH259646   4.612   0.633   6.325 -0.2556  0.1125 -0.1894
12744TIP3    H159647   4.555   0.656   6.252 -0.9067  2.3271  0.8938
12744TIP3    H259648   4.693   0.603   6.284 -0.8345  0.6383 -1.8101
12745TIP3   OH259649   3.662   5.768  16.090  0.1932 -0.3314 -0.7013
12745TIP3    H159650   3.729   5.833  16.067 -0.0622  0.1649 -0.0554
12745TIP3    H259651   3.582   5.801  16.049 -1.2723  2.7571  3.9311
12746TIP3   OH259652   6.298   5.905   1.222 -0.1513 -0.7115 -0.4381
12746TIP3    H159653   6.252   5.851   1.287  0.3881  2.7167  3.1501
12746TIP3    H259654   6.238   5.977   1.204  0.7736 -0.2362 -1.7608
12747TIP3   OH259655   5.811   1.282   2.971  0.9787 -0.1995 -0.5009
12747TIP3    H159656   5.864   1.324   3.039  0.8899  0.2235 -0.6893
12747TIP3    H259657   5.868   1.215   2.933  1.1433 -0.2064 -0.2437
12748TIP3   OH259658   2.396   0.841   6.546 -0.1998 -0.6006  0.2213
12748TIP3    H159659   2.304   0.866   6.557 -0.1970 -0.9005  1.0328
12748TIP3    H259660   2.435   0.914   6.498 -1.3966 -1.5875 -2.4412
12749TIP3   OH259661   4.066   2.637   0.422 -0.2744  0.1912 -0.2572
12749TIP3    H159662   4.061   2.617   0.328  0.2842 -2.3388  0.1881
12749TIP3    H259663   3.981   2.675   0.443 -0.7027  0.0511 -1.6309
12750TIP3   OH259664   4.667   5.125   5.249 -0.0340 -0.0336  0.4674
12750TIP3    H159665   4.750   5.084   5.271  0.7980  1.8105  1.0039
12750TIP3    H259666   4.670   5.211   5.292 -2.1011  0.2076  0.2728
12751TIP3   OH259667   3.964   2.217  15.781  0.2097 -0.6068  0.0867
12751TIP3    H159668   3.892   2.245  15.837  0.1062  0.2305 -0.4555
12751TIP3    H259669   4.031   2.284  15.792  1.5911 -2.1723  1.8055
12752TIP3   OH259670   0.972   2.823  15.188  0.1970  0.1524 -0.0237
12752TIP3    H159671   0.933   2.862  15.266 -0.7859 -0.9344  0.0591
12752TIP3    H259672   0.903   2.824  15.123  0.7688  0.3402 -0.6327
12753TIP3   OH259673   1.609   0.679   1.604 -0.9721  0.1113  0.0350
12753TIP3    H159674   1.523   0.721   1.615 -1.4938 -1.3414  1.9081
12753TIP3    H259675   1.588   0.590   1.575 -0.0760 -0.1310  0.1102
12754TIP3   OH259676   2.861   6.234  11.538 -0.0834  0.1312 -0.2761
12754TIP3    H159677   2.893   6.258  11.451  1.1765  1.5591  0.5467
12754TIP3    H259678   2.795   6.300  11.559  0.1063  0.1848  0.1459
12755TIP3   OH259679   6.244   1.492  15.306 -0.0817  0.4146  0.4325
12755TIP3    H159680   6.279   1.422  15.361 -1.1374 -1.2625 -0.9132
12755TIP3    H259681   6.214   1.559  15.367  0.5011 -0.5209  1.7892
12756TIP3   OH259682   6.123   1.499   5.897 -0.0694 -0.1345  0.6711
12756TIP3    H159683   6.062   1.432   5.866 -2.2877  1.2611  1.7147
12756TIP3    H259684   6.145   1.471   5.986 -0.9161  0.4260  1.0699
12757TIP3   OH259685   2.544   3.077   5.080  0.2361  0.4405 -0.2114
12757TIP3    H159686   2.538   3.042   5.168 -0.2063  1.4178  0.1618
12757TIP3    H259687   2.630   3.050   5.048  1.0968  1.4825  1.1427
12758TIP3   OH259688   0.521   6.659   2.175 -0.1431  0.2038  0.3837
12758TIP3    H159689   0.573   6.638   2.253 -1.0573 -0.7549  0.7724
12758TIP3    H259690   0.441   6.606   2.185 -0.5411  0.5182 -0.9149
12759TIP3   OH259691   5.652   2.470   1.696  0.4223 -0.2290  0.6208
12759TIP3    H159692   5.629   2.378   1.708 -0.7369  0.0903  0.9992
12759TIP3    H259693   5.636   2.509   1.782 -0.8801  0.6805 -0.0143
12760TIP3   OH259694   4.578   6.771   1.000 -0.4918 -0.5053 -0.0062
12760TIP3    H159695   4.573   6.820   0.918 -2.0006  0.4697  0.6300
12760TIP3    H259696   4.507   6.707   0.994  0.1662 -1.2585  0.0482
12761TIP3   OH259697   4.656   2.498  15.930 -0.5805  0.2513  0.1666
12761TIP3    H159698   4.620   2.502  15.841 -0.9965 -0.4562  0.2989
12761TIP3    H259699   4.579   2.500  15.987 -0.3177  0.6390  0.5172
12762TIP3   OH259700   0.342   3.843  10.690  0.1677  0.3317 -0.2210
12762TIP3    H159701   0.384   3.772  10.641 -0.6680 -1.0975  1.0354
12762TIP3    H259702   0.367   3.827  10.781 -1.2434  0.7659  0.2693
12763TIP3   OH259703   6.121   5.014  11.360 -0.1222 -0.2951 -0.2027
12763TIP3    H159704   6.168   4.944  11.406  0.6603  0.8750  0.8445
12763TIP3    H259705   6.144   5.002  11.268  1.2248 -0.5228  0.1377
12764TIP3   OH259706   4.074   4.778   0.430  0.1232 -0.0279  0.7512
12764TIP3    H159707   4.107   4.832   0.502 -0.3697 -0.3215  1.2126
12764TIP3    H259708   4.152   4.747   0.385  0.4844 -0.5289  1.6826
12765TIP3   OH259709   4.873   0.610  14.128  0.0634  0.5034  0.0410
12765TIP3    H159710   4.888   0.643  14.040 -2.6905 -0.9818 -1.1248
12765TIP3    H259711   4.782   0.579  14.126  0.5965 -1.5747  2.7474
12766TIP3   OH259712   3.843   1.215  16.336 -0.0017 -0.2294 -0.0565
12766TIP3    H159713   3.918   1.176  16.292 -0.7952 -0.9613 -0.8153
12766TIP3    H259714   3.852   1.186  16.427  1.3270  0.7992  0.1680
12767TIP3   OH259715   3.131   3.796  14.246  0.4994  0.0356  0.0952
12767TIP3    H159716   3.043   3.775  14.279 -0.0753 -0.3903 -1.6164
12767TIP3    H259717   3.124   3.886  14.217  0.3162 -0.3096 -0.9698
12768TIP3   OH259718   4.613   3.559  15.346 -0.1034  0.1440 -0.1634
12768TIP3    H159719   4.700   3.527  15.320  0.5362  0.4775  1.4220
12768TIP3    H259720   4.561   3.481  15.359 -0.8155 -0.0347 -3.4112
12769TIP3   OH259721   3.519   5.265   4.701 -0.1239 -0.3047  0.0857
12769TIP3    H159722   3.525   5.177   4.737 -1.4341 -1.0871 -1.5128
12769TIP3    H259723   3.556   5.259   4.613 -0.5787  0.6339 -0.1946
12770TIP3   OH259724   3.139   4.024  11.034  0.4067  0.0578  0.1295
12770TIP3    H159725   3.091   3.975  11.100 -1.0042 -0.0084 -0.8930
12770TIP3    H259726   3.161   4.107  11.076  1.8725 -0.9867  1.5179
12771TIP3   OH259727   5.253   3.247  15.676 -0.6050 -0.3792  0.3744
12771TIP3    H159728   5.322   3.210  15.621  0.5974 -0.7643  2.0891
12771TIP3    H259729   5.269   3.342  15.673 -1.5531 -0.2259 -1.1918
12772TIP3   OH259730   0.305   4.512   6.277  0.2490  0.4793  0.0224
12772TIP3    H159731   0.267   4.444   6.333 -0.1464 -0.0805 -0.9133
12772TIP3    H259732   0.229   4.553   6.235  0.6025  0.2336 -0.8611
12773TIP3   OH259733   3.055   6.428   3.002 -0.2181 -0.5219  0.2326
12773TIP3    H159734   3.086   6.518   2.992  0.6887 -0.8581 -0.1441
12773TIP3    H259735   3.085   6.401   3.088 -1.3280 -0.1610  0.7496
12774TIP3   OH259736   2.996   5.250   0.985 -0.1509  0.1721  0.1234
12774TIP3    H159737   3.070   5.275   0.929 -0.7104  0.0863 -0.6828
12774TIP3    H259738   3.009   5.157   1.003  0.1890  0.2689  0.3768
12775TIP3   OH259739   3.262   0.856   1.341  0.7181  0.2420 -0.1467
12775TIP3    H159740   3.316   0.927   1.306  0.0872  1.3001  0.9754
12775TIP3    H259741   3.283   0.854   1.434 -0.2526 -0.1685  0.0675
12776TIP3   OH259742   4.316   5.320  14.048  0.3498  0.2244  0.1271
12776TIP3    H159743   4.393   5.298  13.995 -0.0770  0.2369 -0.5197
12776TIP3    H259744   4.314   5.255  14.117  1.4762  0.7812  0.7224
12777TIP3   OH259745   3.568   2.374  13.645 -0.0448 -0.2186 -0.0755
12777TIP3    H159746   3.484   2.349  13.606  0.1738  1.4416 -1.7353
12777TIP3    H259747   3.632   2.314  13.606 -0.0433  0.4933 -1.2030
12778TIP3   OH259748   2.547   4.685  13.949  0.0248  0.5334 -0.7065
12778TIP3    H159749   2.534   4.648  14.036  1.4353  0.7881 -0.3606
12778TIP3    H259750   2.641   4.703  13.945  0.0343  0.2229 -2.4080
12779TIP3   OH259751   0.741   5.388   3.892  0.4409  0.0310  0.9715
12779TIP3    H159752   0.789   5.393   3.975  1.3966  0.1169  0.4343
12779TIP3    H259753   0.805   5.353   3.829 -0.0420  0.6309  0.1157
12780TIP3   OH259754   2.776   0.251   2.886 -0.2039 -1.1429  0.5694
12780TIP3    H159755   2.718   0.313   2.931  0.7044  0.6574 -0.6306
12780TIP3    H259756   2.721   0.212   2.818  0.1343  1.2869 -1.2174
12781TIP3   OH259757   1.622   1.134   3.225  0.0114 -0.3090 -0.2172
12781TIP3    H159758   1.640   1.101   3.313 -1.0861  1.6128  0.8039
12781TIP3    H259759   1.699   1.186   3.202 -0.5294  0.8325  0.4867
12782TIP3   OH259760   4.323   1.022  14.213  0.0195  0.6171 -0.0818
12782TIP3    H159761   4.305   1.010  14.306  0.7090 -0.6456 -0.0925
12782TIP3    H259762   4.251   0.978  14.168  0.9878 -0.9919 -0.1227
12783TIP3   OH259763   6.043   1.930  11.460  0.6993  0.2683 -0.1499
12783TIP3    H159764   6.088   1.854  11.498 -0.1407  0.0817  0.5090
12783TIP3    H259765   6.013   1.900  11.375 -0.5553 -0.5215  0.5335
12784TIP3   OH259766   5.373   4.115  14.731 -0.2594 -0.1908 -0.2871
12784TIP3    H159767   5.331   4.180  14.787 -0.0963 -1.0912  0.9002
12784TIP3    H259768   5.308   4.096  14.663 -0.4093  0.9984 -0.4966
12785TIP3   OH259769   6.734   3.933  12.505 -0.0674 -0.2812 -0.3595
12785TIP3    H159770   6.674   3.971  12.441 -0.8621  0.2046  0.6392
12785TIP3    H259771   6.785   3.869  12.456 -2.2365 -1.5818 -1.0205
12786TIP3   OH259772   6.504   5.430   3.521  0.2658  0.1165  0.3168
12786TIP3    H159773   6.532   5.338   3.521  2.3210  0.6857  1.1635
12786TIP3    H259774   6.444   5.436   3.447 -0.1164 -1.9564  0.3780
12787TIP3   OH259775   3.055   0.702   3.968  0.0342  0.3773  0.0697
12787TIP3    H159776   3.074   0.696   3.875 -0.3077 -0.3752  0.0347
12787TIP3    H259777   3.106   0.631   4.007 -0.5039  0.1246  0.3337
12788TIP3   OH259778   1.501   5.392   4.443  0.0944 -0.1634 -0.1773
12788TIP3    H159779   1.522   5.470   4.495 -1.1078  0.7490 -1.0078
12788TIP3    H259780   1.408   5.401   4.423  0.3615 -0.8137 -1.9090
12789TIP3   OH259781   2.018   3.238  13.799 -0.1008 -0.2779 -0.0365
12789TIP3    H159782   2.058   3.151  13.796 -0.4513 -0.4424  0.0529
12789TIP3    H259783   1.963   3.242  13.721 -2.5221 -1.3277  1.5037
12790TIP3   OH259784   2.403   5.752   0.041 -0.8595 -0.9830 -0.5364
12790TIP3    H159785   2.381   5.663   0.069 -1.7900 -0.1605  1.5202
12790TIP3    H259786   2.427   5.797   0.122 -0.5317  0.6842 -1.5254
12791TIP3   OH259787   4.556   2.866   1.720 -0.1521 -0.8290  0.4692
12791TIP3    H159788   4.519   2.850   1.633 -2.0899  1.5193  0.7469
12791TIP3    H259789   4.650   2.873   1.706 -0.0791 -3.5003 -0.8815
12792TIP3   OH259790   2.575   0.446  15.119  0.0107 -0.2484 -0.2749
12792TIP3    H159791   2.538   0.533  15.133 -0.0571  0.1151 -2.3380
12792TIP3    H259792   2.532   0.414  15.039 -0.7385 -2.6396  0.9959
12793TIP3   OH259793   0.165   3.543  13.076  0.3071 -0.9147  0.7130
12793TIP3    H159794   0.109   3.540  13.154  0.7904  1.0072  1.1828
12793TIP3    H259795   0.250   3.571  13.108  0.0990  1.5677 -0.6740
12794TIP3   OH259796   4.831   2.282  15.022  0.2507  0.0197 -0.1116
12794TIP3    H159797   4.736   2.291  15.032 -0.0261 -0.1617 -2.0439
12794TIP3    H259798   4.866   2.286  15.111 -1.5653  0.1058  0.6357
12795TIP3   OH259799   0.873   4.986   4.335  0.1269 -0.3928 -0.6752
12795TIP3    H159800   0.952   4.960   4.287  0.8599  3.6989 -2.1492
12795TIP3    H259801   0.805   4.994   4.268 -0.5332 -0.3981 -0.0205
12796TIP3   OH259802   2.483   0.236  15.805  0.2707  0.7321  0.1991
12796TIP3    H159803   2.469   0.286  15.885  0.0956 -0.1182  0.7131
12796TIP3    H259804   2.541   0.290  15.752  0.6494  1.1541  1.0367
12797TIP3   OH259805   2.390   0.558   5.329 -1.0150 -0.1446  0.4024
12797TIP3    H159806   2.362   0.633   5.380 -3.4756 -1.8919  1.8124
12797TIP3    H259807   2.449   0.509   5.387  0.0782  0.3286 -0.2781
12798TIP3   OH259808   3.282   2.726  12.440 -0.4454  0.0099 -0.5615
12798TIP3    H159809   3.376   2.707  12.443 -0.9101 -2.4744 -0.0308
12798TIP3    H259810   3.242   2.647  12.405 -2.4140  0.8654 -0.3829
12799TIP3   OH259811   6.001   6.048   1.518 -0.1774  0.2527  0.5002
12799TIP3    H159812   6.001   6.142   1.499  2.0498  0.0554 -0.8701
12799TIP3    H259813   6.074   6.036   1.579 -1.2337 -0.4635  1.6699
12800TIP3   OH259814   5.651   5.018  12.567 -0.1348  0.6132  1.1333
12800TIP3    H159815   5.728   5.009  12.622  0.9471  0.0625 -0.3999
12800TIP3    H259816   5.616   5.105  12.589  1.2148  1.0849  1.5112
12801TIP3   OH259817   1.159   5.666  16.412 -0.7069  0.6701  0.6575
12801TIP3    H159818   1.151   5.726  16.337  2.3350  0.9650  0.4514
12801TIP3    H259819   1.140   5.580  16.375 -1.2941  1.0500  0.0493
12802TIP3   OH259820   4.654   2.742  16.719 -0.2235  0.1386  0.3200
12802TIP3    H159821   4.644   2.806  16.649  0.8280  0.1243  0.1533
12802TIP3    H259822   4.611   2.663  16.685 -1.3441  0.6656  0.4518
12803TIP3   OH259823   1.234   0.547   2.260  0.2366  0.2570 -0.1110
12803TIP3    H159824   1.194   0.579   2.340  0.9551 -1.0303  0.8023
12803TIP3    H259825   1.280   0.467   2.286  0.9649  0.1139 -1.6923
12804TIP3   OH259826   4.806   1.360   4.269  0.2605 -0.0967 -0.6130
12804TIP3    H159827   4.808   1.282   4.214 -0.4166 -0.2449 -0.4350
12804TIP3    H259828   4.876   1.416   4.233  0.0120 -0.3043 -1.4537
12805TIP3   OH259829   2.413   2.995   5.952  0.2624  0.4578  0.5579
12805TIP3    H159830   2.373   2.943   6.022 -1.3266  0.9343  0.0315
12805TIP3    H259831   2.441   2.930   5.888  0.4972  0.1060  1.0088
12806TIP3   OH259832   1.198   3.734   1.101  0.3738  0.6972  0.2016
12806TIP3    H159833   1.114   3.706   1.066 -0.1975  0.4531  1.6897
12806TIP3    H259834   1.248   3.654   1.113  0.5896  0.7832 -0.1327
12807TIP3   OH259835   3.091   5.586  10.959 -0.4186  0.1260 -0.1701
12807TIP3    H159836   3.061   5.677  10.959 -2.2194 -0.3184  2.9210
12807TIP3    H259837   3.151   5.581  11.033  0.5996 -0.9755 -1.0418
12808TIP3   OH259838   4.009   4.257  12.741  0.1677 -0.0535  0.1425
12808TIP3    H159839   4.015   4.352  12.742 -2.2549  0.1665  0.0419
12808TIP3    H259840   4.091   4.227  12.780  0.8037  2.0786  0.5580
12809TIP3   OH259841   0.546   4.336   4.612 -0.0263 -0.6229  0.2683
12809TIP3    H159842   0.489   4.411   4.595  1.7588  1.0621  1.2731
12809TIP3    H259843   0.559   4.296   4.526  1.6281  2.2593 -0.9586
12810TIP3   OH259844   6.765   1.598  13.718  0.7180  0.2843 -0.1997
12810TIP3    H159845   6.729   1.681  13.747  3.0178  0.9306  1.0519
12810TIP3    H259846   6.694   1.535  13.733 -0.1432  1.5593  1.5018
12811TIP3   OH259847   4.755   2.495  14.218  0.4511 -0.3676 -0.0634
12811TIP3    H159848   4.757   2.563  14.151 -0.9466 -0.4930 -0.2655
12811TIP3    H259849   4.816   2.428  14.186  0.0555 -0.2743 -1.0495
12812TIP3   OH259850   3.419   5.556  16.106  0.0219 -0.5975  0.4131
12812TIP3    H159851   3.443   5.550  16.199 -1.4755 -1.9308  0.7429
12812TIP3    H259852   3.423   5.650  16.087 -0.3635 -0.2228  2.0155
12813TIP3   OH259853   1.621   5.481  14.495 -0.0202 -0.1712  0.1327
12813TIP3    H159854   1.587   5.399  14.532  3.5361 -1.9217 -0.0203
12813TIP3    H259855   1.614   5.544  14.567 -1.3991 -1.0175  0.7834
12814TIP3   OH259856   1.726   2.236  11.383  0.7341 -0.1207 -0.3768
12814TIP3    H159857   1.638   2.200  11.383  0.9954 -0.7701 -0.2670
12814TIP3    H259858   1.717   2.322  11.425  0.5111 -1.0877  1.6788
12815TIP3   OH259859   4.775   2.836  12.106  0.2510  0.5924  0.5565
12815TIP3    H159860   4.754   2.855  12.015  1.3468  1.6968  0.5125
12815TIP3    H259861   4.730   2.754  12.124 -0.8205  0.8692 -0.6717
12816TIP3   OH259862   6.555   4.337   2.444  0.2474  0.1884  0.5563
12816TIP3    H159863   6.534   4.274   2.375 -0.2198 -0.4820  1.2879
12816TIP3    H259864   6.565   4.420   2.399 -2.3164  0.2311 -0.0839
12817TIP3   OH259865   6.526   4.344   5.430  0.0911 -0.2732 -0.1499
12817TIP3    H159866   6.600   4.389   5.390 -0.0826 -0.0683 -0.2450
12817TIP3    H259867   6.470   4.415   5.464 -1.3338 -0.2838 -2.2987
12818TIP3   OH259868   3.142   2.674   5.125 -1.0577 -0.8060  0.3419
12818TIP3    H159869   3.094   2.687   5.207  0.0025 -1.1301  1.0219
12818TIP3    H259870   3.151   2.579   5.117 -1.0372 -0.7710 -0.0946
12819TIP3   OH259871   0.085   6.404  15.458  0.0371 -0.2370  0.1991
12819TIP3    H159872   0.002   6.388  15.414  0.5989 -0.3764 -0.8429
12819TIP3    H259873   0.145   6.340  15.419  0.7821  0.2705  0.4918
12820TIP3   OH259874   1.767   4.566  14.903 -0.2062  0.0533 -0.8967
12820TIP3    H159875   1.732   4.655  14.906  0.3774  0.3543 -2.2019
12820TIP3    H259876   1.701   4.516  14.855 -0.5021 -0.2058 -0.2228
12821TIP3   OH259877   6.597   6.022   3.643  0.2969  0.3591  0.3591
12821TIP3    H159878   6.509   5.992   3.621 -0.1101  0.0371  2.2735
12821TIP3    H259879   6.655   5.953   3.611 -0.5352 -2.0818  3.6430
12822TIP3   OH259880   1.079   4.876  15.553 -0.0746 -0.5087 -0.1794
12822TIP3    H159881   1.103   4.924  15.633 -0.1704 -0.6213 -0.0817
12822TIP3    H259882   0.994   4.911  15.528 -0.4149 -1.0263  0.2209
12823TIP3   OH259883   6.477   5.733  12.514 -0.0674 -0.0225 -0.0323
12823TIP3    H159884   6.569   5.731  12.487  0.2054 -2.1128  0.8652
12823TIP3    H259885   6.465   5.653  12.565 -2.4783  0.0309 -0.3836
12824TIP3   OH259886   2.472   5.882   5.832 -0.0916 -0.0618 -0.5083
12824TIP3    H159887   2.479   5.790   5.858  2.7205  0.3636  0.6353
12824TIP3    H259888   2.468   5.880   5.737  0.3980 -1.3755 -0.5183
12825TIP3   OH259889   4.408   2.944   5.144  0.1597  0.4762  0.0105
12825TIP3    H159890   4.367   2.899   5.070  0.8203  1.7619 -1.2001
12825TIP3    H259891   4.447   2.875   5.196 -0.5288 -0.4899 -0.7124
12826TIP3   OH259892   0.077   2.463   4.307 -0.4913  0.4121 -0.5839
12826TIP3    H159893   0.136   2.528   4.269 -0.6820  0.4016 -0.9000
12826TIP3    H259894   0.094   2.383   4.257  0.5011 -0.0807  0.4890
12827TIP3   OH259895   2.294   0.093   1.845  0.3385  0.3270 -0.1988
12827TIP3    H159896   2.272   0.041   1.922  0.3967  1.0922  0.3372
12827TIP3    H259897   2.350   0.163   1.878  0.6671  0.4525 -0.9942
12828TIP3   OH259898   3.755   1.025   3.054  0.5420 -0.1289 -0.1776
12828TIP3    H159899   3.844   0.990   3.055  0.7896  0.2244  3.8533
12828TIP3    H259900   3.764   1.109   3.009  2.3596  0.0781  0.4646
12829TIP3   OH259901   6.431   0.996  11.391  0.1100 -0.1867 -0.1640
12829TIP3    H159902   6.389   0.938  11.328  1.8067 -1.4888 -0.1824
12829TIP3    H259903   6.470   1.066  11.338  1.0942 -1.0008 -0.5587
12830TIP3   OH259904   5.063   5.207   3.023  0.2615  0.3702 -0.7044
12830TIP3    H159905   5.115   5.140   3.067  0.0450  0.3924 -0.4190
12830TIP3    H259906   5.011   5.247   3.092 -3.6192 -2.6773 -1.4667
12831TIP3   OH259907   6.653   5.016   5.122  0.4588  0.6127 -0.1559
12831TIP3    H159908   6.699   4.933   5.110  0.6342  0.9114 -1.7586
12831TIP3    H259909   6.614   5.009   5.209  1.4229 -0.6760  0.2081
12832TIP3   OH259910   1.790   3.900   3.009  0.1079  0.1257  0.3394
12832TIP3    H159911   1.716   3.839   3.014  0.3767 -0.4126 -1.3969
12832TIP3    H259912   1.834   3.891   3.093 -0.9941 -0.6141  0.8657
12833TIP3   OH259913   3.548   5.026   3.679  0.0896  0.1162  0.0580
12833TIP3    H159914   3.628   5.077   3.693  0.5826  0.1436 -2.3991
12833TIP3    H259915   3.567   4.940   3.716  1.2671  0.1499 -0.4200
12834TIP3   OH259916   3.486   3.678  17.140 -0.5032  0.7627  0.5001
12834TIP3    H159917   3.415   3.718  17.190 -0.7111  0.3850  0.5164
12834TIP3    H259918   3.560   3.674  17.201 -0.8125  0.1313  0.8476
12835TIP3   OH259919   4.429   6.081   1.834  0.6228  0.2324  0.3761
12835TIP3    H159920   4.521   6.068   1.856  1.0490  2.7012  0.3193
12835TIP3    H259921   4.394   6.135   1.904 -0.1863  1.1907 -0.7228
12836TIP3   OH259922   4.905   2.030   2.359 -0.2345 -0.2636 -0.1177
12836TIP3    H159923   4.877   1.939   2.355 -0.1913 -0.2758 -0.1413
12836TIP3    H259924   4.894   2.063   2.270  2.2112 -0.9812 -0.7439
12837TIP3   OH259925   4.735   0.729   4.584  0.2438  0.4645 -0.0181
12837TIP3    H159926   4.706   0.668   4.651  0.0167 -0.0493 -0.5726
12837TIP3    H259927   4.702   0.814   4.613  0.2227  0.2663  0.5573
12838TIP3   OH259928   5.053   3.985  14.761 -0.2100 -0.1806  0.2508
12838TIP3    H159929   5.087   4.021  14.679 -0.2870  0.3282  0.4408
12838TIP3    H259930   5.080   3.893  14.759  1.5599  0.2974  0.6116
12839TIP3   OH259931   6.549   1.464   1.716  0.3400 -0.3713 -0.5666
12839TIP3    H159932   6.488   1.432   1.650  0.6582 -0.3762 -0.8612
12839TIP3    H259933   6.618   1.397   1.720  1.2023  0.4329 -1.4570
12840TIP3   OH259934   2.587   0.407  12.397 -0.5708  0.0488  0.1704
12840TIP3    H159935   2.658   0.459  12.360 -1.0107  0.8555  0.4210
12840TIP3    H259936   2.573   0.444  12.484 -0.4863 -0.9044  0.5999
12841TIP3   OH259937   5.247   5.218   3.654 -0.5385  0.5019  0.0547
12841TIP3    H159938   5.299   5.221   3.574 -1.9324  0.4600 -0.8948
12841TIP3    H259939   5.310   5.202   3.724  0.5570 -1.1407 -1.2300
12842TIP3   OH259940   1.245   4.587   0.686 -0.2249 -0.7499  0.0974
12842TIP3    H159941   1.283   4.606   0.601  0.1996 -3.8638 -0.5256
12842TIP3    H259942   1.163   4.541   0.667  0.1872 -2.0776  1.3018
12843TIP3   OH259943   3.675   2.998   0.217  0.0244  0.3088 -0.2848
12843TIP3    H159944   3.653   2.924   0.161  0.8896  0.4536 -0.8356
12843TIP3    H259945   3.592   3.020   0.261 -0.4508 -0.3914 -0.8000
12844TIP3   OH259946   1.208   2.583  10.645 -0.0752 -0.6039 -0.2558
12844TIP3    H159947   1.139   2.634  10.688  1.0958 -0.3123  1.3516
12844TIP3    H259948   1.225   2.510  10.705 -0.2096 -1.7110 -1.4989
12845TIP3   OH259949   4.327   4.065  15.916  0.0587  0.8133  0.1711
12845TIP3    H159950   4.362   4.025  15.995  0.7295  0.7355 -0.1557
12845TIP3    H259951   4.235   4.041  15.915  0.7386 -2.2271 -0.8758
12846TIP3   OH259952   4.161   3.979   5.978  0.4140  0.2200 -0.6334
12846TIP3    H159953   4.171   4.005   6.070 -1.2539  1.3346 -0.7391
12846TIP3    H259954   4.248   3.994   5.940  1.6779 -1.9285  1.0988
12847TIP3   OH259955   0.067   3.261  14.946 -0.1033 -0.0803  0.1171
12847TIP3    H159956   0.145   3.279  14.892  0.7529 -1.7339  0.7471
12847TIP3    H259957   0.070   3.167  14.962 -1.2188  0.1240  1.7401
12848TIP3   OH259958   0.259   2.492   2.787 -0.4592 -0.2241 -0.3137
12848TIP3    H159959   0.213   2.417   2.825  1.1411 -0.6189  0.9641
12848TIP3    H259960   0.241   2.564   2.848 -0.0993 -0.1743 -0.2625
12849TIP3   OH259961   1.073   0.673  14.761  0.0904  0.0629 -0.1892
12849TIP3    H159962   1.112   0.761  14.760  0.8594 -0.2591  0.2044
12849TIP3    H259963   1.049   0.657  14.669  0.6869  0.3747 -0.4110
12850TIP3   OH259964   4.271   3.140   4.819 -0.0974 -0.4728 -0.0411
12850TIP3    H159965   4.294   3.123   4.728 -0.6982  1.7379 -0.6847
12850TIP3    H259966   4.355   3.149   4.864  0.2586  0.4831 -0.8542
12851TIP3   OH259967   2.760   5.315  12.988  0.2323 -0.3550  0.1373
12851TIP3    H159968   2.739   5.235  13.037  0.6727 -1.0272 -0.7301
12851TIP3    H259969   2.676   5.343  12.951  0.0118 -0.2072  0.7431
12852TIP3   OH259970   3.525   5.950   2.264 -0.2925  0.0651  0.4824
12852TIP3    H159971   3.507   6.040   2.293 -2.9887 -0.4445  0.6544
12852TIP3    H259972   3.573   5.911   2.337 -0.0381  1.0631  0.8668
12853TIP3   OH259973   6.432   2.304   4.753  0.0865 -0.4955 -0.0501
12853TIP3    H159974   6.382   2.338   4.827 -2.1207  1.3915 -2.2628
12853TIP3    H259975   6.489   2.376   4.727 -0.3748 -0.5340 -1.2018
12854TIP3   OH259976   6.169   2.600  13.397  0.1919 -0.4998 -0.5952
12854TIP3    H159977   6.251   2.552  13.383  1.0769  0.8825 -0.3824
12854TIP3    H259978   6.173   2.629  13.488 -2.2020 -3.3293  0.5838
12855TIP3   OH259979   1.062   6.303   5.108  0.4283 -0.0859  0.0292
12855TIP3    H159980   1.061   6.308   5.204  0.1733  0.9743 -0.0196
12855TIP3    H259981   1.073   6.394   5.079 -3.0010  0.1642 -0.9977
12856TIP3   OH259982   0.750   2.713   0.187 -0.3298  0.0686  0.0668
12856TIP3    H159983   0.767   2.648   0.119  1.4537  0.6445 -0.0805
12856TIP3    H259984   0.694   2.778   0.144 -1.1312 -0.7402 -0.1398
12857TIP3   OH259985   0.715   2.637   6.142  0.0999  0.1703 -0.1955
12857TIP3    H159986   0.783   2.572   6.163  1.2745  1.0922 -1.0673
12857TIP3    H259987   0.688   2.671   6.228 -1.3075 -2.1583  0.3852
12858TIP3   OH259988   5.340   3.723   0.942 -0.9915  0.4290 -0.9519
12858TIP3    H159989   5.398   3.704   1.016 -0.5199 -1.3050 -1.7054
12858TIP3    H259990   5.251   3.715   0.978 -0.7962  2.0403 -0.0391
12859TIP3   OH259991   3.128   1.880   3.445  0.2127 -0.7471  0.1184
12859TIP3    H159992   3.122   1.800   3.497 -0.0518 -0.2409  0.8719
12859TIP3    H259993   3.045   1.884   3.398 -0.0340 -0.5765  0.5707
12860TIP3   OH259994   0.904   5.197  12.273 -0.4428 -0.3093  0.3324
12860TIP3    H159995   0.854   5.263  12.321  0.0574 -1.6058  2.7752
12860TIP3    H259996   0.858   5.115  12.289 -0.4060 -0.7778 -1.6965
12861TIP3   OH259997   4.891   4.336   1.241  0.2485 -0.2499  0.0675
12861TIP3    H159998   4.968   4.362   1.190 -0.1190 -0.0484 -0.3850
12861TIP3    H259999   4.886   4.400   1.312 -0.4081  0.6686 -0.7979
12862TIP3   OH260000   3.749   6.278  14.382  0.1641  0.3277  0.0564
12862TIP3    H160001   3.747   6.227  14.463  1.2065  2.7081  1.7381
12862TIP3    H260002   3.793   6.222  14.318 -1.5113 -1.9796  0.8094
12863TIP3   OH260003   5.371   3.776  14.318  0.0464  0.1773 -0.8355
12863TIP3    H160004   5.286   3.821  14.310 -0.4040 -0.4290  0.2883
12863TIP3    H260005   5.432   3.846  14.341 -0.8156  0.1805  1.8100
12864TIP3   OH260006   5.727   1.299   0.505  0.3740 -0.3215  0.0396
12864TIP3    H160007   5.716   1.353   0.583 -0.6490 -1.1146  0.4730
12864TIP3    H260008   5.653   1.238   0.508  0.2906 -0.3307 -1.5799
12865TIP3   OH260009   2.802   3.064  13.954  0.0830  0.6405  0.2631
12865TIP3    H160010   2.836   3.026  13.873 -0.2509 -0.8644  0.7898
12865TIP3    H260011   2.835   3.154  13.954 -1.5717  1.3598 -2.5099
12866TIP3   OH260012   2.765   6.773  16.351 -0.6838  0.0005  0.5682
12866TIP3    H160013   2.720   6.715  16.413 -1.1416 -1.6822 -1.2378
12866TIP3    H260014   2.700   6.788  16.282  0.7100 -0.5239 -0.9097
12867TIP3   OH260015   3.601   3.302   3.323 -0.1234 -0.1978  0.2142
12867TIP3    H160016   3.506   3.313   3.320 -0.0624  0.4254  0.4467
12867TIP3    H260017   3.624   3.269   3.237 -0.4506  0.4691 -0.1393
12868TIP3   OH260018   3.644   3.942   6.072 -0.7966  0.2684 -0.0740
12868TIP3    H160019   3.574   3.894   6.115  0.3013 -1.6168 -0.2919
12868TIP3    H260020   3.716   3.941   6.135 -0.1846  0.0948 -0.7601
12869TIP3   OH260021   5.259   2.343   1.007  0.0488 -0.6556 -0.1741
12869TIP3    H160022   5.324   2.275   1.025  1.5607  0.2854 -1.8189
12869TIP3    H260023   5.273   2.365   0.915 -2.9742 -0.7696 -0.7528
12870TIP3   OH260024   3.111   2.909   1.438 -0.4151  0.2655  0.5939
12870TIP3    H160025   3.023   2.872   1.442 -0.3835  0.2558  1.3164
12870TIP3    H260026   3.098   3.003   1.452 -0.4260  0.4407 -0.5326
12871TIP3   OH260027   6.724   4.232  14.575 -0.2717  0.0088 -0.0470
12871TIP3    H160028   6.779   4.308  14.556  0.3971 -0.6360 -0.7396
12871TIP3    H260029   6.781   4.170  14.620 -1.4531  0.9017  2.9576
12872TIP3   OH260030   5.086   1.933  13.937 -0.8740 -0.6459  0.1371
12872TIP3    H160031   5.113   1.845  13.964 -0.9038 -0.5631  0.4447
12872TIP3    H260032   5.160   1.966  13.886 -0.7827 -0.7745  0.1856
12873TIP3   OH260033   4.681   6.682   4.602  0.0498  0.3135 -0.5023
12873TIP3    H160034   4.686   6.769   4.642 -0.5005  0.3303 -0.4622
12873TIP3    H260035   4.588   6.671   4.580  0.0951 -0.3074 -0.4026
12874TIP3   OH260036   4.309   1.313  14.188  0.1937  0.0062 -0.0901
12874TIP3    H160037   4.392   1.318  14.141 -0.6347 -0.5549 -1.7204
12874TIP3    H260038   4.282   1.222  14.181 -0.9868  0.3525 -0.4166
12875TIP3   OH260039   1.803   5.601   0.268  0.1376  0.0168  0.4270
12875TIP3    H160040   1.856   5.540   0.319 -1.5091 -2.2513 -0.4051
12875TIP3    H260041   1.744   5.641   0.332  0.7414  0.2098  0.8726
12876TIP3   OH260042   3.054   4.466  12.556 -0.2100  0.5691 -0.5819
12876TIP3    H160043   3.051   4.371  12.560 -0.9505  0.6349  1.1491
12876TIP3    H260044   3.147   4.488  12.560 -0.1086 -0.0459  1.4853
12877TIP3   OH260045   4.101   0.155   4.590 -0.2938  0.0949  0.1589
12877TIP3    H160046   4.184   0.203   4.592 -0.1000 -0.2421  0.4480
12877TIP3    H260047   4.052   0.189   4.664 -0.2132 -0.0462  0.2794
12878TIP3   OH260048   1.634   5.711   6.159 -0.1632 -0.1930  0.2360
12878TIP3    H160049   1.607   5.636   6.213 -1.6780  0.8452  0.9889
12878TIP3    H260050   1.589   5.786   6.198 -0.6180  0.7427 -1.9417
12879TIP3   OH260051   6.567   3.225   0.212 -0.0082 -1.2088 -0.2326
12879TIP3    H160052   6.579   3.320   0.223 -0.3206 -1.2559  0.5969
12879TIP3    H260053   6.643   3.186   0.256 -0.8096 -1.3821  1.0398
12880TIP3   OH260054   2.353   6.582   3.250  0.4502  1.1331 -0.2749
12880TIP3    H160055   2.354   6.561   3.157  0.4638  1.6917 -0.4057
12880TIP3    H260056   2.440   6.618   3.268  0.6203  0.5623  0.0676
12881TIP3   OH260057   4.019   1.072   5.550 -0.4800 -0.0011  0.2445
12881TIP3    H160058   4.066   1.155   5.562 -0.2154 -0.0681 -0.2930
12881TIP3    H260059   3.950   1.074   5.617  0.2621  0.1134  1.0230
12882TIP3   OH260060   4.982   3.670  12.415  0.4148  0.3671 -0.5963
12882TIP3    H160061   4.895   3.673  12.455  0.5438  0.5101 -0.3228
12882TIP3    H260062   5.018   3.586  12.442  1.0336  1.0253  0.7321
12883TIP3   OH260063   3.882   2.472  13.668  0.2891 -0.2868  0.4203
12883TIP3    H160064   3.900   2.385  13.632 -0.3703 -0.0844 -0.4030
12883TIP3    H260065   3.858   2.455  13.759 -2.9066 -1.3180 -0.5012
12884TIP3   OH260066   2.099   5.452   2.778 -0.7982  0.2708 -0.0751
12884TIP3    H160067   2.084   5.365   2.740  0.2384 -0.4223  1.0156
12884TIP3    H260068   2.013   5.494   2.776 -0.9835 -0.0912 -2.2012
12885TIP3   OH260069   2.306   5.254   4.374 -0.5089  0.0975  0.9493
12885TIP3    H160070   2.339   5.256   4.284  0.9568  0.6027  1.4584
12885TIP3    H260071   2.243   5.183   4.375 -0.2149 -0.2172 -0.3688
12886TIP3   OH260072   6.001   3.998  15.420 -0.3161  0.0331  0.3880
12886TIP3    H160073   5.951   4.075  15.449 -2.5488 -0.5291 -1.7247
12886TIP3    H260074   6.064   4.033  15.357 -0.2006  0.3271  0.6614
12887TIP3   OH260075   4.371   6.617  16.372  0.3994  0.3626  0.1406
12887TIP3    H160076   4.327   6.611  16.457  0.8630 -1.6967  0.2948
12887TIP3    H260077   4.300   6.609  16.308  0.1907  0.5923  0.3392
12888TIP3   OH260078   5.077   6.738  16.247 -0.5880 -0.4112  0.0570
12888TIP3    H160079   5.136   6.766  16.317 -0.3682  0.4815 -0.4645
12888TIP3    H260080   5.092   6.644  16.239  0.6924 -0.2177  0.0047
12889TIP3   OH260081   0.310   3.187  11.574 -0.6709  0.1367  0.6611
12889TIP3    H160082   0.249   3.227  11.635 -0.9562 -0.7248  0.9550
12889TIP3    H260083   0.268   3.104  11.549  0.6385 -0.7602  1.3369
12890TIP3   OH260084   0.606   1.929  11.394 -0.1147  0.1243  0.5829
12890TIP3    H160085   0.601   1.945  11.488  0.5155  0.7732  0.5134
12890TIP3    H260086   0.687   1.973  11.366 -0.0112 -0.5251 -0.1686
12891TIP3   OH260087   6.437   0.774  13.199 -0.2133 -0.0540  0.1973
12891TIP3    H160088   6.445   0.811  13.286  1.6220  0.3525 -0.0986
12891TIP3    H260089   6.450   0.680  13.212 -0.0331 -0.0044  0.3799
12892TIP3   OH260090   0.810   0.893   0.585 -0.6587 -0.1770  0.3673
12892TIP3    H160091   0.791   0.908   0.492 -1.9430 -1.0267  0.4803
12892TIP3    H260092   0.754   0.819   0.610  0.2309 -0.4603  1.6319
12893TIP3   OH260093   1.248   0.922   5.831 -0.3028 -0.2284  0.0338
12893TIP3    H160094   1.168   0.883   5.864 -1.0903 -0.0872 -1.6018
12893TIP3    H260095   1.318   0.872   5.872 -1.2657 -2.8069 -1.2550
12894TIP3   OH260096   2.936   0.049  10.882  0.0119  0.0452  0.3295
12894TIP3    H160097   3.012  -0.005  10.903 -0.7774 -1.7810 -1.3192
12894TIP3    H260098   2.868  -0.012  10.857 -1.2131  1.7653 -0.7870
12895TIP3   OH260099   5.133   4.176  15.347  0.5390 -0.3476 -0.1685
12895TIP3    H160100   5.176   4.143  15.425  2.6671 -1.0842 -1.5764
12895TIP3    H260101   5.039   4.166  15.365  0.9541 -0.4346  2.2666
12896TIP3   OH260102   5.665   0.727   3.180  0.0950  0.1644  0.0660
12896TIP3    H160103   5.749   0.737   3.226  0.7674 -2.2008 -0.5267
12896TIP3    H260104   5.647   0.634   3.183 -3.6066  0.7783  1.9566
12897TIP3   OH260105   0.055   0.537  16.842  0.2310  0.0309 -0.8834
12897TIP3    H160106   0.121   0.526  16.773  0.2615  0.8848 -0.9981
12897TIP3    H260107   0.099   0.587  16.910 -0.0491 -0.1082 -0.5980
12898TIP3   OH260108   5.372   3.649   2.439  0.2949 -0.7109 -0.0751
12898TIP3    H160109   5.405   3.616   2.522 -0.7211 -2.1094 -0.1944
12898TIP3    H260110   5.281   3.671   2.456  0.1609 -0.7298 -0.7430
12899TIP3   OH260111   2.931   3.167  13.180  0.3863  0.6303  0.2276
12899TIP3    H160112   2.980   3.191  13.259  0.1197  1.7069  0.0818
12899TIP3    H260113   2.864   3.107  13.211  1.4332 -0.4346  0.5179
12900TIP3   OH260114   3.864   2.439   3.096  0.2765  0.1668  0.5311
12900TIP3    H160115   3.846   2.431   3.003  1.5911  1.0690  0.1654
12900TIP3    H260116   3.799   2.501   3.129  1.9384  2.6843 -0.5742
12901TIP3   OH260117   2.942   0.312  10.903  0.1234  0.1736  0.0264
12901TIP3    H160118   2.940   0.219  10.882 -0.7126 -0.0026  0.8089
12901TIP3    H260119   2.911   0.356  10.824  1.0942 -0.1555 -0.5545
12902TIP3   OH260120   5.705   5.127   5.232 -0.5529  0.1494  0.1070
12902TIP3    H160121   5.787   5.080   5.250 -0.3628 -0.0804 -1.2386
12902TIP3    H260122   5.728   5.189   5.163 -1.9941 -1.6100 -2.1147
12903TIP3   OH260123   4.849   3.616   6.570 -0.2553 -0.3094  0.4203
12903TIP3    H160124   4.827   3.630   6.478  1.4406 -1.2805 -0.1578
12903TIP3    H260125   4.868   3.523   6.577  2.6227  0.2374  1.0447
12904TIP3   OH260126   1.948   2.200   6.648  0.7399  0.0584  0.3845
12904TIP3    H160127   2.034   2.158   6.643  1.2525  1.2010 -1.0603
12904TIP3    H260128   1.886   2.127   6.652  1.6392 -0.8635 -1.3528
12905TIP3   OH260129   3.965   5.702   2.889  0.5977  0.2352 -0.4017
12905TIP3    H160130   3.977   5.740   2.976  0.8043 -0.5467 -0.0855
12905TIP3    H260131   3.934   5.775   2.835  0.5582  0.7432  0.3032
12906TIP3   OH260132   4.822   5.577  12.972 -0.7802  0.5604 -0.6060
12906TIP3    H160133   4.851   5.667  12.957 -0.1822  0.8135  1.6834
12906TIP3    H260134   4.745   5.586  13.029 -0.5381 -0.3701 -0.1149
12907TIP3   OH260135   6.226   5.662  13.985  0.1992  0.0814 -0.2555
12907TIP3    H160136   6.176   5.656  13.904 -1.0406 -0.8132  0.5413
12907TIP3    H260137   6.160   5.666  14.054  1.1120 -2.8251  0.9689
12908TIP3   OH260138   0.910   5.630  12.645 -0.6644  0.0959  0.2845
12908TIP3    H160139   0.890   5.539  12.621 -0.3704  0.0588  0.1714
12908TIP3    H260140   0.899   5.679  12.564 -1.8534  0.3344  0.5847
12909TIP3   OH260141   1.275   2.546   3.802 -0.0862  0.1245 -0.6575
12909TIP3    H160142   1.224   2.470   3.829 -2.1227  0.7930 -2.3803
12909TIP3    H260143   1.248   2.563   3.711  1.2211  2.1542 -0.7476
12910TIP3   OH260144   5.357   3.566   3.852 -0.1755 -0.0395 -0.0414
12910TIP3    H160145   5.381   3.509   3.925  0.2374 -1.1677 -1.0255
12910TIP3    H260146   5.418   3.542   3.782 -1.5824 -0.1245 -1.2824
12911TIP3   OH260147   1.555   1.391  12.307 -0.0598  0.1750 -0.1078
12911TIP3    H160148   1.567   1.302  12.274 -1.8704  0.3077 -1.2189
12911TIP3    H260149   1.508   1.380  12.390 -0.8272  0.1015 -0.5427
12912TIP3   OH260150   1.232   5.296   4.493 -0.0868 -0.0285  0.6085
12912TIP3    H160151   1.276   5.260   4.569  0.8058  1.2391  0.7281
12912TIP3    H260152   1.196   5.379   4.523  0.4790  0.6019 -0.3961
12913TIP3   OH260153   6.237   0.211   2.568  0.4757  0.1894 -0.3353
12913TIP3    H160154   6.307   0.242   2.509 -1.5112  1.0105 -2.4095
12913TIP3    H260155   6.216   0.123   2.535  0.0668  0.2212 -0.1569
12914TIP3   OH260156   0.175   5.066   3.873  0.4306 -0.2157 -0.4648
12914TIP3    H160157   0.099   5.062   3.815  1.1288 -1.9068 -1.3358
12914TIP3    H260158   0.231   5.133   3.834  0.0751 -0.0398 -0.6801
12915TIP3   OH260159   1.995   0.917  17.126  0.6275 -0.0434  0.6329
12915TIP3    H160160   1.903   0.943  17.130  0.5112 -0.3449  0.0691
12915TIP3    H260161   1.995   0.823  17.145  0.9502  0.1862  1.7991
12916TIP3   OH260162   2.663   4.506   5.549  0.0403  0.5876  0.9520
12916TIP3    H160163   2.688   4.429   5.599  1.8954  1.3250  1.2501
12916TIP3    H260164   2.568   4.502   5.544 -0.0352 -0.6454  2.6754
12917TIP3   OH260165   6.729   6.453  14.527 -0.1009  0.2266 -1.0036
12917TIP3    H160166   6.814   6.473  14.567 -0.3964 -0.3211 -0.0574
12917TIP3    H260167   6.673   6.527  14.553 -0.2881 -0.1203 -0.4095
12918TIP3   OH260168   0.925   3.044   4.604  0.2114  0.4081 -0.1772
12918TIP3    H160169   0.860   2.979   4.629 -1.4412  2.2570  0.5548
12918TIP3    H260170   1.002   3.021   4.656 -0.5759 -0.5277  0.6223
12919TIP3   OH260171   0.991   2.059   4.512  0.1225  0.3175 -0.0608
12919TIP3    H160172   0.978   2.080   4.420 -2.1317 -0.3553  0.0461
12919TIP3    H260173   1.085   2.040   4.520  0.7412  2.3646 -1.7631
12920TIP3   OH260174   2.325   1.427  14.185 -0.0431  0.5965  0.4499
12920TIP3    H160175   2.256   1.370  14.151 -0.8282  1.8189 -0.1006
12920TIP3    H260176   2.345   1.392  14.271 -1.3460  0.1840  0.6121
12921TIP3   OH260177   2.145   1.153  15.022 -0.1603  0.5726  0.1240
12921TIP3    H160178   2.209   1.095  14.982  1.0211  2.0188 -0.1498
12921TIP3    H260179   2.126   1.113  15.107  1.0748  0.1063  0.1948
12922TIP3   OH260180   1.138   2.403   0.635 -0.5839  0.8950  0.7899
12922TIP3    H160181   1.060   2.352   0.611  0.0585 -0.0981  0.7664
12922TIP3    H260182   1.159   2.453   0.556 -1.5104  1.5929  0.9698
12923TIP3   OH260183   5.791   1.102  12.707  0.0600 -0.6488 -0.3982
12923TIP3    H160184   5.834   1.124  12.624  1.4411  1.2735  0.7388
12923TIP3    H260185   5.791   1.184  12.757 -3.0487 -1.1073  0.5616
12924TIP3   OH260186   5.794   6.508   3.296  0.0525 -0.3099  0.2379
12924TIP3    H160187   5.737   6.434   3.273  0.0726 -0.0356 -0.7492
12924TIP3    H260188   5.833   6.535   3.213  0.1769  0.7046  0.6086
12925TIP3   OH260189   6.346   3.250   0.814 -0.6828  0.3707  0.6815
12925TIP3    H160190   6.293   3.300   0.875 -1.1425 -0.5727  1.0694
12925TIP3    H260191   6.322   3.159   0.829  0.1092  0.0217 -0.0341
12926TIP3   OH260192   0.614   2.980   6.057  0.1990  0.0921  0.8033
12926TIP3    H160193   0.707   2.958   6.065  1.2755  3.9091  0.5712
12926TIP3    H260194   0.606   3.022   5.971 -2.1951 -1.7050  0.0290
12927TIP3   OH260195   6.684   4.776   2.551  0.0816 -0.0383 -0.0742
12927TIP3    H160196   6.615   4.812   2.496  0.0955  0.4432  0.2175
12927TIP3    H260197   6.740   4.727   2.491 -0.1176  0.1628 -0.4256
12928TIP3   OH260198   1.150   2.305  15.292 -0.0127 -0.0360  0.1340
12928TIP3    H160199   1.084   2.258  15.241  0.9467 -0.4482 -0.7773
12928TIP3    H260200   1.152   2.393  15.253 -0.7075  0.2921  0.8147
12929TIP3   OH260201   0.470   4.713   0.135  0.1215  0.1467 -0.5040
12929TIP3    H160202   0.374   4.713   0.134  0.0993  0.9010  0.3131
12929TIP3    H260203   0.495   4.777   0.068  0.0617 -0.2874 -0.9424
12930TIP3   OH260204   6.754   0.839   3.994 -0.8682 -0.1509 -0.3575
12930TIP3    H160205   6.816   0.812   3.925 -0.6740 -0.3778 -0.0962
12930TIP3    H260206   6.765   0.934   3.999  0.5948 -0.3492  0.7537
12931TIP3   OH260207   1.958   0.254  13.175 -0.1106 -0.2962 -0.3617
12931TIP3    H160208   1.903   0.257  13.253  0.8121  1.0230  0.2832
12931TIP3    H260209   2.030   0.195  13.200  0.2251  0.1864 -0.1735
12932TIP3   OH260210   6.593   5.973  14.273  0.1901 -0.5370  0.0095
12932TIP3    H160211   6.654   5.900  14.261 -0.3025 -1.0496  0.5580
12932TIP3    H260212   6.559   5.962  14.362  1.7866  1.6541  0.9761
12933TIP3   OH260213   5.887   2.083   2.487  0.8210  0.0763 -0.5845
12933TIP3    H160214   5.849   2.014   2.541 -1.6087 -0.1045 -2.3713
12933TIP3    H260215   5.906   2.154   2.548  0.4696 -1.0159  0.8353
12934TIP3   OH260216   2.973   4.938  16.900 -0.0597 -0.6224  0.2224
12934TIP3    H160217   3.041   4.917  16.836 -0.1102  1.8335 -0.7389
12934TIP3    H260218   2.892   4.939  16.849 -0.5111 -1.2878  0.9052
12935TIP3   OH260219   0.868   1.560  11.091  0.7193  0.1781  0.2961
12935TIP3    H160220   0.941   1.619  11.074  0.6479 -0.2312 -1.5548
12935TIP3    H260221   0.886   1.524  11.179  2.4857  0.4311  0.0662
12936TIP3   OH260222   4.171   5.120  14.220  0.4758  0.0123 -0.0373
12936TIP3    H160223   4.114   5.048  14.196  2.7037 -2.0372  0.3567
12936TIP3    H260224   4.118   5.176  14.277 -1.3338 -1.2860 -0.3809
12937TIP3   OH260225   0.549   4.470   5.936 -0.0372  0.2823 -0.3928
12937TIP3    H160226   0.587   4.538   5.991  0.9104  0.3244 -1.0677
12937TIP3    H260227   0.625   4.422   5.901 -0.6710 -1.6253  0.6512
12938TIP3   OH260228   4.252   0.940  12.538  0.3688  0.0828 -0.0923
12938TIP3    H160229   4.161   0.956  12.515  0.2071 -1.7636 -0.8631
12938TIP3    H260230   4.302   0.998  12.480 -0.1636 -2.2245 -3.0827
12939TIP3   OH260231   3.159   3.877  17.058  0.2537 -0.3063  0.0205
12939TIP3    H160232   3.079   3.870  17.006  0.9153 -1.3242 -0.8903
12939TIP3    H260233   3.174   3.971  17.065 -0.7055 -0.1132 -0.2741
12940TIP3   OH260234   5.480   0.477  15.095  0.1888 -0.1091  0.3290
12940TIP3    H160235   5.549   0.542  15.087 -0.4173  0.6676  1.2070
12940TIP3    H260236   5.462   0.472  15.189 -2.6446  1.5519 -0.0273
12941TIP3   OH260237   6.371   0.012  14.043  0.3936 -0.6269 -0.1141
12941TIP3    H160238   6.439   0.041  13.982 -1.8795  2.2785 -1.5878
12941TIP3    H260239   6.306  -0.031  13.987  1.4663 -4.7251  1.4418
12942TIP3   OH260240   1.847   0.267  17.121 -0.0698  0.2742 -0.0763
12942TIP3    H160241   1.859   0.249  17.028 -0.8404  2.4876 -0.6665
12942TIP3    H260242   1.919   0.221  17.164  1.3779  0.6882 -1.9500
12943TIP3   OH260243   0.834   2.903  15.660 -0.0995 -0.2063 -0.3654
12943TIP3    H160244   0.810   2.830  15.602 -1.0192 -1.1549  1.1546
12943TIP3    H260245   0.799   2.879  15.745  1.5095  1.0120  0.6961
12944TIP3   OH260246   2.264   2.675   4.412  0.4002 -0.0230 -0.2974
12944TIP3    H160247   2.246   2.631   4.329  0.9679 -1.2158  0.1773
12944TIP3    H260248   2.189   2.732   4.427 -0.1879 -0.5692 -1.1212
12945TIP3   OH260249   1.913   5.008   3.906 -0.3089 -0.1753  0.4111
12945TIP3    H160250   1.997   4.970   3.931  0.8286  1.1944 -1.1546
12945TIP3    H260251   1.896   5.075   3.972 -2.0619 -2.7378  2.8700
12946TIP3   OH260252   5.092   2.217   4.855  0.1942 -0.4461 -0.1110
12946TIP3    H160253   5.117   2.308   4.870 -1.8204 -0.2591  3.1530
12946TIP3    H260254   5.160   2.166   4.899 -0.9021 -0.2534  1.9206
12947TIP3   OH260255   5.507   3.506  16.670  0.0862  0.0724  0.0086
12947TIP3    H160256   5.534   3.490  16.579 -0.6409  1.6934 -0.5356
12947TIP3    H260257   5.526   3.599  16.684 -0.2151 -0.0602  1.3901
12948TIP3   OH260258   1.732   3.291  17.270 -0.9386  0.7519  0.3478
12948TIP3    H160259   1.686   3.210  17.249 -0.3553 -0.4808  3.2416
12948TIP3    H260260   1.824   3.272  17.249 -0.8223  0.6710  0.9001
12949TIP3   OH260261   1.291   3.872  16.369 -0.0072 -0.3616 -0.0384
12949TIP3    H160262   1.216   3.930  16.379  0.1961  0.0607 -0.8956
12949TIP3    H260263   1.340   3.881  16.451  0.5400  1.4348 -0.5074
12950TIP3   OH260264   5.947   2.919   0.116  0.0759  0.4495 -0.1421
12950TIP3    H160265   5.920   2.890   0.203 -3.5860  1.0317 -0.9307
12950TIP3    H260266   5.922   2.847   0.058 -0.7193  1.4148 -1.0434
12951TIP3   OH260267   1.298   5.157   3.152 -0.6648  0.0470  0.1698
12951TIP3    H160268   1.362   5.166   3.221  0.4860 -0.1187 -0.8461
12951TIP3    H260269   1.283   5.063   3.145 -0.7467  0.0607  0.1595
12952TIP3   OH260270   3.697   4.122   1.403  0.2916 -0.3431 -0.4925
12952TIP3    H160271   3.715   4.216   1.393 -0.1488 -0.2188 -0.1338
12952TIP3    H260272   3.723   4.102   1.493  0.8652 -0.6814 -0.7236
12953TIP3   OH260273   1.848   3.136  15.647 -0.1175 -0.3360 -0.2492
12953TIP3    H160274   1.872   3.129  15.739 -0.3396  0.7428 -0.0935
12953TIP3    H260275   1.827   3.046  15.621 -0.0754 -0.6505  0.7513
12954TIP3   OH260276   3.622   2.644   2.145  0.2225 -0.1606 -0.6386
12954TIP3    H160277   3.703   2.689   2.169 -1.0673  2.2703 -0.5528
12954TIP3    H260278   3.643   2.551   2.152  2.8119  0.4053 -0.0372
12955TIP3   OH260279   1.045   0.188  11.531 -0.1830 -0.7731 -0.6411
12955TIP3    H160280   1.016   0.147  11.450  2.6958  1.9507 -3.3711
12955TIP3    H260281   1.137   0.210  11.514  0.2882  0.7897  3.0492
12956TIP3   OH260282   6.607   0.220   6.438 -0.5011  0.3540  0.2239
12956TIP3    H160283   6.545   0.192   6.371 -0.3080 -0.6643  0.4522
12956TIP3    H260284   6.552   0.255   6.508 -0.8285 -0.4365  0.3752
12957TIP3   OH260285   0.717   2.445   0.022  0.2895  0.4655 -0.1713
12957TIP3    H160286   0.622   2.452   0.028  0.1588 -1.4521  0.5994
12957TIP3    H260287   0.732   2.388  -0.053  0.8972  1.4664 -0.8418
12958TIP3   OH260288   1.233   5.712  11.690 -0.4374  0.0228 -0.3661
12958TIP3    H160289   1.245   5.739  11.781 -0.1771 -1.9915  0.2291
12958TIP3    H260290   1.180   5.782  11.652  0.2827  1.4024  1.0505
12959TIP3   OH260291   1.258   2.734   1.008 -0.1687 -0.1832 -0.4025
12959TIP3    H160292   1.238   2.737   0.914 -1.0531 -0.1019 -0.2274
12959TIP3    H260293   1.344   2.692   1.014  0.1004  0.2293 -1.2755
12960TIP3   OH260294   6.444   2.322  16.698 -0.3901  0.1774 -0.4540
12960TIP3    H160295   6.516   2.326  16.635 -0.8380 -2.0827 -1.2057
12960TIP3    H260296   6.469   2.252  16.759 -0.4162  1.6632  1.3481
12961TIP3   OH260297   6.309   6.415  12.419  0.6175 -0.4789  0.0641
12961TIP3    H160298   6.391   6.378  12.450  0.7171 -0.8111 -0.5793
12961TIP3    H260299   6.242   6.372  12.472  0.8371 -0.4404  0.3743
12962TIP3   OH260300   5.774   4.561   5.520 -0.4296  0.0361 -0.1898
12962TIP3    H160301   5.760   4.530   5.610  0.4121 -0.2442 -0.1536
12962TIP3    H260302   5.757   4.655   5.525  0.4639  0.1793  0.4538
12963TIP3   OH260303   1.701   3.784  14.744 -0.1712  0.8017 -0.1837
12963TIP3    H160304   1.698   3.879  14.746 -0.3568  0.8532 -1.8556
12963TIP3    H260305   1.627   3.758  14.690 -1.1389 -0.4022  1.6190
12964TIP3   OH260306   0.620   5.584  14.456 -0.7257  0.4513 -0.4215
12964TIP3    H160307   0.646   5.606  14.366 -0.0137  1.7296  0.0722
12964TIP3    H260308   0.664   5.649  14.510  0.2156 -1.3260  1.0303
12965TIP3   OH260309   0.546   6.603  14.877  0.5278  0.1906 -0.3924
12965TIP3    H160310   0.564   6.562  14.792  0.7594 -2.5620  0.8742
12965TIP3    H260311   0.629   6.598  14.924  0.6341  2.4736 -0.2530
12966TIP3   OH260312   3.191   0.331  12.306 -0.4223  0.4958  0.0114
12966TIP3    H160313   3.153   0.401  12.359  2.5700  1.4923  0.9859
12966TIP3    H260314   3.228   0.376  12.230 -1.2069 -0.4808 -0.9942
12967TIP3   OH260315   1.683   4.503  11.979  0.3263  0.5404  0.2925
12967TIP3    H160316   1.767   4.521  12.021  0.1548  1.3149  0.3187
12967TIP3    H260317   1.639   4.441  12.037  0.3900  1.0439  0.8869
12968TIP3   OH260318   3.903   2.821  13.747  0.2306  0.2606 -0.7540
12968TIP3    H160319   3.891   2.731  13.778 -2.9822  1.1786  1.1954
12968TIP3    H260320   3.842   2.830  13.674  1.9310  0.3857 -2.2117
12969TIP3   OH260321   1.859   5.124  12.627  0.6918 -1.0850 -0.1789
12969TIP3    H160322   1.914   5.103  12.702  2.3985  1.8962 -0.4347
12969TIP3    H260323   1.774   5.086  12.648  1.0144 -0.1383  3.4445
12970TIP3   OH260324   2.872   6.200   2.071  0.5196  0.3727  0.0551
12970TIP3    H160325   2.895   6.108   2.058  0.3397  0.6308 -2.5962
12970TIP3    H260326   2.956   6.244   2.083  0.6165 -0.0779  1.1676
12971TIP3   OH260327   6.761   4.042   3.529  0.2151  0.2663 -0.0629
12971TIP3    H160328   6.702   3.980   3.571  0.0872  0.2999 -0.1922
12971TIP3    H260329   6.845   4.029   3.573  0.4312 -0.6667 -0.7333
12972TIP3   OH260330   5.639   4.152   3.918  0.3144 -0.4223  0.5524
12972TIP3    H160331   5.630   4.229   3.973  1.0778  1.0334 -1.2352
12972TIP3    H260332   5.575   4.165   3.848  2.0084 -0.1929 -1.0363
12973TIP3   OH260333   2.262   5.583  13.481 -0.2859 -0.0986 -0.5201
12973TIP3    H160334   2.289   5.668  13.515  0.4516 -1.0039  1.2850
12973TIP3    H260335   2.289   5.520  13.548 -3.5095 -1.4911 -0.3417
12974TIP3   OH260336   1.044   5.512   4.069 -0.0315 -0.2024  0.8116
12974TIP3    H160337   0.952   5.532   4.088 -0.0116  0.6863  0.0571
12974TIP3    H260338   1.055   5.420   4.094 -1.5914 -0.8464 -0.6938
12975TIP3   OH260339   2.750   0.713   5.307 -0.5982  0.1356  0.0125
12975TIP3    H160340   2.816   0.691   5.241 -0.9961  0.6934 -0.5792
12975TIP3    H260341   2.716   0.628   5.336  1.4923 -0.2571  1.5050
12976TIP3   OH260342   1.619   1.826   5.004 -0.1269  0.4655  0.7903
12976TIP3    H160343   1.642   1.800   4.915 -1.9937  2.8199 -0.5058
12976TIP3    H260344   1.547   1.767   5.029  1.4332 -1.2549  1.4700
12977TIP3   OH260345   5.392   1.571  12.974  0.0317  0.3416  0.5199
12977TIP3    H160346   5.433   1.505  12.919 -1.1107  1.0084 -1.2281
12977TIP3    H260347   5.308   1.534  12.998 -1.4281  1.7437 -1.9876
12978TIP3   OH260348   4.311   4.509   3.142 -0.4042 -0.1697 -0.3597
12978TIP3    H160349   4.267   4.546   3.066  0.6908  0.2382 -0.8125
12978TIP3    H260350   4.381   4.572   3.163 -0.7823 -0.1811  1.0921
12979TIP3   OH260351   1.733   4.433   0.269 -0.0479  0.4752  0.1296
12979TIP3    H160352   1.787   4.369   0.223  0.7435  0.2323  1.3565
12979TIP3    H260353   1.723   4.505   0.206  2.2604  0.8073  0.0523
12980TIP3   OH260354   0.462   3.559  11.741  0.0523  0.0869 -0.1745
12980TIP3    H160355   0.372   3.527  11.745  0.0654  0.1545  1.2708
12980TIP3    H260356   0.463   3.619  11.667 -1.1211  0.1873 -0.1244
12981TIP3   OH260357   4.165   4.866  13.678  0.0142 -0.0006  0.0228
12981TIP3    H160358   4.254   4.876  13.712  0.3820  1.5968 -1.3023
12981TIP3    H260359   4.121   4.948  13.702 -0.2312  0.4186 -1.7428
12982TIP3   OH260360   5.491   5.765   5.063 -0.2594  0.0906 -0.4258
12982TIP3    H160361   5.448   5.690   5.022  1.0690 -1.6200  1.1806
12982TIP3    H260362   5.430   5.793   5.131 -0.9671  0.8197 -1.3282
12983TIP3   OH260363   3.872   5.583  10.830 -0.5235 -1.0564  0.0891
12983TIP3    H160364   3.941   5.529  10.793  0.9683  0.4120  0.6168
12983TIP3    H260365   3.843   5.639  10.758  1.1939  0.6175  0.6280
12984TIP3   OH260366   0.267   2.156   0.826  0.0876 -0.0096 -0.2387
12984TIP3    H160367   0.266   2.175   0.920 -1.9580 -0.6700 -0.0771
12984TIP3    H260368   0.242   2.064   0.819 -1.9553  0.5782 -1.4932
12985TIP3   OH260369   0.036   2.428   1.099 -0.2360 -0.2032 -0.0497
12985TIP3    H160370  -0.007   2.490   1.041 -1.2369  0.0681  0.9519
12985TIP3    H260371   0.128   2.430   1.073 -0.7128 -0.3737 -1.8576
12986TIP3   OH260372   5.329   5.040  15.022  0.4887 -0.2106 -0.9425
12986TIP3    H160373   5.262   5.087  15.071 -0.4544 -1.2672 -1.1943
12986TIP3    H260374   5.295   5.034  14.933  0.3741 -1.7319 -0.8252
12987TIP3   OH260375   1.139   0.873   4.017  0.3205 -0.4466  0.1242
12987TIP3    H160376   1.051   0.886   4.052  0.7152  0.6522  0.7413
12987TIP3    H260377   1.183   0.820   4.083  0.6984  0.6234  0.7511
12988TIP3   OH260378   0.358   5.314  16.702 -0.8211  0.0006  0.0095
12988TIP3    H160379   0.404   5.398  16.713 -1.4603  0.2661  0.7083
12988TIP3    H260380   0.427   5.248  16.712 -0.1925  0.4405 -1.1736
12989TIP3   OH260381   2.563   1.880   1.331 -0.0745 -0.1270  0.0993
12989TIP3    H160382   2.647   1.920   1.307  0.6267 -1.5174  0.1181
12989TIP3    H260383   2.538   1.830   1.253  0.1967 -1.4236  0.8134
12990TIP3   OH260384   5.595   4.684  12.218  0.8165  0.0316 -0.3010
12990TIP3    H160385   5.653   4.696  12.143  0.7304  1.4500 -0.1722
12990TIP3    H260386   5.520   4.637  12.182  0.5485  1.1253 -1.2376
12991TIP3   OH260387   6.138   0.349   5.785 -0.1027  0.0851  0.4062
12991TIP3    H160388   6.055   0.378   5.748  1.0101  1.6786 -1.0272
12991TIP3    H260389   6.189   0.429   5.794  2.3716 -1.0964 -1.7057
12992TIP3   OH260390   1.547   4.651  11.734  0.0402 -0.3261 -0.3163
12992TIP3    H160391   1.601   4.631  11.810  0.2672 -0.9592 -0.6358
12992TIP3    H260392   1.461   4.673  11.770  0.3388  0.0959  0.1572
12993TIP3   OH260393   1.108   4.175  14.755 -0.3889 -0.3179  0.0879
12993TIP3    H160394   1.112   4.100  14.696 -0.0762  0.7275 -1.2899
12993TIP3    H260395   1.130   4.140  14.841 -0.5990 -1.8481 -0.4530
12994TIP3   OH260396   5.065   6.409   2.407  0.3577  0.3660 -0.0605
12994TIP3    H160397   5.063   6.454   2.322  0.4765 -0.4813 -0.5211
12994TIP3    H260398   5.139   6.349   2.401  0.8572  0.8514  0.9447
12995TIP3   OH260399   0.545   6.747  11.253  0.2162  0.3435  0.8075
12995TIP3    H160400   0.460   6.751  11.295  0.3322 -2.4147  1.4753
12995TIP3    H260401   0.608   6.765  11.323  0.2756 -0.1875  0.8897
12996TIP3   OH260402   2.616   0.128  14.990  0.6088 -0.0661  0.0657
12996TIP3    H160403   2.625   0.172  15.074  1.1644 -2.2442  1.2113
12996TIP3    H260404   2.706   0.118  14.957  0.3478  4.6962 -3.1178
12997TIP3   OH260405   1.508   4.966  14.722  0.5525  0.2760  0.1001
12997TIP3    H160406   1.470   5.033  14.666 -2.1116  1.1896  2.7335
12997TIP3    H260407   1.568   5.015  14.780  1.1518 -0.2059 -0.0971
12998TIP3   OH260408   2.139   1.972   5.494  0.3038  0.0099 -0.3774
12998TIP3    H160409   2.087   1.990   5.572  0.6600  0.4776 -0.2446
12998TIP3    H260410   2.228   1.997   5.518  0.4938 -0.2635 -0.7857
12999TIP3   OH260411   3.388   6.075   5.897  0.2281 -0.3132  0.5496
12999TIP3    H160412   3.378   5.979   5.896  0.3378 -0.3236  0.3778
12999TIP3    H260413   3.299   6.108   5.907 -0.1116 -0.3891 -1.7345
13000TIP3   OH260414   6.757   1.099  16.638  0.0271 -1.0778  0.3567
13000TIP3    H160415   6.785   1.117  16.728 -0.1814  1.0950  0.0324
13000TIP3    H260416   6.820   1.147  16.584  0.5059 -2.8319 -0.7258
13001TIP3   OH260417   1.503   4.481  13.189 -0.3126  0.3357  0.0732
13001TIP3    H160418   1.574   4.488  13.126 -0.0776 -0.4533  0.2356
13001TIP3    H260419   1.438   4.545  13.160 -1.3445 -1.6771 -2.4716
13002TIP3   OH260420   2.266   5.819   6.170  0.4396 -0.2232 -0.0334
13002TIP3    H160421   2.232   5.824   6.259 -1.9339 -2.6283 -0.6934
13002TIP3    H260422   2.189   5.826   6.113  1.8613  1.1203 -1.9588
13003TIP3   OH260423   2.804   4.117  15.807  0.5027  0.0707  0.1293
13003TIP3    H160424   2.734   4.085  15.750  0.6890  0.1294 -0.1299
13003TIP3    H260425   2.800   4.212  15.798  0.2358  0.1062  0.5635
13004TIP3   OH260426   2.998   1.723  13.318 -0.0156  0.9960 -0.6259
13004TIP3    H160427   3.062   1.654  13.299 -1.8122 -1.0966  0.4506
13004TIP3    H260428   2.928   1.709  13.254 -0.4479  1.7806 -0.3374
13005TIP3   OH260429   4.497   4.458  13.430  0.4919 -0.4806  0.2949
13005TIP3    H160430   4.492   4.521  13.358 -0.1741 -0.0062  0.7485
13005TIP3    H260431   4.412   4.413  13.428  1.2113 -1.9041 -0.4910
13006TIP3   OH260432   3.575   1.990   4.632 -0.1908 -0.3993 -0.2310
13006TIP3    H160433   3.631   1.984   4.709 -2.9994  1.4652  2.1549
13006TIP3    H260434   3.612   2.062   4.581 -0.4410  0.9390  1.3960
13007TIP3   OH260435   0.438   2.838  14.107  0.3773  0.4645 -0.1698
13007TIP3    H160436   0.348   2.870  14.116 -0.1411 -0.6414 -1.1332
13007TIP3    H260437   0.447   2.771  14.174  0.2078  0.0173 -0.5874
13008TIP3   OH260438   3.614   5.412   5.005  0.1193  0.6667 -0.3640
13008TIP3    H160439   3.690   5.469   5.012  0.0887  0.7478 -0.6818
13008TIP3    H260440   3.621   5.372   4.919 -1.3871  2.3988 -1.3587
13009TIP3   OH260441   2.373   1.688  15.150  0.0574 -0.9968 -0.5191
13009TIP3    H160442   2.313   1.682  15.225 -1.0049  1.0129 -1.1236
13009TIP3    H260443   2.377   1.781  15.130  2.7056 -1.1589 -1.1132
13010TIP3   OH260444   6.557   4.104   4.735 -0.0209 -0.1437 -0.5498
13010TIP3    H160445   6.557   4.197   4.713  0.6399  0.2830  1.1307
13010TIP3    H260446   6.485   4.068   4.683  0.0835  1.1767 -1.6830
13011TIP3   OH260447   5.830   5.880  11.423 -0.1779 -0.4179  0.1671
13011TIP3    H160448   5.747   5.927  11.427 -0.0570 -0.2979  2.1455
13011TIP3    H260449   5.851   5.877  11.330 -0.1390  3.4820 -0.1174
13012TIP3   OH260450   4.677   2.263   5.861  0.1346 -0.6776  0.0784
13012TIP3    H160451   4.739   2.194   5.838  0.5419 -0.0220 -0.8508
13012TIP3    H260452   4.732   2.337   5.888 -0.2982 -0.7621  1.2767
13013TIP3   OH260453   1.088   2.883  12.460  0.2717 -0.4966 -0.6590
13013TIP3    H160454   1.021   2.828  12.420  1.3166 -1.8799 -0.5476
13013TIP3    H260455   1.038   2.953  12.504 -1.2223 -2.3220  0.7194
13014TIP3   OH260456   6.327   0.800  16.938  0.6721  0.2917 -0.0960
13014TIP3    H160457   6.316   0.736  17.008  0.8093  1.4434  1.0024
13014TIP3    H260458   6.342   0.747  16.859 -1.1839 -1.0713  0.4122
13015TIP3   OH260459   4.696   5.972   0.435 -0.3162 -0.5723 -0.0730
13015TIP3    H160460   4.742   5.951   0.354  0.6663  3.6022 -0.8129
13015TIP3    H260461   4.613   6.010   0.406 -0.9474 -1.0896  0.9987
13016TIP3   OH260462   2.047   6.637   1.132  0.1041  0.2968  0.1212
13016TIP3    H160463   2.096   6.652   1.051 -2.5018  0.6366 -1.5351
13016TIP3    H260464   2.022   6.545   1.128 -1.1366  0.6225 -0.1843
13017TIP3   OH260465   5.803   6.252   6.446 -0.5643  0.0661  0.3928
13017TIP3    H160466   5.873   6.211   6.497 -1.0761 -1.5228 -0.1155
13017TIP3    H260467   5.744   6.180   6.425 -1.6273  1.1300 -0.3773
13018TIP3   OH260468   0.749   1.496   3.693  0.4829  0.0865  0.1467
13018TIP3    H160469   0.740   1.581   3.737 -0.5291  0.5345 -0.8581
13018TIP3    H260470   0.774   1.519   3.603  0.4328 -0.6912 -0.0663
13019TIP3   OH260471   5.210   6.417  12.260 -0.3688 -0.7961 -0.4029
13019TIP3    H160472   5.127   6.372  12.274 -0.3389 -0.7481 -0.0659
13019TIP3    H260473   5.231   6.456  12.345 -1.0115  0.9257 -0.9824
13020TIP3   OH260474   6.549   5.520   0.802 -0.1942 -0.7584 -0.2040
13020TIP3    H160475   6.544   5.586   0.733  2.7131 -0.3301 -0.1381
13020TIP3    H260476   6.471   5.535   0.856 -1.8416 -0.2400 -2.5683
13021TIP3   OH260477   1.453   4.537  11.177 -0.7257 -0.1044  0.5647
13021TIP3    H160478   1.374   4.569  11.134 -0.9564 -0.6410  0.5699
13021TIP3    H260479   1.421   4.492  11.255 -0.4875 -1.0197  0.1536
13022TIP3   OH260480   4.734   5.086  14.485  0.6079 -0.2665  0.5942
13022TIP3    H160481   4.698   5.134  14.560  1.5800  0.3031  0.7201
13022TIP3    H260482   4.820   5.126  14.471  0.2914 -0.0949 -1.0847
13023TIP3   OH260483   5.774   5.980  13.011 -0.8394 -0.1031 -0.0703
13023TIP3    H160484   5.830   5.961  12.936 -0.8890  1.0732 -0.4224
13023TIP3    H260485   5.686   5.989  12.974 -1.2679 -1.7343  0.4543
13024TIP3   OH260486   1.611   2.540   5.723  0.3320 -0.0758  0.3100
13024TIP3    H160487   1.691   2.554   5.672 -0.0359  1.4921  0.0948
13024TIP3    H260488   1.578   2.629   5.739  0.2981 -0.5064  3.0735
13025TIP3   OH260489   2.632   3.592  11.583 -0.2730 -0.1408  0.3463
13025TIP3    H160490   2.618   3.551  11.668 -0.5768 -0.8544 -0.0361
13025TIP3    H260491   2.613   3.522  11.520 -0.9501  0.6271 -0.3252
13026TIP3   OH260492   5.832   0.869  14.303 -0.0039 -0.1808 -1.0691
13026TIP3    H160493   5.766   0.810  14.338 -0.7420  1.4368  0.3892
13026TIP3    H260494   5.911   0.814  14.295 -0.5544 -1.2741  0.5484
13027TIP3   OH260495   6.615   6.646  11.622  0.2878  0.2707 -0.3412
13027TIP3    H160496   6.584   6.713  11.560 -0.7095  0.5468  0.4261
13027TIP3    H260497   6.650   6.577  11.566  2.0016  1.7123 -1.1473
13028TIP3   OH260498   1.949   0.566  10.980 -1.0089  0.2437 -0.5130
13028TIP3    H160499   2.029   0.520  10.955  0.9711  1.5118  2.7958
13028TIP3    H260500   1.957   0.652  10.939 -1.1897  0.0296 -1.0013
13029TIP3   OH260501   4.256   2.568  13.014  0.4531 -0.2189  0.7908
13029TIP3    H160502   4.240   2.662  13.013  0.5747 -0.1978  0.0090
13029TIP3    H260503   4.177   2.529  12.977  0.8835 -0.3353 -0.0248
13030TIP3   OH260504   5.824   2.899  14.548  0.3047  0.6818 -0.2325
13030TIP3    H160505   5.798   2.817  14.590  0.0139  1.5361  1.3540
13030TIP3    H260506   5.899   2.876  14.493  1.9907 -0.2044  2.2754
13031TIP3   OH260507   2.646   3.681  15.435  0.0180 -0.3774 -0.0947
13031TIP3    H160508   2.640   3.747  15.366  0.3628 -1.1796 -0.9086
13031TIP3    H260509   2.564   3.689  15.483  1.4858  3.1579  2.2015
13032TIP3   OH260510   0.406   3.294   3.029  0.2109  0.1278  0.3446
13032TIP3    H160511   0.421   3.347   2.950 -1.0741  0.6755  0.4341
13032TIP3    H260512   0.313   3.308   3.049 -0.5223 -3.1264 -0.3080
13033TIP3   OH260513   0.001   2.132  13.746  0.4654  0.0279 -0.0549
13033TIP3    H160514   0.026   2.176  13.664 -2.3601 -0.1629 -1.1088
13033TIP3    H260515   0.017   2.039  13.730  0.1353  0.0143 -0.3095
13034TIP3   OH260516   1.501   4.208  13.123 -0.1549 -0.3181  0.0075
13034TIP3    H160517   1.510   4.151  13.199 -0.8776 -0.0873  0.2737
13034TIP3    H260518   1.509   4.297  13.158  1.1172 -0.2362 -0.4270
13035TIP3   OH260519   2.342   1.580  12.581 -0.4194  0.4979  0.5644
13035TIP3    H160520   2.361   1.523  12.506  0.5800  0.5362  0.7761
13035TIP3    H260521   2.426   1.588  12.626 -0.5120  2.2590  0.4712
13036TIP3   OH260522   2.636   5.455   3.025  0.0741  0.3704  0.0247
13036TIP3    H160523   2.638   5.546   3.055 -1.2066 -0.3652  2.5803
13036TIP3    H260524   2.554   5.420   3.058  0.5978 -1.7861 -0.7913
13037TIP3   OH260525   0.791   0.831  14.385  0.4808  0.4270  0.1517
13037TIP3    H160526   0.711   0.867  14.422  1.3799  1.5576  1.0858
13037TIP3    H260527   0.763   0.789  14.303 -1.0165  0.9662  0.3516
13038TIP3   OH260528   4.017   2.241  17.005  0.8229 -0.3054  0.3831
13038TIP3    H160529   4.025   2.145  17.003  0.2943 -0.3603  0.5717
13038TIP3    H260530   3.984   2.264  16.918  1.4176 -0.2439  0.1720
13039TIP3   OH260531   2.155   1.096   0.022  0.2022  0.1305 -0.1020
13039TIP3    H160532   2.119   1.032   0.084  1.4668 -0.1804  0.3447
13039TIP3    H260533   2.136   1.059  -0.064 -0.7761  0.1201  0.1092
13040TIP3   OH260534   0.836   2.161   5.696  0.0396  1.0471  0.0975
13040TIP3    H160535   0.774   2.105   5.742 -0.0409  0.6106 -0.5392
13040TIP3    H260536   0.919   2.113   5.699  0.2073  1.3453  0.4039
13041TIP3   OH260537   2.089   4.574   4.164  0.0791  0.4012 -0.2335
13041TIP3    H160538   2.091   4.519   4.242  0.3350 -0.3581 -0.7595
13041TIP3    H260539   2.127   4.657   4.191 -0.9520  0.5678  0.7570
13042TIP3   OH260540   1.406   6.746  14.278  1.0455  0.1711  0.2861
13042TIP3    H160541   1.371   6.816  14.334 -0.5269 -0.2644 -0.1087
13042TIP3    H260542   1.346   6.742  14.204  2.4241 -0.0703 -0.8767
13043TIP3   OH260543   3.010   2.357   3.000 -0.0055  0.2663 -0.2053
13043TIP3    H160544   3.011   2.273   3.044  0.6730  0.0064 -0.6973
13043TIP3    H260545   2.997   2.421   3.070  0.9873 -0.1400  0.3583
13044TIP3   OH260546   3.930   6.077  10.517 -0.6775 -0.6793 -0.3385
13044TIP3    H160547   4.010   6.086  10.569 -1.1253  0.9672  0.1435
13044TIP3    H260548   3.895   6.166  10.512 -2.4913 -1.3545 -0.5334
13045TIP3   OH260549   6.325   6.790  16.694  0.3478 -0.2129  0.0891
13045TIP3    H160550   6.351   6.703  16.725  2.9499  0.8419  1.1152
13045TIP3    H260551   6.369   6.800  16.610  1.2956  0.6590  0.6744
13046TIP3   OH260552   1.404   1.456   3.613 -0.2444 -0.7929  0.3262
13046TIP3    H160553   1.398   1.492   3.702  0.7097  2.9061 -0.9256
13046TIP3    H260554   1.314   1.455   3.582 -0.6327 -2.4347  1.3515
13047TIP3   OH260555   4.563   5.198  11.348  0.2958  0.2022  0.3901
13047TIP3    H160556   4.622   5.187  11.423  1.2360 -1.2214 -0.4935
13047TIP3    H260557   4.616   5.174  11.272 -0.8148  0.9950 -0.6886
13048TIP3   OH260558   1.364   4.298  15.477 -0.3833 -0.2095  0.0726
13048TIP3    H160559   1.304   4.223  15.483 -0.1173 -0.5984 -1.6566
13048TIP3    H260560   1.448   4.263  15.506 -0.0729 -0.8417 -1.5037
13049TIP3   OH260561   0.435   0.107  15.334  0.0489  0.1088  0.6388
13049TIP3    H160562   0.453   0.169  15.264 -1.0320  0.9181  1.0355
13049TIP3    H260563   0.478   0.026  15.307 -0.4866  0.3517 -1.0318
13050TIP3   OH260564   4.304   4.805   4.008 -0.1371  0.0590  0.5181
13050TIP3    H160565   4.379   4.770   3.961  0.1765 -0.5294  1.4388
13050TIP3    H260566   4.279   4.736   4.070 -0.2059  1.0069  1.5777
13051TIP3   OH260567   4.869   0.010   2.668 -0.1464 -0.0237  0.0113
13051TIP3    H160568   4.882  -0.073   2.715  1.7118 -1.5256 -2.8366
13051TIP3    H260569   4.791  -0.005   2.615 -0.7148  0.6780  0.6302
13052TIP3   OH260570   3.505   2.363  16.064  0.3400 -0.0641  0.5880
13052TIP3    H160571   3.507   2.438  16.123  0.2946 -0.0637  0.5890
13052TIP3    H260572   3.524   2.288  16.119 -0.4771 -0.1578  0.7563
13053TIP3   OH260573   6.178   5.346   1.416  0.2813 -0.3191 -0.0763
13053TIP3    H160574   6.159   5.388   1.501  1.7722  1.3037 -0.4694
13053TIP3    H260575   6.111   5.380   1.357  0.4544  0.1732  0.0059
13054TIP3   OH260576   0.073   5.190   5.878 -0.1456  0.2483  0.1968
13054TIP3    H160577   0.034   5.239   5.950 -0.1683  0.7039 -0.1196
13054TIP3    H260578   0.157   5.234   5.862  1.4642 -1.8449  2.1292
13055TIP3   OH260579   0.252   5.520  14.627  0.2840 -0.1939  0.4001
13055TIP3    H160580   0.230   5.464  14.701 -0.2715 -1.3385 -0.5993
13055TIP3    H260581   0.243   5.464  14.551  0.9310  0.9367 -0.5398
13056TIP3   OH260582   0.113   5.131  13.600 -0.6835 -0.8415 -0.7674
13056TIP3    H160583   0.197   5.103  13.638 -0.1707  0.2531 -1.0388
13056TIP3    H260584   0.129   5.222  13.573 -2.1556 -0.4006 -0.2420
13057TIP3   OH260585   3.098   4.840   4.355  0.6410  0.2323 -0.2482
13057TIP3    H160586   3.072   4.749   4.345  0.5112  0.0857  1.1363
13057TIP3    H260587   3.147   4.861   4.276  0.0318 -0.8041 -0.9242
13058TIP3   OH260588   5.413   4.599   2.249 -0.7904 -0.2757  0.0899
13058TIP3    H160589   5.470   4.534   2.208 -0.8679  0.1046 -0.6199
13058TIP3    H260590   5.473   4.663   2.287 -0.7419 -0.0723 -0.3333
13059TIP3   OH260591   2.720   4.069   4.754 -0.2793 -0.1238 -0.0940
13059TIP3    H160592   2.790   4.132   4.771 -0.2102  0.3672 -1.9305
13059TIP3    H260593   2.709   4.022   4.836  1.8831  0.0913  0.3682
13060TIP3   OH260594   5.308   6.188  15.681 -0.7327  0.1563 -0.2790
13060TIP3    H160595   5.272   6.212  15.596 -0.6468 -2.2267 -1.0546
13060TIP3    H260596   5.324   6.272  15.725  0.7665  1.5589 -3.2215
13061TIP3   OH260597   3.549   4.910   5.624 -0.2785 -0.4218 -0.1103
13061TIP3    H160598   3.569   4.882   5.713  0.7327  2.2705  0.5965
13061TIP3    H260599   3.454   4.923   5.625 -0.1481  0.6081  0.9253
13062TIP3   OH260600   4.413   2.519  16.050 -0.2814  0.2618 -0.1042
13062TIP3    H160601   4.370   2.592  16.004  2.5906  1.4171 -1.1657
13062TIP3    H260602   4.425   2.551  16.139 -0.4964  0.4102 -0.1270
13063TIP3   OH260603   1.824   0.997  11.790 -0.6859  0.0093  0.1718
13063TIP3    H160604   1.914   0.992  11.820  0.5857  0.7400 -3.0807
13063TIP3    H260605   1.816   0.926  11.726 -1.3105  1.9133 -1.9924
13064TIP3   OH260606   3.306   4.347  16.596 -0.0589  0.1897  0.4914
13064TIP3    H160607   3.351   4.359  16.512  0.0734  1.3129  0.7178
13064TIP3    H260608   3.231   4.291  16.574 -0.3077  0.8689 -0.4829
13065TIP3   OH260609   3.843   4.479   1.065  0.0523 -0.6374  0.0728
13065TIP3    H160610   3.840   4.517   0.977 -1.6548  1.1672  0.8368
13065TIP3    H260611   3.937   4.470   1.084  0.4479 -0.5820 -1.7258
13066TIP3   OH260612   0.210   2.557   5.711  0.5567 -0.1453 -0.0891
13066TIP3    H160613   0.238   2.633   5.659  0.3861  0.0603  0.1148
13066TIP3    H260614   0.274   2.489   5.691  0.9663  0.1908  0.0622
13067TIP3   OH260615   5.886   3.284  16.029  0.0887  0.6929  0.5700
13067TIP3    H160616   5.867   3.277  15.935  0.3260  2.2842  0.3704
13067TIP3    H260617   5.840   3.210  16.069  1.9881 -1.5279 -1.0608
13068TIP3   OH260618   0.195   3.860  14.026  0.2390  0.0162  0.7692
13068TIP3    H160619   0.137   3.845  14.101  0.2752 -0.3722  0.7199
13068TIP3    H260620   0.278   3.885  14.065  0.0452  0.5583  0.8420
13069TIP3   OH260621   4.189   2.161   6.065 -0.5033  0.2554  0.5039
13069TIP3    H160622   4.255   2.115   6.013 -1.1632 -1.4527  1.1155
13069TIP3    H260623   4.181   2.247   6.023  0.6090 -0.2554 -0.8229
13070TIP3   OH260624   5.128   3.189  13.444  0.3466 -0.5238 -0.2221
13070TIP3    H160625   5.132   3.171  13.538  0.9036 -3.0309 -0.6671
13070TIP3    H260626   5.044   3.152  13.416  0.8940 -1.2448 -0.9584
13071TIP3   OH260627   2.895   4.119  15.384 -0.0346  1.3576 -0.3202
13071TIP3    H160628   2.893   4.050  15.450  2.0301  2.3158  0.8337
13071TIP3    H260629   2.951   4.084  15.315 -0.6332  1.1092 -0.6871
13072TIP3   OH260630   3.449   3.110   1.660  0.0226  0.3195  0.4170
13072TIP3    H160631   3.461   3.204   1.668  0.7521  0.0846  2.4420
13072TIP3    H260632   3.368   3.092   1.708  0.0553 -0.1425  0.3037
13073TIP3   OH260633   3.447   6.609  13.403  0.1533  0.5227  0.6971
13073TIP3    H160634   3.408   6.626  13.317  0.4014 -0.5569  0.3685
13073TIP3    H260635   3.489   6.692  13.426 -0.3318  0.9750  0.0046
13074TIP3   OH260636   0.358   4.891   5.267 -0.0919 -0.0145 -0.3546
13074TIP3    H160637   0.437   4.935   5.297 -0.7777  0.9161  0.1358
13074TIP3    H260638   0.342   4.822   5.331  1.5528 -1.7156 -1.6666
13075TIP3   OH260639   0.616   1.750   2.566 -0.7112  0.3495  0.4225
13075TIP3    H160640   0.620   1.840   2.534  1.0621  0.5611  1.1135
13075TIP3    H260641   0.696   1.710   2.535 -1.1622 -0.8042  0.6975
13076TIP3   OH260642   4.901   3.790  17.220  0.4115  0.2466 -0.3082
13076TIP3    H160643   4.947   3.822  17.297  1.5915 -0.6023 -0.6312
13076TIP3    H260644   4.932   3.846  17.149  0.0881  0.4000 -0.3244
13077TIP3   OH260645   6.252   1.350   0.650  0.7279  0.2277 -0.2442
13077TIP3    H160646   6.224   1.371   0.560  0.9627  0.6123 -0.2313
13077TIP3    H260647   6.246   1.434   0.696  0.2870 -0.0397  0.1873
13078TIP3   OH260648   3.886   6.716  16.353 -0.2605 -0.4091 -0.0577
13078TIP3    H160649   3.846   6.782  16.295 -0.1225 -0.1110  0.1850
13078TIP3    H260650   3.811   6.667  16.388 -0.3049 -1.2172 -1.2156
13079TIP3   OH260651   2.911   0.685   3.091  0.0006 -0.3310  0.2453
13079TIP3    H160652   2.995   0.732   3.091 -0.0286 -0.2488  1.2809
13079TIP3    H260653   2.896   0.663   2.999  0.9553  0.0140 -0.0100
13080TIP3   OH260654   2.951   2.595  11.670 -0.1673 -0.3683  0.0747
13080TIP3    H160655   2.975   2.687  11.680 -1.2277 -0.0774 -0.0099
13080TIP3    H260656   2.879   2.596  11.607 -0.6779 -1.1841  0.6315
13081TIP3   OH260657   5.463   4.550   5.551 -0.3431 -0.3106 -0.0214
13081TIP3    H160658   5.481   4.537   5.458  0.9127 -1.0608  0.2983
13081TIP3    H260659   5.526   4.494   5.596 -0.1154  0.9471  1.3106
13082TIP3   OH260660   2.783   0.826  12.931  0.0150 -0.7282  1.1160
13082TIP3    H160661   2.700   0.778  12.938 -0.0097 -0.6884  1.0992
13082TIP3    H260662   2.839   0.786  12.998 -0.0906 -0.6080  1.2768
13083TIP3   OH260663   1.718   6.469  14.628 -0.4433  0.7534 -0.0821
13083TIP3    H160664   1.663   6.466  14.706  1.1497 -0.9742  1.0804
13083TIP3    H260665   1.657   6.468  14.555 -1.9769 -0.1531  1.1515
13084TIP3   OH260666   1.269   1.005   3.296 -0.8150 -0.2464 -0.0915
13084TIP3    H160667   1.249   0.918   3.262 -0.0256 -0.0442 -1.1154
13084TIP3    H260668   1.355   0.996   3.337 -1.5667 -0.3828  1.5118
13085TIP3   OH260669   4.098   5.366  14.284  0.5474 -0.5882 -0.3931
13085TIP3    H160670   4.004   5.382  14.275  0.7416  1.2902  0.2970
13085TIP3    H260671   4.136   5.403  14.204  0.9237  1.7926  0.7808
13086TIP3   OH260672   4.662   1.650   4.537 -0.1237  0.0375  0.2557
13086TIP3    H160673   4.694   1.619   4.621  0.0674 -0.6381 -0.0551
13086TIP3    H260674   4.739   1.687   4.494  0.0845 -0.8509 -0.1627
13087TIP3   OH260675   3.785   5.774  16.838 -0.2170  0.0022 -0.0345
13087TIP3    H160676   3.849   5.784  16.908  0.4435  0.3517 -0.6722
13087TIP3    H260677   3.741   5.859  16.833 -0.0194  0.0942 -0.2654
13088TIP3   OH260678   3.193   4.755   1.180 -0.2914 -0.0243  0.0689
13088TIP3    H160679   3.245   4.758   1.260 -1.2049  0.9023  0.6461
13088TIP3    H260680   3.252   4.715   1.115  0.3942 -0.9961  1.2306
13089TIP3   OH260681   6.773   1.640   4.028 -0.2663  0.2341 -0.4349
13089TIP3    H160682   6.822   1.593   4.096  0.3401  1.3415 -0.0713
13089TIP3    H260683   6.692   1.667   4.071  0.5123  1.7203  0.1610
13090TIP3   OH260684   1.146   6.489   3.936 -0.9018  0.1438 -0.4629
13090TIP3    H160685   1.125   6.576   3.969 -2.8813  0.3892 -2.1249
13090TIP3    H260686   1.068   6.437   3.956 -0.0172 -1.0830 -0.1080
13091TIP3   OH260687   0.714   5.258  11.942 -0.1763  0.3892  0.0401
13091TIP3    H160688   0.677   5.219  11.863 -3.7301  1.2496  1.1101
13091TIP3    H260689   0.792   5.205  11.960  0.1740 -0.5198 -3.3632
13092TIP3   OH260690   4.376   1.571  11.817 -0.2685  0.0280 -0.1122
13092TIP3    H160691   4.307   1.543  11.758 -1.7034  0.7541  1.1484
13092TIP3    H260692   4.349   1.538  11.903  1.1931 -0.0525  0.3442
13093TIP3   OH260693   0.937   3.086  10.638 -0.8138 -0.5059 -0.7506
13093TIP3    H160694   0.848   3.122  10.643 -0.8794 -0.7555 -0.0411
13093TIP3    H260695   0.953   3.075  10.544 -1.2012  0.3519 -0.9273
13094TIP3   OH260696   2.557   6.104   3.754 -0.8884 -0.1382 -0.6540
13094TIP3    H160697   2.647   6.122   3.779 -1.1392  1.2167 -0.6509
13094TIP3    H260698   2.516   6.070   3.834 -0.5785  0.0251 -0.4227
13095TIP3   OH260699   3.837   0.958  13.269 -0.0376 -0.0074 -0.1772
13095TIP3    H160700   3.759   0.906  13.250  0.5004 -0.8989 -0.0220
13095TIP3    H260701   3.858   0.936  13.360 -0.0418  0.8177  0.0297
13096TIP3   OH260702   2.139   3.028  16.792 -0.1901  0.3054  0.2205
13096TIP3    H160703   2.156   2.933  16.796 -1.9017 -0.0634 -0.4514
13096TIP3    H260704   2.224   3.066  16.767  0.7994 -0.9203  1.5556
13097TIP3   OH260705   0.419   0.723  14.185  0.2174  0.3591  0.7398
13097TIP3    H160706   0.436   0.677  14.267  1.0237 -1.2242 -0.2682
13097TIP3    H260707   0.327   0.706  14.167  0.5949 -1.3087  0.1731
13098TIP3   OH260708   6.472   4.665   3.238  0.3713 -0.1015  0.1484
13098TIP3    H160709   6.385   4.633   3.260  0.2697  0.1797  0.1568
13098TIP3    H260710   6.531   4.596   3.269  0.2392  0.3100  1.3917
13099TIP3   OH260711   5.771   2.803  16.180  0.4005  0.3870 -1.0510
13099TIP3    H160712   5.687   2.813  16.225  0.9626 -0.9758  0.4039
13099TIP3    H260713   5.801   2.892  16.164 -0.4557  0.9034  0.1105
13100TIP3   OH260714   5.413   3.492  14.242  0.1611 -0.6460  0.0755
13100TIP3    H160715   5.388   3.565  14.186 -0.2890 -0.9495 -0.1215
13100TIP3    H260716   5.348   3.490  14.312  0.2142 -0.8112  0.1224
13101TIP3   OH260717   0.295   2.498   3.097  0.4492  0.9088 -0.3136
13101TIP3    H160718   0.296   2.504   3.192 -2.0854  0.2693 -0.1685
13101TIP3    H260719   0.361   2.432   3.076  0.7893  0.7936  1.0080
13102TIP3   OH260720   3.905   0.503  10.379  0.0632 -0.7309 -0.4423
13102TIP3    H160721   3.818   0.466  10.362 -1.2327  0.9319  1.9030
13102TIP3    H260722   3.887   0.592  10.410  2.5757 -0.4938  0.5689
13103TIP3   OH260723   3.349   6.162  12.230 -0.5547 -0.1413 -0.0100
13103TIP3    H160724   3.370   6.069  12.232 -1.1231 -0.2921  2.8041
13103TIP3    H260725   3.305   6.175  12.146  0.6228 -2.1155 -0.9989
13104TIP3   OH260726   0.872   3.950  14.800  0.3752  0.7745  0.3363
13104TIP3    H160727   0.889   3.983  14.888  3.4939 -0.3675  0.2806
13104TIP3    H260728   0.951   3.970  14.751 -1.3475  1.5086 -2.3123
13105TIP3   OH260729   0.518   1.512   0.519 -0.1202 -0.6455  0.4404
13105TIP3    H160730   0.575   1.576   0.476  1.9114 -2.9466 -0.5408
13105TIP3    H260731   0.513   1.541   0.610  1.3672  0.4820  0.2027
13106TIP3   OH260732   4.842   5.754   5.536  0.5732  0.7029 -0.4863
13106TIP3    H160733   4.902   5.686   5.505 -0.0749  0.7177 -1.8302
13106TIP3    H260734   4.817   5.802   5.458 -1.4199  0.5149 -0.0189
13107TIP3   OH260735   5.952   6.475  16.718  0.1138 -0.1287 -0.6158
13107TIP3    H160736   5.897   6.543  16.679 -0.6305 -1.3520 -1.7994
13107TIP3    H260737   6.017   6.456  16.650  1.2071  0.3732  0.2663
13108TIP3   OH260738   4.513   4.731   2.405 -0.4946  0.3624  1.1527
13108TIP3    H160739   4.515   4.735   2.501  2.3872  0.1361  1.1750
13108TIP3    H260740   4.479   4.816   2.378  2.0419  1.8949  2.4032
13109TIP3   OH260741   1.511   0.588  13.411 -0.0468 -0.4508  0.3262
13109TIP3    H160742   1.578   0.546  13.464  0.3725  1.0513  1.0382
13109TIP3    H260743   1.440   0.525  13.407  1.2122 -1.9031 -0.0767
13110TIP3   OH260744   1.925   5.250  16.573 -0.2052 -0.2462  0.3782
13110TIP3    H160745   1.940   5.276  16.482 -0.8020  0.2309  0.4090
13110TIP3    H260746   1.992   5.296  16.622 -1.0380  1.0015  0.3895
13111TIP3   OH260747   1.869   4.209  15.912 -0.2006  0.1751 -0.6103
13111TIP3    H160748   1.867   4.219  16.007 -1.0265  1.8434 -0.7606
13111TIP3    H260749   1.813   4.133  15.895  0.6125 -0.6442  0.2703
13112TIP3   OH260750   4.576   2.955   3.913  0.2166  0.0461  0.3677
13112TIP3    H160751   4.546   2.869   3.940  0.5486 -0.8115 -1.7661
13112TIP3    H260752   4.663   2.940   3.876  0.5347  1.3989  0.5002
13113TIP3   OH260753   2.943   5.896  16.944 -0.1805  0.1110 -0.4721
13113TIP3    H160754   2.868   5.924  16.997  0.3630  1.1951 -0.2504
13113TIP3    H260755   2.956   5.804  16.967  0.0033  0.5280  1.2417
13114TIP3   OH260756   6.736   2.325   4.864 -0.0178 -0.4245  0.6203
13114TIP3    H160757   6.702   2.411   4.887 -1.6084 -0.7300 -0.4542
13114TIP3    H260758   6.717   2.270   4.940 -1.0821 -0.3612  0.4072
13115TIP3   OH260759   1.619   4.267  13.532 -0.2019 -0.1438 -0.6363
13115TIP3    H160760   1.643   4.306  13.615 -2.8217 -2.4329  1.4007
13115TIP3    H260761   1.701   4.237  13.494  1.0173  0.6022  1.3085
13116TIP3   OH260762   4.306   2.197   1.917 -0.3470 -0.1202 -0.2476
13116TIP3    H160763   4.254   2.173   1.994  1.1047  0.8112  1.0912
13116TIP3    H260764   4.317   2.291   1.923 -0.4619  0.0164 -1.8028
13117TIP3   OH260765   2.734   3.076  13.328  0.0234  0.0869 -0.0052
13117TIP3    H160766   2.665   3.010  13.335  0.8499 -0.9855 -1.4379
13117TIP3    H260767   2.689   3.159  13.342 -1.7384 -0.5261 -1.6801
13118TIP3   OH260768   5.258   3.811   4.876 -0.5648 -0.7135  0.3969
13118TIP3    H160769   5.266   3.906   4.883  1.6883 -0.8204 -0.1024
13118TIP3    H260770   5.206   3.797   4.797  0.9479  0.1245 -0.8061
13119TIP3   OH260771   0.999   1.232   4.414  0.3606  0.5420  0.2886
13119TIP3    H160772   1.047   1.309   4.384 -1.5804  1.2442 -1.2923
13119TIP3    H260773   0.936   1.265   4.478  0.5298  0.0079  0.7440
13120TIP3   OH260774   0.172   0.559   0.335  0.3039 -0.3780 -0.2225
13120TIP3    H160775   0.098   0.578   0.392  0.6179  1.1062 -0.2686
13120TIP3    H260776   0.186   0.640   0.285  1.5195 -0.8508 -0.7098
13121TIP3   OH260777   0.190   6.146   0.028  0.1512  0.1682 -0.6610
13121TIP3    H160778   0.116   6.200   0.056  0.0241 -0.7991  0.9480
13121TIP3    H260779   0.156   6.095  -0.046 -1.1674 -1.0383  0.7064
13122TIP3   OH260780   5.905   0.582   1.832 -0.1101  0.5784  0.1148
13122TIP3    H160781   5.820   0.572   1.789  0.7587 -0.6257 -1.4241
13122TIP3    H260782   5.899   0.526   1.910 -0.1500 -0.9970 -0.9636
13123TIP3   OH260783   1.822   1.303  13.144  0.0706  0.3458  0.2938
13123TIP3    H160784   1.874   1.258  13.079  1.3144  2.2612 -0.1161
13123TIP3    H260785   1.818   1.243  13.219  0.2045 -1.0895 -0.8213
13124TIP3   OH260786   1.214   1.272   2.946 -0.1814  0.3132 -0.8146
13124TIP3    H160787   1.285   1.209   2.960  0.2804  0.6669 -1.4712
13124TIP3    H260788   1.150   1.252   3.014 -0.0633 -0.8899 -1.0374
13125TIP3   OH260789   3.306   6.774   4.429 -1.0887  0.1566  0.5848
13125TIP3    H160790   3.236   6.830   4.463 -3.3431 -1.5286 -0.9791
13125TIP3    H260791   3.280   6.685   4.454  1.1482 -0.4563  0.9478
13126TIP3   OH260792   4.310   6.423  13.404 -0.1069 -0.3000 -0.3980
13126TIP3    H160793   4.238   6.367  13.375  0.0713 -1.0531  0.5754
13126TIP3    H260794   4.338   6.385  13.487  1.0404  0.3281 -0.4824
13127TIP3   OH260795   3.005   0.506  15.285  0.3218 -0.3853 -0.4567
13127TIP3    H160796   3.045   0.442  15.227 -0.7851 -1.2334 -0.3063
13127TIP3    H260797   3.068   0.579  15.287  1.2412 -1.1340 -1.2183
13128TIP3   OH260798   2.121   4.005  13.755  0.0747  0.1483 -0.2003
13128TIP3    H160799   2.179   3.929  13.753  0.2096  0.2640 -0.8850
13128TIP3    H260800   2.167   4.068  13.812 -0.9098 -0.9397  1.9069
13129TIP3   OH260801   3.911   1.630  15.322 -0.3848  0.0181  0.1871
13129TIP3    H160802   3.824   1.655  15.291 -0.9677 -1.1775  0.7842
13129TIP3    H260803   3.929   1.690  15.395  0.5289  2.1193 -1.6525
13130TIP3   OH260804   4.014   5.593  16.397  0.4252  0.6041 -0.3506
13130TIP3    H160805   3.961   5.515  16.384  0.9722  0.4188 -1.5630
13130TIP3    H260806   3.951   5.665  16.398  0.1751  0.4654 -2.5249
13131TIP3   OH260807   5.584   3.509  16.380  0.2660 -0.5065 -0.3016
13131TIP3    H160808   5.498   3.469  16.368 -0.4699  0.5486  1.1783
13131TIP3    H260809   5.619   3.519  16.291 -1.8179  0.4980 -1.0545
13132TIP3   OH260810   2.004   3.521   2.044  0.5024 -0.4587  0.1895
13132TIP3    H160811   2.024   3.480   2.129  1.6113  0.0307  0.1825
13132TIP3    H260812   2.077   3.581   2.029 -0.3137  0.3799 -0.5360
13133TIP3   OH260813   6.711   5.405   1.489 -0.0288 -0.4622  0.0535
13133TIP3    H160814   6.620   5.416   1.463 -0.3773 -2.5052  0.2088
13133TIP3    H260815   6.708   5.338   1.558  1.6307 -1.0537 -0.3951
13134TIP3   OH260816   0.501   1.327   2.683  0.2168 -0.1162 -0.1945
13134TIP3    H160817   0.493   1.375   2.601  0.5406  0.7503  0.2624
13134TIP3    H260818   0.454   1.381   2.747 -0.0922 -0.8125  0.1814
13135TIP3   OH260819   2.335   2.657   1.209 -0.3641  0.0964  0.0707
13135TIP3    H160820   2.418   2.685   1.246 -0.6028  0.4896  0.3245
13135TIP3    H260821   2.270   2.683   1.274 -0.4235 -3.4897  1.6599
13136TIP3   OH260822   2.217   4.296   5.613 -0.0212  0.0025 -0.3874
13136TIP3    H160823   2.219   4.201   5.602  1.7496 -0.0615  0.2724
13136TIP3    H260824   2.132   4.322   5.576 -0.8903 -1.9028  0.1335
13137TIP3   OH260825   5.888   1.282  16.720  0.3160 -0.3600 -0.3892
13137TIP3    H160826   5.968   1.279  16.668  0.1021  2.3030 -1.0227
13137TIP3    H260827   5.820   1.307  16.657 -0.6522 -0.7170  0.4858
13138TIP3   OH260828   4.629   1.192  15.000 -0.6087 -0.1280  0.3040
13138TIP3    H160829   4.671   1.243  15.070 -1.0252  2.6650 -1.3356
13138TIP3    H260830   4.700   1.173  14.938 -0.6864 -0.5195  0.3329
13139TIP3   OH260831   5.391   2.348  16.689  0.0966 -0.0143  0.0915
13139TIP3    H160832   5.364   2.262  16.721 -0.1465  0.0217 -0.0212
13139TIP3    H260833   5.429   2.391  16.765  1.1036 -0.5826 -0.0653
13140TIP3   OH260834   2.009   1.282   4.708  0.3249  0.2645  0.5520
13140TIP3    H160835   1.957   1.354   4.743  0.8963  0.3894  1.1801
13140TIP3    H260836   2.094   1.291   4.752  0.6542 -0.3273  0.0507
13141TIP3   OH260837   3.890   6.727  12.983 -0.0754  0.0083 -0.7457
13141TIP3    H160838   3.938   6.808  12.999  0.0943 -0.3612  0.7403
13141TIP3    H260839   3.799   6.755  12.971  0.2367  0.5585 -2.0118
13142TIP3   OH260840   6.698   5.548  16.632  0.0080  0.2895 -0.2688
13142TIP3    H160841   6.747   5.609  16.576  0.4991 -1.3098 -1.6555
13142TIP3    H260842   6.748   5.547  16.714 -0.5546  2.4336  0.1803
13143TIP3   OH260843   2.249   0.270   4.442 -0.1457  0.1059 -0.5339
13143TIP3    H160844   2.224   0.301   4.529  0.8491  0.7685 -0.4613
13143TIP3    H260845   2.340   0.240   4.453  1.2975  3.3799 -1.9966
13144TIP3   OH260846   4.372   4.842  10.556  0.1984  0.0604 -0.2154
13144TIP3    H160847   4.462   4.821  10.581 -0.4897 -0.1930  2.3419
13144TIP3    H260848   4.318   4.790  10.616 -1.6778  0.0590 -1.8118
13145TIP3   OH260849   4.369   0.769   5.076  0.1076  0.3894 -0.2758
13145TIP3    H160850   4.411   0.854   5.071 -0.6392  0.7124 -1.4751
13145TIP3    H260851   4.281   0.783   5.041  0.1825 -1.0004 -1.1121
13146TIP3   OH260852   0.195   5.781  11.003  0.6101 -0.3051  0.7884
13146TIP3    H160853   0.124   5.845  11.006  1.8428  1.2117 -0.9027
13146TIP3    H260854   0.204   5.759  10.911  0.2500 -2.9655  1.3193
13147TIP3   OH260855   4.578   5.171   1.425 -0.6151  0.2818 -0.2831
13147TIP3    H160856   4.645   5.205   1.485 -0.2766  2.9871 -2.0122
13147TIP3    H260857   4.495   5.195   1.467 -0.5292 -1.5400  1.0275
13148TIP3   OH260858   3.683   4.889  13.725  0.1281  0.0857  0.0913
13148TIP3    H160859   3.604   4.842  13.699  0.0736  0.5506 -0.5974
13148TIP3    H260860   3.715   4.840  13.801 -1.4158  0.5147  1.0812
13149TIP3   OH260861   2.742   3.477  14.341  0.2203 -0.3107 -0.3092
13149TIP3    H160862   2.801   3.503  14.270 -0.2540  1.2451 -0.1817
13149TIP3    H260863   2.790   3.410  14.389  0.8901 -0.8005 -1.6090
13150TIP3   OH260864   6.365   5.327   0.029 -0.1619  0.1755  0.2022
13150TIP3    H160865   6.360   5.278  -0.054 -0.2383 -1.3116  1.0442
13150TIP3    H260866   6.454   5.311   0.060 -0.7473 -0.9723  1.3723
13151TIP3   OH260867   1.366   2.934  16.408 -0.3016 -0.3088  0.1969
13151TIP3    H160868   1.275   2.911  16.429 -0.0385 -0.5275  1.1842
13151TIP3    H260869   1.411   2.931  16.493  0.0944  2.3223  0.1880
13152TIP3   OH260870   1.235   4.576   4.245  0.0801  0.0162 -0.3318
13152TIP3    H160871   1.263   4.618   4.326 -0.2245  0.9810 -0.7059
13152TIP3    H260872   1.317   4.551   4.202  0.2777  0.3018 -0.1287
13153TIP3   OH260873   0.348   4.021   1.226 -0.0286  0.4011 -0.0661
13153TIP3    H160874   0.310   3.979   1.149 -0.5180  0.8452 -0.0720
13153TIP3    H260875   0.274   4.034   1.285 -0.5850  4.2443 -1.3785
13154TIP3   OH260876   1.604   2.783  14.935 -0.4454 -0.0461 -0.9814
13154TIP3    H160877   1.610   2.792  15.030  0.2432  0.3810 -1.0577
13154TIP3    H260878   1.531   2.839  14.910 -0.7383 -0.2936 -0.6887
13155TIP3   OH260879   6.755   3.865  13.538  0.7921  0.3355  0.3765
13155TIP3    H160880   6.680   3.881  13.597  0.4908 -3.4293  1.2775
13155TIP3    H260881   6.831   3.897  13.587  0.1078  1.2770  0.8585
13156TIP3   OH260882   2.124   4.864   4.022 -0.4740  0.0804  0.3159
13156TIP3    H160883   2.119   4.845   4.116  1.9471  2.0919  0.9525
13156TIP3    H260884   2.200   4.921   4.013 -0.6068 -0.0801 -2.9134
13157TIP3   OH260885   4.837   3.193   0.693 -0.3394 -0.2697  0.1738
13157TIP3    H160886   4.894   3.117   0.686  0.5571  0.3548  0.4367
13157TIP3    H260887   4.758   3.169   0.646  0.1755 -1.1292 -0.2700
13158TIP3   OH260888   1.773   3.673  13.934 -0.5062 -0.3641 -0.2487
13158TIP3    H160889   1.721   3.598  13.905 -1.5373  1.1205 -2.4303
13158TIP3    H260890   1.858   3.660  13.893 -0.0107 -1.3171  1.0073
13159TIP3   OH260891   3.013   0.097   4.323 -0.2045  0.6791  0.3044
13159TIP3    H160892   3.056   0.028   4.274 -0.9609  1.2108 -1.1639
13159TIP3    H260893   2.923   0.065   4.336 -0.8184  1.7010 -1.1523
13160TIP3   OH260894   6.388   0.585   6.430  0.0466 -0.1019 -0.4884
13160TIP3    H160895   6.308   0.603   6.380 -0.3838 -1.4217 -0.3155
13160TIP3    H260896   6.448   0.547   6.365 -0.3890 -1.4878 -0.1183
13161TIP3   OH260897   5.702   5.630  16.112  0.2503  0.3202  0.0616
13161TIP3    H160898   5.637   5.670  16.055  1.8391  0.1079 -2.0500
13161TIP3    H260899   5.775   5.692  16.112  0.7711 -0.2686  0.8741
13162TIP3   OH260900   1.415   2.893  13.701  0.6583  0.5572 -0.4590
13162TIP3    H160901   1.337   2.854  13.661  0.9003  0.8110 -1.2000
13162TIP3    H260902   1.381   2.941  13.776 -0.1214  1.8476 -1.5777
13163TIP3   OH260903   4.656   5.129  13.553  0.0022 -0.0070 -0.1800
13163TIP3    H160904   4.586   5.079  13.512  1.3555 -0.6281 -1.8739
13163TIP3    H260905   4.673   5.201  13.492  0.4636  0.4683  0.4895
13164TIP3   OH260906   0.966   6.695   6.116 -0.1607 -0.1299  0.1682
13164TIP3    H160907   0.941   6.788   6.113 -1.2982 -0.2328  3.1495
13164TIP3    H260908   0.888   6.651   6.149  0.9881 -1.8935  0.6303
13165TIP3   OH260909   4.469   1.079   2.748 -0.7485  0.2318 -0.1135
13165TIP3    H160910   4.433   1.145   2.689 -1.3139  0.7204  0.7424
13165TIP3    H260911   4.558   1.064   2.717 -0.2153  2.2330  0.3225
13166TIP3   OH260912   2.399   5.197  17.009  0.2983  0.1649  0.0269
13166TIP3    H160913   2.356   5.283  17.007 -0.4703 -0.2250 -0.6379
13166TIP3    H260914   2.465   5.205  17.079 -0.6076  0.8891  0.8225
13167TIP3   OH260915   2.999   3.518  10.904 -0.0276 -0.4438  0.1378
13167TIP3    H160916   3.043   3.540  10.986  1.5341 -0.6396 -0.6290
13167TIP3    H260917   2.936   3.450  10.928 -1.2470  1.1047  1.5778
13168TIP3   OH260918   1.114   1.081   6.040 -0.1203  0.6203 -0.3919
13168TIP3    H160919   1.063   1.008   6.006 -0.3131  0.3898  0.3631
13168TIP3    H260920   1.173   1.106   5.968 -1.5172  1.1232 -1.4022
13169TIP3   OH260921   3.652   2.035  13.871 -0.1415  0.5763 -0.2333
13169TIP3    H160922   3.693   1.993  13.795 -0.5588  0.6501 -0.4975
13169TIP3    H260923   3.719   2.097  13.902  0.2689  0.1049 -0.1631
13170TIP3   OH260924   1.535   2.232   1.461 -0.0659  0.1233 -0.3211
13170TIP3    H160925   1.543   2.143   1.426 -1.0454  0.5668 -1.7835
13170TIP3    H260926   1.624   2.268   1.455  0.1260 -0.4068 -0.7289
13171TIP3   OH260927   5.649   3.786   0.683 -0.3083  0.0856  0.2385
13171TIP3    H160928   5.556   3.763   0.689 -0.0696 -1.2698 -0.8603
13171TIP3    H260929   5.654   3.847   0.610 -0.0691 -1.5337 -1.1412
13172TIP3   OH260930   6.239   3.395  17.240  0.0697 -0.6947  0.2851
13172TIP3    H160931   6.238   3.299  17.245 -0.2470 -0.6831  0.4416
13172TIP3    H260932   6.330   3.416  17.218 -0.1804 -1.1066 -1.2690
13173TIP3   OH260933   0.036   3.632  11.912 -0.4138  0.6683 -0.2170
13173TIP3    H160934   0.080   3.577  11.848  0.3815  1.4151 -0.3219
13173TIP3    H260935  -0.052   3.593  11.920  0.4350 -1.2281  0.4783
13174TIP3   OH260936   3.565   1.097  16.542 -0.5810  0.3532  0.6539
13174TIP3    H160937   3.516   1.043  16.481  1.6438 -0.8263 -0.2036
13174TIP3    H260938   3.556   1.052  16.627  0.9711 -1.2777  0.0187
13175TIP3   OH260939   5.597   4.747  14.390 -0.0985 -0.2367  0.2266
13175TIP3    H160940   5.514   4.795  14.380  0.6096  1.2381  1.0654
13175TIP3    H260941   5.637   4.749  14.303  0.4663  1.8155  0.4864
13176TIP3   OH260942   1.634   3.042  11.488 -0.5158  0.1187 -0.4286
13176TIP3    H160943   1.603   3.128  11.459 -0.5978  0.3524  0.3261
13176TIP3    H260944   1.572   3.017  11.557  0.1699 -0.0296  0.1420
13177TIP3   OH260945   0.678   1.123  14.696  0.4069 -0.2072  0.3557
13177TIP3    H160946   0.675   1.118  14.791  1.8915 -2.7682  0.3770
13177TIP3    H260947   0.770   1.105  14.674  0.1567  0.5663 -1.5534
13178TIP3   OH260948   0.485   0.679  17.272  0.2128  0.4194  0.0390
13178TIP3    H160949   0.576   0.671  17.301 -0.2715 -0.4087  1.4478
13178TIP3    H260950   0.488   0.741  17.199  1.8618  0.6262  0.2484
13179TIP3   OH260951   0.034   6.668  12.088 -0.3665  0.2278  0.2283
13179TIP3    H160952   0.004   6.633  12.004 -3.4149  0.6246  1.0319
13179TIP3    H260953   0.095   6.602  12.121 -1.6282 -1.5621 -0.8359
13180TIP3   OH260954   3.369   0.821   2.804  0.3238 -0.3311  0.2723
13180TIP3    H160955   3.384   0.894   2.745  0.3334  0.4711  1.2330
13180TIP3    H260956   3.305   0.766   2.760 -1.1413  1.2421  0.3440
13181TIP3   OH260957   1.868   5.605   3.789  0.2973  0.1893  0.2519
13181TIP3    H160958   1.888   5.632   3.699  2.8280  0.2507  0.7760
13181TIP3    H260959   1.824   5.520   3.778 -0.2304  0.5923 -1.0536
13182TIP3   OH260960   2.950   4.159   2.922  0.1871 -0.1531  0.4068
13182TIP3    H160961   3.016   4.190   2.860 -0.4129  0.8166  0.2290
13182TIP3    H260962   2.866   4.179   2.879 -0.2343 -0.1000  1.2336
13183TIP3   OH260963   0.604   5.781   1.354 -0.0586 -0.8595  0.0373
13183TIP3    H160964   0.564   5.834   1.423 -0.0155 -0.5340 -0.1846
13183TIP3    H260965   0.659   5.842   1.305  1.3439 -1.4571  0.8119
13184TIP3   OH260966   1.762   0.354  13.809 -0.9024  0.7800 -0.6653
13184TIP3    H160967   1.746   0.267  13.844  0.6850  0.2762 -1.1441
13184TIP3    H260968   1.856   0.366  13.815 -0.9599  1.9825 -1.7258
13185TIP3   OH260969   4.468   5.514   2.250 -0.1072 -0.0878 -0.0432
13185TIP3    H160970   4.443   5.454   2.179 -1.6336 -1.4271  1.5445
13185TIP3    H260971   4.530   5.464   2.303 -1.5392 -0.3779  1.4084
13186TIP3   OH260972   4.657   3.130  12.069  0.5911  0.4435 -0.2888
13186TIP3    H160973   4.640   3.193  11.999 -1.0865  0.3219 -0.0109
13186TIP3    H260974   4.751   3.110  12.060  0.7171  1.4834 -1.6039
13187TIP3   OH260975   4.130   1.496   2.568 -0.5345  0.7123 -0.2880
13187TIP3    H160976   4.101   1.430   2.631 -0.3517 -0.1865 -1.1338
13187TIP3    H260977   4.181   1.558   2.621  0.7406 -0.7330  0.2407
13188TIP3   OH260978   3.104   2.892   4.459  0.0940  0.3959 -0.5609
13188TIP3    H160979   3.132   2.971   4.505  1.7780  1.4055 -3.0939
13188TIP3    H260980   3.013   2.910   4.434 -0.0844  0.7959  0.3356
13189TIP3   OH260981   3.639   3.637  10.788  0.3863  0.0602 -0.4837
13189TIP3    H160982   3.552   3.673  10.770  0.2126 -0.2361 -0.2531
13189TIP3    H260983   3.693   3.665  10.714  0.3121  0.9601 -0.2043
13190TIP3   OH260984   5.028   2.923   4.874 -0.0588 -0.6848  0.0234
13190TIP3    H160985   5.095   2.963   4.819 -0.4535 -0.1595 -0.0954
13190TIP3    H260986   5.068   2.844   4.909  0.2153 -0.9872 -0.9714
13191TIP3   OH260987   5.559   5.586  15.850  0.0549  0.4450 -0.1350
13191TIP3    H160988   5.623   5.655  15.835 -0.6555  1.2098  0.2898
13191TIP3    H260989   5.475   5.631  15.855 -0.5604 -0.5600 -0.8912
13192TIP3   OH260990   2.659   4.546   4.437  0.3669  0.4848  0.2191
13192TIP3    H160991   2.606   4.624   4.450  0.6504  0.8334 -0.6723
13192TIP3    H260992   2.719   4.545   4.511  0.3460  1.1008  0.2493
13193TIP3   OH260993   5.191   0.100   4.717 -0.6559  0.0969 -0.0971
13193TIP3    H160994   5.221   0.074   4.804  1.1742 -2.1482 -1.2953
13193TIP3    H260995   5.271   0.125   4.671 -0.9368 -2.5960 -2.3099
13194TIP3   OH260996   1.681   4.731  16.289  0.6192 -0.1469  0.4518
13194TIP3    H160997   1.738   4.675  16.236  2.0764  0.6064  1.1537
13194TIP3    H260998   1.661   4.677  16.366  1.0769 -0.1240  0.5910
13195TIP3   OH260999   6.681   4.597   5.314  0.3633 -0.5086 -0.6813
13195TIP3    H161000   6.600   4.638   5.285  0.2554  0.3603  0.7434
13195TIP3    H261001   6.689   4.518   5.260 -0.6327  0.1699 -1.8760
13196TIP3   OH261002   2.089   3.763  16.410 -0.0202  0.2783 -0.5263
13196TIP3    H161003   2.069   3.765  16.317  0.8081  0.0966 -0.7132
13196TIP3    H261004   2.120   3.851  16.430  1.3361 -0.1205 -0.7830
13197TIP3   OH261005   4.587   0.789  14.335  0.2356  0.0153 -0.4490
13197TIP3    H161006   4.530   0.769  14.409 -2.4842 -0.7853 -2.5778
13197TIP3    H261007   4.563   0.878  14.309  2.8725  1.2509  0.9407
13198TIP3   OH261008   3.837   6.677  12.239  0.1655 -0.4346  0.2765
13198TIP3    H161009   3.811   6.741  12.305  1.5284 -1.4580  1.8717
13198TIP3    H261010   3.908   6.720  12.191 -1.3303  0.6137 -1.1314
13199TIP3   OH261011   0.986   0.554   0.234  0.0936  0.0526 -0.2056
13199TIP3    H161012   0.927   0.518   0.300  0.8576 -1.9470 -0.5215
13199TIP3    H261013   1.004   0.643   0.263 -0.3208 -0.4605  1.7637
13200TIP3   OH261014   6.100   2.234  17.100 -0.8894 -0.0106 -0.1554
13200TIP3    H161015   6.140   2.147  17.091  0.3526  0.1587  2.6604
13200TIP3    H261016   6.138   2.285  17.029 -0.1772 -1.2829 -0.7272
13201TIP3   OH261017   3.043   1.836  11.960  0.4865 -0.2482  0.2819
13201TIP3    H161018   3.034   1.741  11.945 -0.1414  0.0303 -1.2794
13201TIP3    H261019   3.056   1.873  11.873 -1.5911  1.3358  0.5618
13202TIP3   OH261020   0.797   4.267  14.541 -0.5099 -0.3493  0.3172
13202TIP3    H161021   0.760   4.179  14.548 -3.3561  0.8136  1.6262
13202TIP3    H261022   0.834   4.270  14.453 -1.2974 -2.5122 -0.1653
13203TIP3   OH261023   4.377   5.212  16.688  0.2002 -0.3799  0.2042
13203TIP3    H161024   4.391   5.194  16.595 -0.3691  0.2249 -0.0045
13203TIP3    H261025   4.283   5.227  16.696  0.6493  3.5188  0.1158
13204TIP3   OH261026   5.521   3.333   1.256  0.2631 -0.6074 -0.3610
13204TIP3    H161027   5.492   3.255   1.304  1.9509 -0.6007  0.7183
13204TIP3    H261028   5.450   3.349   1.193 -0.0375 -3.1494 -0.7775
13205TIP3   OH261029   0.201   0.091  16.896 -0.1545 -0.0338 -0.3325
13205TIP3    H161030   0.142   0.164  16.914 -0.3368 -0.3897  0.5300
13205TIP3    H261031   0.222   0.054  16.982  2.1827  0.7338 -0.4871
13206TIP3   OH261032   5.303   4.370   0.687 -0.3173  0.5772 -0.5091
13206TIP3    H161033   5.254   4.291   0.710  0.2219  0.3008 -0.2816
13206TIP3    H261034   5.288   4.381   0.593  0.4624 -0.4145 -0.7696
13207TIP3   OH261035   2.341   6.418  13.239 -0.0706 -0.2508  0.1095
13207TIP3    H161036   2.384   6.349  13.291 -1.8381  0.0679  2.1258
13207TIP3    H261037   2.273   6.373  13.190 -1.9182  0.0546  2.2097
13208TIP3   OH261038   5.405   1.837   0.769  0.0265 -0.6968  0.5414
13208TIP3    H161039   5.475   1.819   0.705 -0.2231 -1.4487  0.4751
13208TIP3    H261040   5.382   1.751   0.804  0.2101 -0.2818  1.7109
13209TIP3   OH261041   0.917   6.759   1.148 -0.1842 -0.1208 -0.0517
13209TIP3    H161042   0.849   6.740   1.213 -0.1407  1.0303  0.3497
13209TIP3    H261043   0.959   6.675   1.133 -1.5531 -0.8237 -0.1527
13210TIP3   OH261044   1.085   4.923  10.820 -0.1420  0.2707  0.2620
13210TIP3    H161045   1.170   4.953  10.789 -0.0395  1.2218  1.3841
13210TIP3    H261046   1.070   4.841  10.773  1.2538  0.2249 -0.1553
13211TIP3   OH261047   4.682   0.008  16.687  0.8278  0.1818  0.4026
13211TIP3    H161048   4.626  -0.062  16.654  1.0689  0.6333 -1.0125
13211TIP3    H261049   4.629   0.051  16.755  0.3469 -0.8058  0.6674
13212TIP3   OH261050   2.371   3.154   2.025 -0.2016 -0.3523  0.0848
13212TIP3    H161051   2.401   3.075   1.980 -1.4343 -0.1762 -1.0904
13212TIP3    H261052   2.279   3.138   2.044  0.1587 -0.2489  2.2403
13213TIP3   OH261053   0.482   2.962  11.186  0.1222 -0.2719 -0.6976
13213TIP3    H161054   0.422   3.028  11.220  0.8490 -0.1370  0.3608
13213TIP3    H261055   0.473   2.887  11.245  0.7746 -0.3542 -0.6946
13214TIP3   OH261056   5.891   5.817   3.071 -0.5045  0.5516 -0.0134
13214TIP3    H161057   5.944   5.777   3.140 -0.7231  0.1281 -0.0849
13214TIP3    H261058   5.907   5.911   3.080  0.6259  0.4111 -0.3287
13215TIP3   OH261059   0.048   1.013   0.802  0.4417  0.1538  0.0655
13215TIP3    H161060  -0.014   1.025   0.731  1.5511  2.2062 -0.6421
13215TIP3    H261061   0.015   1.069   0.873  0.9279  0.4822  0.0404
13216TIP3   OH261062   1.172   2.761  13.637  0.3202  0.2877  0.2371
13216TIP3    H161063   1.143   2.673  13.612  0.8692  0.1353  0.1398
13216TIP3    H261064   1.092   2.804  13.668 -0.0066 -0.1473  0.0102
13217TIP3   OH261065   6.135   5.700  13.707  0.1298  0.2435  0.1561
13217TIP3    H161066   6.052   5.712  13.661 -0.6102  1.0843  1.6303
13217TIP3    H261067   6.198   5.679  13.638 -1.3954 -1.0006 -0.9427
13218TIP3   OH261068   2.660   6.314   1.543 -0.0478 -0.1688 -0.1676
13218TIP3    H161069   2.727   6.306   1.475 -0.8045 -0.8597 -0.8481
13218TIP3    H261070   2.618   6.398   1.525  0.2695  0.0206 -0.0532
13219TIP3   OH261071   6.661   3.374   2.834 -0.0869 -0.0718 -0.4665
13219TIP3    H161072   6.755   3.357   2.835  0.0162  0.3508 -1.7026
13219TIP3    H261073   6.639   3.382   2.742 -1.0394  1.4249 -0.1390
13220TIP3   OH261074   6.684   0.868  15.882 -0.0273  0.4302 -0.3932
13220TIP3    H161075   6.596   0.853  15.917  0.7841 -0.2628  1.5158
13220TIP3    H261076   6.733   0.789  15.908  0.7265 -0.0733 -3.0453
13221TIP3   OH261077   3.412   0.124  14.501 -0.0625 -0.1318 -0.6319
13221TIP3    H161078   3.334   0.179  14.493 -0.1097 -0.3966 -2.3992
13221TIP3    H261079   3.485   0.185  14.493 -0.0751 -0.0055  0.1058
13222TIP3   OH261080   2.629   6.634   0.856  0.3521 -0.1939  0.8216
13222TIP3    H161081   2.679   6.624   0.775 -0.3848  1.4518  0.1072
13222TIP3    H261082   2.695   6.643   0.924  1.0094 -0.1273  0.1939
13223TIP3   OH261083   1.284   1.903   2.027  0.2443  0.1265 -0.4314
13223TIP3    H161084   1.227   1.979   2.038  0.9340  0.5155  0.5994
13223TIP3    H261085   1.236   1.846   1.967 -0.6136  1.0403 -0.6507
13224TIP3   OH261086   4.363   4.593  12.791  0.0982 -0.9385 -0.2224
13224TIP3    H161087   4.280   4.628  12.824  0.6354  0.4025 -0.2623
13224TIP3    H261088   4.348   4.579  12.698  0.4284  0.9739 -0.6008
13225TIP3   OH261089   0.897   5.053   5.095  0.0811 -0.4224 -0.2770
13225TIP3    H161090   0.853   4.970   5.076  0.0465 -0.4932  0.0975
13225TIP3    H261091   0.932   5.081   5.011 -0.9860 -0.1822 -0.6562
13226TIP3   OH261092   3.348   0.558   1.427 -0.0237 -0.4938  0.2244
13226TIP3    H161093   3.394   0.576   1.346 -0.8526 -1.2827 -0.4450
13226TIP3    H261094   3.284   0.629   1.435  0.8883  0.2862  0.8636
13227TIP3   OH261095   3.877   5.267   1.653 -0.4654 -0.5477 -0.4853
13227TIP3    H161096   3.960   5.315   1.655 -1.6160  1.5560  1.5199
13227TIP3    H261097   3.903   5.175   1.656  1.8294  0.0453  0.8953
13228TIP3   OH261098   4.527   1.410   2.732  0.3215  0.2502  0.1168
13228TIP3    H161099   4.506   1.388   2.822  0.1687  1.7804  0.4880
13228TIP3    H261100   4.451   1.382   2.682  0.4227 -0.6432  0.4375
13229TIP3   OH261101   0.293   0.153   2.596 -0.2247  0.3284  0.2503
13229TIP3    H161102   0.199   0.173   2.599 -0.7707 -1.9296  0.0981
13229TIP3    H261103   0.326   0.206   2.523 -1.0493  2.2478  1.1940
13230TIP3   OH261104   3.067   2.368   5.877  0.1928 -0.4050 -0.1213
13230TIP3    H161105   3.113   2.441   5.918  1.8690 -0.9396 -0.9460
13230TIP3    H261106   3.087   2.292   5.931 -0.8584 -0.4261  0.2643
13231TIP3   OH261107   4.204   5.521   2.352  0.1827 -0.0702  0.2092
13231TIP3    H161108   4.270   5.559   2.294  0.5210  0.4524  0.9279
13231TIP3    H261109   4.249   5.505   2.434 -0.1243 -1.4722  0.1187
13232TIP3   OH261110   3.649   1.621   2.000  0.6371  0.3659  0.0583
13232TIP3    H161111   3.605   1.642   1.918  1.6431  0.1702 -0.5414
13232TIP3    H261112   3.634   1.698   2.055  0.2816  0.6579 -0.4408
13233TIP3   OH261113   2.216   6.307   5.773 -0.4219 -0.0599 -0.3696
13233TIP3    H161114   2.168   6.245   5.828  1.0203 -0.2903  0.6824
13233TIP3    H261115   2.254   6.253   5.704  0.3863 -0.2777  0.2366
13234TIP3   OH261116   0.790   0.098   4.231  0.2828  0.4791 -0.5797
13234TIP3    H161117   0.839   0.154   4.170 -2.4264  4.1820  0.2897
13234TIP3    H261118   0.821   0.125   4.317  0.9669 -1.5976 -0.1206
13235TIP3   OH261119   2.758   1.153  12.916 -0.1231 -0.4369  0.1945
13235TIP3    H161120   2.689   1.109  12.965  0.6542  1.0763  2.8792
13235TIP3    H261121   2.720   1.237  12.891  0.7458  0.5621  2.0092
13236TIP3   OH261122   0.091   2.578  17.061  0.0692  0.3122  0.4819
13236TIP3    H161123   0.178   2.536  17.060 -0.5852 -1.1048  0.0184
13236TIP3    H261124   0.048   2.545  16.982 -1.0607  0.6274  0.9460
13237TIP3   OH261125   4.024   5.972   4.379  0.3900 -0.2720  0.4794
13237TIP3    H161126   4.031   6.066   4.362 -0.0221 -0.0543  1.4739
13237TIP3    H261127   4.073   5.931   4.308  1.7952  0.7557  0.8191
13238TIP3   OH261128   3.460   3.529  13.123  0.0893  0.3894  0.3220
13238TIP3    H161129   3.464   3.546  13.029  0.8777  2.2121  0.6508
13238TIP3    H261130   3.541   3.481  13.142 -0.3815 -0.5743 -0.0006
13239TIP3   OH261131   4.298   4.182  14.290 -0.0771  0.4582 -0.1272
13239TIP3    H161132   4.304   4.247  14.219 -1.5937 -0.0578 -0.7803
13239TIP3    H261133   4.248   4.110  14.252  0.2550 -0.4324  1.0694
13240TIP3   OH261134   2.724   3.158  16.876  0.7270  0.1786  0.3914
13240TIP3    H161135   2.804   3.196  16.911  0.6215 -0.4741  1.4006
13240TIP3    H261136   2.665   3.233  16.863  1.1976  0.5632  0.4565
13241TIP3   OH261137   1.344   2.214   0.189 -0.3931 -0.5318  0.1909
13241TIP3    H161138   1.325   2.270   0.114  1.0316 -1.7117 -1.1161
13241TIP3    H261139   1.358   2.274   0.261  1.5468  0.8691 -1.2543
13242TIP3   OH261140   4.698   3.098  16.829 -0.2305 -0.0322 -0.1864
13242TIP3    H161141   4.618   3.047  16.844  0.1442 -0.2842  1.0400
13242TIP3    H261142   4.695   3.167  16.895  0.6916 -0.2126  0.0563
13243TIP3   OH261143   5.217   5.947  15.753 -0.1594  0.3516 -0.5283
13243TIP3    H161144   5.223   6.041  15.771 -1.3672  0.3277  0.0692
13243TIP3    H261145   5.219   5.941  15.657 -0.1322  0.9838 -0.5737
13244TIP3   OH261146   0.416   0.004  12.255 -0.4881 -0.2488 -0.4145
13244TIP3    H161147   0.478   0.060  12.208  0.0294 -0.0629  0.4609
13244TIP3    H261148   0.467  -0.030  12.329 -1.5315  0.1743  0.5153
13245TIP3   OH261149   1.498   6.448   1.930  0.3135  0.4814  0.9882
13245TIP3    H161150   1.427   6.407   1.881 -0.7705  1.4914  1.6686
13245TIP3    H261151   1.539   6.509   1.869 -0.4623  1.0863  1.0614
13246TIP3   OH261152   4.456   1.311  11.598  0.4879  0.0717  0.0500
13246TIP3    H161153   4.476   1.263  11.517  1.2704 -0.3330  0.4709
13246TIP3    H261154   4.471   1.403  11.575 -0.6406  0.0898 -0.6494
13247TIP3   OH261155   0.861   6.629   3.652 -0.5144  0.2602  0.5042
13247TIP3    H161156   0.946   6.631   3.608 -0.4106  1.0812  0.7235
13247TIP3    H261157   0.867   6.697   3.719 -1.5631  0.7865  0.0920
13248TIP3   OH261158   0.296   4.730  12.828 -0.4434  0.3965  0.6971
13248TIP3    H161159   0.304   4.635  12.829 -0.6685  0.3739  0.4176
13248TIP3    H261160   0.306   4.754  12.736 -0.3342  0.6481  0.7739
13249TIP3   OH261161   1.372   4.737  15.752 -0.2010  0.8844  0.4984
13249TIP3    H161162   1.335   4.658  15.714 -1.0201  0.4092  2.1984
13249TIP3    H261163   1.306   4.766  15.815  1.1537  1.5519  1.6473
13250TIP3   OH261164   3.931   3.304  16.016 -0.9184  0.4566  0.0931
13250TIP3    H161165   3.889   3.334  16.097 -1.4210  0.5976 -0.2135
13250TIP3    H261166   3.869   3.242  15.979  0.2815 -1.3047  0.9111
13251TIP3   OH261167   6.468   4.604  16.629 -0.5883  0.0636 -0.2757
13251TIP3    H161168   6.499   4.550  16.556 -0.7468 -0.9570  0.3858
13251TIP3    H261169   6.401   4.660  16.591 -0.0544  0.1642 -1.0916
13252TIP3   OH261170   5.862   3.694   1.378  0.3896 -0.0278 -0.6595
13252TIP3    H161171   5.845   3.609   1.338 -1.8599  0.4165 -0.7346
13252TIP3    H261172   5.791   3.750   1.349 -1.0168  0.5647  3.2520
13253TIP3   OH261173   1.472   6.218   5.342  0.2610 -0.2739 -0.2037
13253TIP3    H161174   1.401   6.238   5.403  1.0675  0.2490  0.5930
13253TIP3    H261175   1.517   6.302   5.330  0.4582 -0.4978 -1.0825
13254TIP3   OH261176   4.647   5.334   3.307  0.3363  0.6748 -0.7210
13254TIP3    H161177   4.555   5.329   3.281 -0.0360 -2.5193  0.7069
13254TIP3    H261178   4.646   5.374   3.394  0.2283  0.0136 -0.4198
13255TIP3   OH261179   0.374   6.689   5.441 -0.0540  0.0897  0.6757
13255TIP3    H161180   0.296   6.694   5.386  1.0290 -1.2656 -1.0870
13255TIP3    H261181   0.365   6.606   5.488  0.7399 -0.5445 -0.2565
13256TIP3   OH261182   1.286   4.872   1.447  0.3694  0.3592  0.0623
13256TIP3    H161183   1.341   4.941   1.482 -0.8144  1.0490  0.5895
13256TIP3    H261184   1.347   4.801   1.426  1.2859  0.4678  2.1475
13257TIP3   OH261185   3.953   2.306  16.734 -0.0706 -0.4188 -0.1998
13257TIP3    H161186   3.896   2.360  16.679  0.5143 -0.4577 -0.8525
13257TIP3    H261187   3.956   2.221  16.690 -0.2240 -0.6937  0.3143
13258TIP3   OH261188   4.367   4.735  16.858 -0.1438  0.5866 -0.3123
13258TIP3    H161189   4.453   4.730  16.899  0.2580 -0.3301 -1.2260
13258TIP3    H261190   4.325   4.810  16.899  0.0686 -0.5084  2.0345
13259TIP3   OH261191   5.766   4.147  16.049 -0.3096  0.1637  0.1314
13259TIP3    H161192   5.679   4.108  16.059  0.1445 -0.7159  0.7226
13259TIP3    H261193   5.799   4.112  15.967 -0.4583  0.4148 -0.0392
13260TIP3   OH261194   6.682   5.229  15.210 -0.8453 -0.0061 -0.3079
13260TIP3    H161195   6.706   5.310  15.166  2.2891 -1.0848 -0.8502
13260TIP3    H261196   6.644   5.256  15.293  1.8670  2.0927  0.3788
13261TIP3   OH261197   0.517   1.797  13.573 -0.3844  0.4170 -0.1363
13261TIP3    H161198   0.440   1.837  13.533 -0.8137 -0.1826  0.0747
13261TIP3    H261199   0.533   1.850  13.651 -2.5906 -1.3598  1.6528
13262TIP3   OH261200   3.361   6.021   5.463  0.1428  0.8240  0.1362
13262TIP3    H161201   3.319   6.005   5.378 -1.5068  0.5685  0.9485
13262TIP3    H261202   3.373   5.933   5.501 -1.7453  1.0161  1.3163
13263TIP3   OH261203   4.736   4.167   2.848  0.0170 -0.2109 -0.3060
13263TIP3    H161204   4.687   4.125   2.778 -1.5101 -0.4668  0.8518
13263TIP3    H261205   4.708   4.258   2.846  1.4806  0.2666 -1.2466
13264TIP3   OH261206   1.316   0.167  14.418  0.1029 -0.0657  0.2577
13264TIP3    H161207   1.306   0.227  14.492  0.2551  0.8553 -0.4577
13264TIP3    H261208   1.279   0.214  14.344  0.3208 -0.8209 -0.3412
13265TIP3   OH261209   3.971   3.365   4.426 -0.3320  0.0240  0.1887
13265TIP3    H161210   4.030   3.384   4.353 -0.2306  1.1129  0.5428
13265TIP3    H261211   3.912   3.440   4.430 -1.2213 -0.6772  0.3639
13266TIP3   OH261212   3.030   1.301   0.472 -1.1861  0.2067  0.0562
13266TIP3    H161213   3.041   1.304   0.567  0.0727 -0.2466 -0.0672
13266TIP3    H261214   2.966   1.370   0.453 -1.2417  0.4795  1.1915
13267TIP3   OH261215   4.153   6.585   0.049 -0.0630  0.6436  0.1294
13267TIP3    H161216   4.106   6.668   0.053  0.7599  1.1344 -0.3195
13267TIP3    H261217   4.243   6.609   0.029  0.0807 -0.3936 -0.5226
13268TIP3   OH261218   5.400   4.900   3.947 -0.0214  0.1773 -0.1923
13268TIP3    H161219   5.307   4.913   3.964  0.4172  1.6472  1.3245
13268TIP3    H261220   5.424   4.974   3.891  0.4266  0.3620  0.2362
13269TIP3   OH261221   6.651   0.413   3.451  0.5061  0.5377  0.2540
13269TIP3    H161222   6.670   0.320   3.440 -2.9408 -0.4176  1.0484
13269TIP3    H261223   6.691   0.436   3.535  1.4462 -0.1972  0.0197
13270TIP3   OH261224   5.971   5.117   4.831 -0.2122 -0.2620  0.6895
13270TIP3    H161225   5.923   5.081   4.757  0.4552 -1.2449  0.7151
13270TIP3    H261226   6.063   5.114   4.804 -0.0803  0.8526  0.9442
13271TIP3   OH261227   2.322   0.511  13.479 -0.0238  0.1820 -0.2677
13271TIP3    H161228   2.238   0.551  13.499 -1.0746 -0.8452 -2.3424
13271TIP3    H261229   2.321   0.427  13.524 -0.1966  0.0849 -0.4527
13272TIP3   OH261230   1.346   0.432  16.561  0.2917  0.3878  0.0094
13272TIP3    H161231   1.403   0.488  16.509  1.8594 -1.8664 -0.8495
13272TIP3    H261232   1.406   0.378  16.613 -1.0860 -1.0936  0.1491
13273TIP3   OH261233   0.073   6.053   1.478 -0.0670  0.4758 -0.0776
13273TIP3    H161234   0.075   5.958   1.468 -1.0174  0.5419 -1.1099
13273TIP3    H261235   0.021   6.084   1.404  2.4770  2.0290 -1.3828
13274TIP3   OH261236   3.837   5.542  17.125 -0.4391  0.3562 -0.1002
13274TIP3    H161237   3.793   5.622  17.154  0.0641  0.0827  1.5121
13274TIP3    H261238   3.930   5.566  17.121 -0.2067 -0.2873  1.0057
13275TIP3   OH261239   0.629   3.295   0.688 -0.2044 -0.1137  0.0177
13275TIP3    H161240   0.644   3.295   0.782 -2.4829 -1.2466  0.4393
13275TIP3    H261241   0.685   3.225   0.654 -1.0866 -1.2705  0.8811
13276TIP3   OH261242   6.740   5.548   3.676 -0.5175 -0.2438 -0.3042
13276TIP3    H161243   6.763   5.629   3.629  1.0775 -0.7817 -0.4827
13276TIP3    H261244   6.676   5.506   3.619  0.3712 -0.2135 -1.3649
13277TIP3   OH261245   6.123   4.247  10.501  0.0734  0.4018  0.2396
13277TIP3    H161246   6.128   4.174  10.562  1.1369 -0.7614 -1.1645
13277TIP3    H261247   6.208   4.246  10.456 -0.5776  1.3794 -1.0598
13278TIP3   OH261248   5.090   5.623  15.353 -0.4139  0.7211 -0.1190
13278TIP3    H161249   5.072   5.562  15.424  1.9281  1.2812  1.0865
13278TIP3    H261250   5.185   5.635  15.356 -0.3421  1.4712 -2.7958
13279TIP3   OH261251   4.167   4.993  11.981 -0.2190 -0.5585  0.1344
13279TIP3    H161252   4.253   4.997  11.940  0.2664  1.2413  1.2346
13279TIP3    H261253   4.154   4.900  12.000  1.2119 -0.9275 -0.5833
13280TIP3   OH261254   4.602   6.126  11.804  0.2349  0.1659  0.1507
13280TIP3    H161255   4.543   6.140  11.878 -1.3132  2.1107 -1.3467
13280TIP3    H261256   4.649   6.209  11.795 -1.0630  0.7190 -2.1954
13281TIP3   OH261257   5.307   4.900  16.934  0.3191  0.1911 -0.7097
13281TIP3    H161258   5.307   4.922  17.027 -1.9788 -0.9349 -0.3661
13281TIP3    H261259   5.382   4.947  16.898  0.7241  1.3977  1.5208
13282TIP3   OH261260   0.890   1.228   3.511  0.0953  0.1054 -0.2134
13282TIP3    H161261   0.802   1.256   3.484 -0.6873 -2.3181 -0.4346
13282TIP3    H261262   0.918   1.167   3.442  1.3154 -0.3113  0.6144
13283TIP3   OH261263   5.101   1.050  12.839 -0.3052  0.0357 -0.1737
13283TIP3    H161264   5.020   1.076  12.882 -1.5771 -2.2796 -0.9759
13283TIP3    H261265   5.165   1.116  12.866 -2.3808  1.8425  0.6348
13284TIP3   OH261266   4.857   0.306  14.264  0.2393 -0.2701 -0.1779
13284TIP3    H161267   4.765   0.296  14.240  0.0613 -1.5308  0.9484
13284TIP3    H261268   4.862   0.273  14.354  2.2750 -2.8774 -1.1184
13285TIP3   OH261269   1.269   2.543  12.110  0.6766  0.3742 -0.8369
13285TIP3    H161270   1.270   2.631  12.148 -0.4526 -0.0090  0.1467
13285TIP3    H261271   1.217   2.552  12.031 -1.0406  0.2645  0.2249
13286TIP3   OH261272   0.446   6.563   1.670  0.1187 -0.3431 -0.2222
13286TIP3    H161273   0.378   6.582   1.735 -0.0458  1.2116 -0.8069
13286TIP3    H261274   0.401   6.570   1.586  0.6504 -0.8764 -0.5540
13287TIP3   OH261275   2.516   3.582  10.928 -0.1248 -0.1189  0.7565
13287TIP3    H161276   2.473   3.496  10.929 -0.3369 -0.1257 -1.8035
13287TIP3    H261277   2.605   3.563  10.897  0.0575  0.5150  0.8778
13288TIP3   OH261278   6.727   0.466   0.794  0.1332  0.4040  0.1397
13288TIP3    H161279   6.782   0.407   0.846 -1.4110  0.7918  2.3509
13288TIP3    H261280   6.772   0.550   0.798 -0.8240  0.8700  2.4482
13289TIP3   OH261281   0.641   3.909  10.846 -0.4817  0.0297  0.2359
13289TIP3    H161282   0.572   3.850  10.876 -1.4412  1.0304  0.0503
13289TIP3    H261283   0.654   3.886  10.754 -1.5375  0.7274 -0.1038
13290TIP3   OH261284   0.039   2.812   4.914 -0.1365  0.0654  0.2240
13290TIP3    H161285   0.067   2.858   4.835  0.2732 -0.1829  0.2221
13290TIP3    H261286   0.108   2.747   4.930 -0.2338  0.0900  0.7620
13291TIP3   OH261287   2.896   4.803  16.449  0.3745 -0.1481 -0.4403
13291TIP3    H161288   2.825   4.772  16.505 -0.1823  0.5500 -0.7493
13291TIP3    H261289   2.909   4.894  16.475  1.4694 -0.3914 -0.0700
13292TIP3   OH261290   4.761   5.399   1.606 -0.3921  0.1223  0.3082
13292TIP3    H161291   4.694   5.439   1.550 -2.6098 -0.6136  2.2678
13292TIP3    H261292   4.727   5.410   1.695  3.2200  1.6952  1.6626
13293TIP3   OH261293   4.853   5.648   5.999 -0.1059  0.6185  0.1867
13293TIP3    H161294   4.781   5.642   5.936  0.3627 -1.1470 -0.2549
13293TIP3    H261295   4.811   5.647   6.085 -0.6304 -0.1903 -0.0675
13294TIP3   OH261296   6.749   3.100   0.400 -0.0302 -0.0794  0.1270
13294TIP3    H161297   6.702   3.125   0.480  0.0546 -1.0526  0.4931
13294TIP3    H261298   6.716   3.013   0.379 -0.2069  0.2485 -1.0388
13295TIP3   OH261299   4.117   3.008  11.138  0.1948 -0.2299 -0.2474
13295TIP3    H161300   4.134   2.929  11.087 -0.6349 -1.1703  0.8747
13295TIP3    H261301   4.022   3.018  11.135  0.4226  2.2954 -2.5988
13296TIP3   OH261302   4.865   1.184   0.581  0.0015 -0.0130 -0.2885
13296TIP3    H161303   4.894   1.258   0.527  0.6742 -0.9644 -1.2887
13296TIP3    H261304   4.943   1.159   0.630 -0.5377  0.6717  0.9648
13297TIP3   OH261305   0.329   0.918  12.758  0.0063  0.2288  0.3723
13297TIP3    H161306   0.365   0.960  12.836  0.2500  0.9637 -0.1202
13297TIP3    H261307   0.402   0.869  12.721 -0.0222  0.1484  0.4210
13298TIP3   OH261308   4.756   0.059   3.521  0.7648 -0.2705  0.1920
13298TIP3    H161309   4.787   0.063   3.430  1.6167 -1.7465  0.3847
13298TIP3    H261310   4.678   0.114   3.522  1.0145  0.1634 -1.3206
13299TIP3   OH261311   5.099   3.466  12.569  0.0973 -0.1181 -0.3693
13299TIP3    H161312   5.073   3.508  12.651 -2.0485 -0.5965 -0.7513
13299TIP3    H261313   5.091   3.372  12.587  0.4882 -0.2536 -0.8713
13300TIP3   OH261314   1.422   0.930   6.352 -0.2092  0.0410 -0.0352
13300TIP3    H161315   1.486   0.954   6.418 -0.5493  0.1170  0.2679
13300TIP3    H261316   1.404   0.837   6.368  0.6614 -0.2730 -0.8313
13301TIP3   OH261317   6.068   5.428  11.850  0.5496 -0.3491  0.1030
13301TIP3    H161318   5.980   5.448  11.821  0.7541  0.6853  0.1588
13301TIP3    H261319   6.114   5.511  11.846  0.8940 -0.3882  2.2872
13302TIP3   OH261320   4.411   5.788   0.551  0.1706  0.0803 -0.2218
13302TIP3    H161321   4.466   5.710   0.557  0.2987  0.2622  1.9359
13302TIP3    H261322   4.399   5.802   0.457  1.2436 -1.7461 -0.6856
13303TIP3   OH261323   5.140   4.972   4.013 -0.5307 -0.1036  1.0463
13303TIP3    H161324   5.090   4.971   3.932 -1.9386  0.3432  1.8825
13303TIP3    H261325   5.138   5.063   4.042  0.7732 -0.0696  1.1109
13304TIP3   OH261326   5.159   5.009   0.843  0.0120 -0.5590 -0.3725
13304TIP3    H161327   5.094   5.021   0.912 -0.1766 -0.2786 -0.5972
13304TIP3    H261328   5.167   5.095   0.801 -1.3296 -1.1457 -1.9593
13305TIP3   OH261329   5.489   4.053  17.209  0.2277  0.1223 -0.3609
13305TIP3    H161330   5.518   4.051  17.300 -0.4686  1.4074 -0.0806
13305TIP3    H261331   5.542   4.122  17.169  0.5036 -0.4125 -0.9262
13306TIP3   OH261332   2.385   2.070   5.551  0.1202  0.7310  0.1448
13306TIP3    H161333   2.403   2.133   5.621 -0.7446  1.9113 -0.6424
13306TIP3    H261334   2.471   2.052   5.512  0.7915 -0.8534  2.1862
13307TIP3   OH261335   5.674   0.419  16.651  0.4521 -0.4391 -0.2849
13307TIP3    H161336   5.728   0.493  16.624 -1.1507 -0.2882 -3.5290
13307TIP3    H261337   5.738   0.351  16.674  2.0016  0.6358 -1.1978
13308TIP3   OH261338   5.863   3.490   4.417  0.1786 -0.2207 -0.1582
13308TIP3    H161339   5.942   3.543   4.428  1.7781 -2.1282 -1.6998
13308TIP3    H261340   5.794   3.553   4.396  1.5762  1.3808 -0.0939
13309TIP3   OH261341   0.395   3.825   2.271  0.6206 -0.2307  0.0329
13309TIP3    H161342   0.397   3.914   2.236 -3.0634 -0.4900 -1.3467
13309TIP3    H261343   0.344   3.831   2.351  1.5128 -0.9312  0.6721
13310TIP3   OH261344   2.473   4.443  15.167  0.4959 -0.1808 -0.3802
13310TIP3    H161345   2.488   4.447  15.261  2.1565  0.5330 -0.6396
13310TIP3    H261346   2.559   4.421  15.130 -0.3717 -1.6138 -1.6626
13311TIP3   OH261347   5.550   6.715   4.097  0.2252  0.4446  0.2317
13311TIP3    H161348   5.599   6.683   4.021 -0.6136 -0.2094 -0.0520
13311TIP3    H261349   5.481   6.650   4.109 -1.7671  2.3032 -0.5613
13312TIP3   OH261350   4.173   1.725   1.592  0.0723  0.2608 -0.3785
13312TIP3    H161351   4.187   1.655   1.656  1.5897 -0.1694 -1.1259
13312TIP3    H261352   4.186   1.806   1.641 -0.6502  0.0028  0.2568
13313TIP3   OH261353   5.396   4.896  12.370 -0.1255  0.6947  0.0474
13313TIP3    H161354   5.334   4.955  12.411  0.0259  0.8621  0.0340
13313TIP3    H261355   5.368   4.893  12.278  1.2281  2.5440 -0.4827
13314TIP3   OH261356   0.373   1.729  14.119 -0.0276 -0.6313 -0.1989
13314TIP3    H161357   0.345   1.681  14.041 -0.8650  2.8352 -2.2532
13314TIP3    H261358   0.292   1.767  14.154  0.8243  1.4987 -0.3751
13315TIP3   OH261359   1.354   0.564   5.602 -0.5346 -0.6065  0.2337
13315TIP3    H161360   1.406   0.485   5.618 -0.3458 -0.3642  0.8337
13315TIP3    H261361   1.398   0.632   5.653 -0.8804 -0.1830 -0.0334
13316TIP3   OH261362   1.584   1.879  12.042  0.4445  0.0466 -0.9245
13316TIP3    H161363   1.586   1.802  12.099 -0.1641  0.0546 -0.8898
13316TIP3    H261364   1.536   1.851  11.964 -1.6619  0.9562 -0.0329
13317TIP3   OH261365   5.208   3.274  14.333 -0.0791  0.2044  0.2634
13317TIP3    H161366   5.204   3.215  14.258  1.7341 -0.7298  0.8313
13317TIP3    H261367   5.218   3.216  14.409 -0.8622  1.1649  1.1392
13318TIP3   OH261368   3.530   0.899  12.688  0.3030  0.2118  0.2625
13318TIP3    H161369   3.525   0.993  12.677 -2.6754  0.1881  0.5803
13318TIP3    H261370   3.479   0.881  12.768  1.7054 -1.5949  0.8372
13319TIP3   OH261371   2.049   3.940  12.692 -0.0258  0.2117  0.5031
13319TIP3    H161372   2.026   3.992  12.615  1.2259  0.6179  0.3845
13319TIP3    H261373   2.137   3.969  12.715  0.2150 -1.0047  1.1760
13320TIP3   OH261374   6.021   2.396  13.003  0.0224 -0.2701 -0.4109
13320TIP3    H161375   5.950   2.341  12.971 -0.3488 -0.3056  0.4531
13320TIP3    H261376   6.007   2.401  13.097 -0.0626  1.4482 -0.4768
13321TIP3   OH261377   6.642   3.922   6.549  0.3343 -0.3007  0.2558
13321TIP3    H161378   6.644   4.012   6.516 -0.6324  0.2619  1.6142
13321TIP3    H261379   6.734   3.897   6.555  0.5761  0.1448 -1.2900
13322TIP3   OH261380   3.842   4.277  11.298 -0.9567  0.1571  0.2722
13322TIP3    H161381   3.787   4.266  11.221 -1.0809  1.0706  0.2187
13322TIP3    H261382   3.787   4.324  11.360 -0.4823  0.4398  0.4852
13323TIP3   OH261383   2.344   3.330  11.574  0.3732  0.4337 -0.1790
13323TIP3    H161384   2.381   3.243  11.562 -0.0479 -0.1445  2.1818
13323TIP3    H261385   2.398   3.370  11.642 -0.5753  1.2988  0.0953
13324TIP3   OH261386   4.458   3.969  16.561 -0.3549  0.5668  0.1954
13324TIP3    H161387   4.410   3.887  16.572 -2.2169  1.6599  0.6859
13324TIP3    H261388   4.485   3.969  16.469 -1.1000 -0.2043 -0.0372
13325TIP3   OH261389   2.558   2.704   0.211 -0.5874 -0.4258 -0.1005
13325TIP3    H161390   2.568   2.609   0.208 -0.5543 -0.5596  2.3858
13325TIP3    H261391   2.576   2.728   0.302  0.9449  2.1746 -0.9751
13326TIP3   OH261392   4.780   1.154  12.333  0.4531 -0.1938 -0.2180
13326TIP3    H161393   4.811   1.150  12.423 -0.9528 -0.8752  0.2657
13326TIP3    H261394   4.825   1.082  12.289  2.8685  1.4838 -0.6848
13327TIP3   OH261395   2.444   4.785  13.105  0.4262 -0.4697 -0.1369
13327TIP3    H161396   2.410   4.815  13.189  1.2146  0.2393 -0.0505
13327TIP3    H261397   2.427   4.857  13.045  0.8614 -0.5179 -0.3221
13328TIP3   OH261398   5.998   5.016  16.001  0.1984 -0.1159  0.2520
13328TIP3    H161399   5.994   4.966  16.083 -1.1321  0.7624  0.7509
13328TIP3    H261400   5.908   5.042  15.984  0.5573  0.2988 -1.1478
13329TIP3   OH261401   2.047   4.288   4.339  0.0778 -0.1103 -0.4675
13329TIP3    H161402   2.128   4.268   4.293  0.5824 -0.2997  0.4784
13329TIP3    H261403   2.070   4.284   4.432 -0.9604  0.0559 -0.1853
13330TIP3   OH261404   3.818   3.071  14.424 -0.3899  0.0233  0.3150
13330TIP3    H161405   3.758   3.140  14.453 -0.6219  0.3215 -0.8395
13330TIP3    H261406   3.900   3.117  14.404  0.1121 -0.3222  1.4426
13331TIP3   OH261407   2.827   6.535   3.871 -0.0807 -0.0209  0.4582
13331TIP3    H161408   2.792   6.506   3.955  1.1856 -2.1893  0.3236
13331TIP3    H261409   2.752   6.535   3.812 -1.1307  2.2293  1.6951
13332TIP3   OH261410   4.582   5.584   2.805  0.0882 -0.4813  0.2489
13332TIP3    H161411   4.600   5.675   2.783 -1.2887 -0.5535 -1.3989
13332TIP3    H261412   4.647   5.562   2.871  0.9611  1.4472  0.1041
13333TIP3   OH261413   5.530   5.854   1.776  0.4259  0.4276  0.1145
13333TIP3    H161414   5.459   5.848   1.840 -0.3089 -0.2796 -0.7377
13333TIP3    H261415   5.585   5.777   1.794  0.2805  0.2887 -0.0350
13334TIP3   OH261416   5.840   6.130  12.458 -0.2900 -0.3262 -0.1690
13334TIP3    H161417   5.833   6.054  12.400  0.2675 -0.1463 -0.4821
13334TIP3    H261418   5.895   6.192  12.410  0.7883 -0.4628  0.8371
13335TIP3   OH261419   6.471   3.891   5.988  0.1230 -0.6891 -0.9942
13335TIP3    H161420   6.398   3.951   6.003  1.4077  0.2351  2.5188
13335TIP3    H261421   6.542   3.948   5.957  0.4038 -0.9383 -0.8093
13336TIP3   OH261422   4.848   1.789   2.158  0.3272  0.2816  0.2980
13336TIP3    H161423   4.778   1.757   2.214  0.8057 -1.2727  0.0507
13336TIP3    H261424   4.822   1.764   2.069  0.7413  0.5346  0.0983
13337TIP3   OH261425   2.161   3.670   3.744 -0.3363  0.2449 -0.6581
13337TIP3    H161426   2.234   3.727   3.766  0.2095 -0.2464 -1.1395
13337TIP3    H261427   2.188   3.627   3.662 -0.1450 -1.6614  0.3405
13338TIP3   OH261428   0.882   1.192  15.728  0.4156 -0.2811 -0.1132
13338TIP3    H161429   0.868   1.265  15.667  2.3508 -0.6074 -1.0183
13338TIP3    H261430   0.946   1.225  15.791  1.0563 -1.0698 -0.3324
13339TIP3   OH261431   3.746   4.634   5.992 -0.5888 -0.0713  0.4211
13339TIP3    H161432   3.816   4.590   6.040 -0.7676  0.5815  1.3148
13339TIP3    H261433   3.677   4.568   5.985  0.2185 -0.8184 -0.7402
13340TIP3   OH261434   4.024   6.039  15.336  0.6285 -0.2603 -0.2569
13340TIP3    H161435   4.072   6.018  15.417 -0.2080  0.2516  0.3924
13340TIP3    H261436   3.933   6.019  15.357  0.1673  1.4495 -0.4944
13341TIP3   OH261437   6.198   0.614   3.401  0.1907  0.0067  0.0520
13341TIP3    H161438   6.164   0.610   3.491 -0.7089 -1.2957 -0.3076
13341TIP3    H261439   6.291   0.634   3.411 -0.1044  0.9192  1.2137
13342TIP3   OH261440   5.594   0.990  12.480  0.1980  0.1347 -0.4347
13342TIP3    H161441   5.659   0.973  12.548  0.6365  2.2950 -0.2386
13342TIP3    H261442   5.515   1.017  12.527 -0.0293  0.0482 -0.7548
13343TIP3   OH261443   4.840   4.349  11.609  0.1334 -0.2010  0.4793
13343TIP3    H161444   4.922   4.397  11.616  1.1774 -1.4516 -1.9906
13343TIP3    H261445   4.861   4.261  11.641 -0.5779 -0.2142  0.9403
13344TIP3   OH261446   4.607   3.112   6.537 -0.4273  0.3365 -0.0710
13344TIP3    H161447   4.554   3.063   6.599 -0.0660  0.2864  0.1994
13344TIP3    H261448   4.589   3.204   6.557  0.0992  0.3293  0.4729
13345TIP3   OH261449   1.913   2.004  11.879  0.4311  0.2906 -0.2154
13345TIP3    H161450   1.938   2.088  11.916 -0.5275  0.4999 -0.0038
13345TIP3    H261451   1.905   2.021  11.785  0.1948  0.4511 -0.1676
13346TIP3   OH261452   4.595   4.451  15.686 -0.2656  0.1064  0.5670
13346TIP3    H161453   4.629   4.506  15.756 -0.6485  1.6100 -0.3648
13346TIP3    H261454   4.667   4.442  15.624 -0.4706  0.2936  0.2984
13347TIP3   OH261455   2.828   4.700  13.966 -0.2872 -0.0012  0.0046
13347TIP3    H161456   2.876   4.635  14.018  0.1732  2.2380  2.6485
13347TIP3    H261457   2.896   4.758  13.932 -0.7127 -0.6294 -2.0093
13348TIP3   OH261458   3.452   4.705   6.258 -0.5207  0.0083 -0.1539
13348TIP3    H161459   3.380   4.642   6.259 -0.5625  0.0552 -0.2288
13348TIP3    H261460   3.508   4.679   6.332 -1.4961  0.9980  0.9811
13349TIP3   OH261461   5.873   2.228   5.849 -0.1662  0.1657 -0.0199
13349TIP3    H161462   5.932   2.303   5.846  0.9327 -0.5543  1.7354
13349TIP3    H261463   5.843   2.224   5.940  0.1216 -1.7135  0.0458
13350TIP3   OH261464   2.244   2.886   3.545 -0.2838 -0.4696  0.4970
13350TIP3    H161465   2.283   2.951   3.604 -0.9797 -0.2309  0.6952
13350TIP3    H261466   2.319   2.851   3.497  0.1633  0.1029  0.7546
13351TIP3   OH261467   3.853   1.154   4.475  0.0935  0.3718  0.2275
13351TIP3    H161468   3.852   1.213   4.550 -0.9454 -0.2743  0.7440
13351TIP3    H261469   3.894   1.074   4.508 -2.6005 -0.8327  0.8791
13352TIP3   OH261470   6.638   2.732   4.664  0.2754 -0.1971  0.1647
13352TIP3    H161471   6.666   2.654   4.616 -0.6398 -0.4777  0.0499
13352TIP3    H261472   6.710   2.794   4.655 -0.3634  0.2969 -2.7677
13353TIP3   OH261473   5.575   5.204  16.935  0.1105 -0.2290  1.0997
13353TIP3    H161474   5.590   5.135  16.871  0.0564  0.8158 -0.0648
13353TIP3    H261475   5.640   5.187  17.004 -0.1650 -1.6542  1.0417
13354TIP3   OH261476   4.584   4.327   1.598  0.3331  0.3783  0.1792
13354TIP3    H161477   4.633   4.324   1.680  1.9509  2.8653 -0.5878
13354TIP3    H261478   4.504   4.278   1.617  1.7795 -1.3463  2.3963
13355TIP3   OH261479   2.226   4.362   5.908 -0.4831 -0.2375 -0.3673
13355TIP3    H161480   2.223   4.312   5.826 -1.0783 -0.7466 -0.0428
13355TIP3    H261481   2.316   4.353   5.938  0.0635  0.9230 -1.5486
13356TIP3   OH261482   2.578   2.228   2.172 -0.2473  0.2080 -0.4338
13356TIP3    H161483   2.624   2.281   2.237  2.1790 -1.7761 -0.3697
13356TIP3    H261484   2.553   2.290   2.103 -0.4306  1.9009  1.1013
13357TIP3   OH261485   2.164   0.066   4.194 -0.6259 -0.3463  0.8457
13357TIP3    H161486   2.114   0.097   4.269  1.3038  0.0976  2.0358
13357TIP3    H261487   2.247   0.114   4.199  0.1840 -1.4877 -0.6491
13358TIP3   OH261488   4.112   5.881   1.593  0.3744  0.1662 -0.5129
13358TIP3    H161489   4.061   5.881   1.512 -0.2317 -2.3147 -0.2073
13358TIP3    H261490   4.203   5.868   1.564  0.2623  0.1049 -0.8374
13359TIP3   OH261491   2.528   4.720   4.072  0.0513  0.3484  0.5672
13359TIP3    H161492   2.599   4.783   4.061  0.3273  0.0956  0.8719
13359TIP3    H261493   2.570   4.643   4.110 -0.4589  0.3451  1.1427
13360TIP3   OH261494   6.401   4.196  12.015  0.5225 -0.6107  0.2350
13360TIP3    H161495   6.478   4.238  11.979  0.2881 -0.7070 -0.3797
13360TIP3    H261496   6.384   4.244  12.096 -0.2124  1.0255 -0.8344
13361TIP3   OH261497   2.665   3.508  12.925  0.1383  0.0865 -0.1973
13361TIP3    H161498   2.717   3.567  12.980  2.6687 -1.3583 -0.8557
13361TIP3    H261499   2.581   3.502  12.969  1.1581  1.0595  2.0731
13362TIP3   OH261500   5.399   4.309  13.851 -0.2201 -0.0805  0.0765
13362TIP3    H161501   5.312   4.311  13.812 -1.1642 -2.6477  1.8120
13362TIP3    H261502   5.386   4.272  13.938  2.5054  0.3189  0.7460
13363TIP3   OH261503   1.808   1.818   1.109  0.3344  0.1433 -0.9292
13363TIP3    H161504   1.896   1.812   1.146 -0.1653 -0.0673  0.2627
13363TIP3    H261505   1.822   1.819   1.014  1.5129 -1.7126 -0.8165
13364TIP3   OH261506   5.904   4.461   3.908  0.2568 -0.8891 -0.2654
13364TIP3    H161507   5.920   4.554   3.892 -0.3331 -0.8016 -0.3835
13364TIP3    H261508   5.899   4.422   3.821  0.8970 -1.1044 -0.2089
13365TIP3   OH261509   2.228   5.244   1.958 -0.4494 -0.0292  0.0243
13365TIP3    H161510   2.315   5.254   1.997  0.0080 -0.7918 -0.7720
13365TIP3    H261511   2.177   5.200   2.025  0.2296 -0.9973 -0.0690
13366TIP3   OH261512   2.342   5.679   1.201  0.2841  0.4905  0.1259
13366TIP3    H161513   2.274   5.639   1.147 -0.1249  2.3099 -0.7711
13366TIP3    H261514   2.320   5.652   1.290  0.7545 -2.2597 -0.4880
13367TIP3   OH261515   1.932   1.642   3.515 -0.2512 -0.4337  0.9675
13367TIP3    H161516   2.019   1.672   3.489 -0.4464  0.6019  1.4754
13367TIP3    H261517   1.927   1.661   3.609 -0.2680 -2.3706  1.3997
13368TIP3   OH261518   1.603   5.174   2.652 -0.4522 -0.0522  0.0403
13368TIP3    H161519   1.542   5.204   2.719  0.5166 -0.8457  1.3319
13368TIP3    H261520   1.599   5.078   2.657 -1.1817 -0.1489 -1.8250
13369TIP3   OH261521   1.263   3.333   1.729 -0.4073 -0.5480 -0.0715
13369TIP3    H161522   1.326   3.380   1.783 -2.1850  0.7107  0.9841
13369TIP3    H261523   1.236   3.259   1.783  0.0814 -1.0681 -0.5128
13370TIP3   OH261524   3.275   3.722   0.466 -0.6632  0.7887 -0.0744
13370TIP3    H161525   3.222   3.802   0.472 -0.5653  0.8941 -0.5952
13370TIP3    H261526   3.312   3.725   0.378 -2.8529 -1.2164 -1.1753
13371TIP3   OH261527   2.627   6.057   6.604 -0.1331 -0.3284 -0.3317
13371TIP3    H161528   2.642   6.045   6.697  0.1650 -1.0600 -0.4658
13371TIP3    H261529   2.664   5.978   6.563 -2.2041 -1.1067 -0.8728
13372TIP3   OH261530   4.795   2.788  16.937  0.2002 -0.5286 -0.3203
13372TIP3    H161531   4.858   2.720  16.911 -0.0334 -0.4884 -1.0258
13372TIP3    H261532   4.728   2.785  16.868 -1.2893 -1.4846  1.0964
13373TIP3   OH261533   3.886   0.131   1.483 -0.1123  0.2638 -0.5028
13373TIP3    H161534   3.820   0.186   1.441 -2.1220 -1.8571 -0.2924
13373TIP3    H261535   3.862   0.042   1.460  1.6947 -0.6883  1.0161
13374TIP3   OH261536   4.140   2.197  15.407  0.5045  0.2473 -0.0598
13374TIP3    H161537   4.180   2.140  15.342  0.9490  0.4991 -0.0112
13374TIP3    H261538   4.073   2.143  15.448  0.4418 -0.0168 -0.5005
13375TIP3   OH261539   0.954   0.181  16.344  0.1316  0.0859 -0.0207
13375TIP3    H161540   0.949   0.107  16.404 -1.0348  0.3509  0.2289
13375TIP3    H261541   0.996   0.146  16.266  2.2506 -0.1216  1.1267
13376TIP3   OH261542   3.699   1.424  13.753  0.2723 -0.3599  0.0849
13376TIP3    H161543   3.769   1.410  13.818  0.5655  0.1747 -0.1057
13376TIP3    H261544   3.727   1.372  13.677  0.6323  0.1059 -0.1078
13377TIP3   OH261545   5.122   3.084   2.648  0.0540  0.1368 -0.2944
13377TIP3    H161546   5.074   3.012   2.690 -0.6523  1.2304  0.8279
13377TIP3    H261547   5.203   3.044   2.618 -0.9256 -1.4512 -0.9770
13378TIP3   OH261548   3.094   6.188   2.394  0.1866 -0.1201  0.0534
13378TIP3    H161549   3.104   6.099   2.360  0.2470 -0.2410  0.3802
13378TIP3    H261550   3.157   6.193   2.466  1.5091  0.7813 -1.1074
13379TIP3   OH261551   4.381   1.946   3.682  0.3383 -0.0104  0.0225
13379TIP3    H161552   4.390   1.947   3.587 -0.9732  0.5076 -0.1243
13379TIP3    H261553   4.383   2.038   3.707 -4.3923  0.4015 -0.1472
13380TIP3   OH261554   1.669   6.608  16.450 -0.5633  0.4457 -0.4423
13380TIP3    H161555   1.711   6.606  16.363  0.4292  2.2173 -0.0499
13380TIP3    H261556   1.600   6.542  16.444 -0.8051  0.8033 -2.7297
13381TIP3   OH261557   0.455   5.180  15.818 -0.3403 -0.3758 -0.0869
13381TIP3    H161558   0.362   5.161  15.809 -1.5799  3.4790  2.0452
13381TIP3    H261559   0.483   5.204  15.729 -1.8622  0.0822 -0.4798
13382TIP3   OH261560   3.619   5.322   0.277  0.5977 -0.4492  0.2271
13382TIP3    H161561   3.635   5.353   0.188  0.7625  0.9505  0.7289
13382TIP3    H261562   3.527   5.296   0.278  0.8639 -1.5165 -0.6293
13383TIP3   OH261563   0.751   3.807   4.983 -0.8024  0.1766  0.2731
13383TIP3    H161564   0.767   3.845   4.896 -2.2316  0.9763  0.3354
13383TIP3    H261565   0.832   3.760   5.003  0.2432  1.4555 -0.7137
13384TIP3   OH261566   3.985   0.515   1.914 -0.2966 -0.1118 -0.2376
13384TIP3    H161567   4.004   0.542   2.003  0.0382 -1.7780  0.2302
13384TIP3    H261568   3.902   0.469   1.920  1.3148 -3.2666 -0.0742
13385TIP3   OH261569   5.478   6.452  15.737  0.1889  0.0268  0.4114
13385TIP3    H161570   5.421   6.497  15.676 -0.8886 -1.3947  0.3120
13385TIP3    H261571   5.565   6.458  15.698 -0.4026 -0.4182 -1.0155
13386TIP3   OH261572   2.202   4.599  13.450 -0.9409  0.0121  0.0893
13386TIP3    H161573   2.183   4.507  13.432 -2.7221  0.1725  0.9636
13386TIP3    H261574   2.232   4.600  13.541 -0.2587  0.2442 -0.1251
13387TIP3   OH261575   1.847   1.596   2.971 -0.9080 -0.0902 -0.2597
13387TIP3    H161576   1.854   1.664   3.038 -0.9914 -1.8511  1.6553
13387TIP3    H261577   1.753   1.587   2.955 -0.9594 -0.3190  0.1430
13388TIP3   OH261578   2.005   5.133  14.035 -0.5698 -0.0320  0.6866
13388TIP3    H161579   1.967   5.051  14.066 -0.0510 -0.0472  1.3086
13388TIP3    H261580   1.931   5.194  14.030 -1.0530 -0.6728 -0.3127
13389TIP3   OH261581   3.391   0.251   2.440  0.2752  0.4338  0.4991
13389TIP3    H161582   3.410   0.342   2.463  0.9495  0.1296  1.1548
13389TIP3    H261583   3.308   0.256   2.392  0.7129  1.4841 -0.1929
13390TIP3   OH261584   0.249   0.444   1.843 -0.2340 -0.0125 -0.1487
13390TIP3    H161585   0.219   0.359   1.812 -0.7433 -0.1879  0.8062
13390TIP3    H261586   0.182   0.505   1.813 -0.9868 -0.2493  0.9896
13391TIP3   OH261587   5.880   2.066   3.998  0.5904  0.7474 -0.2990
13391TIP3    H161588   5.953   2.036   3.944  2.4150  0.3050  2.2063
13391TIP3    H261589   5.828   1.987   4.014  0.8264  0.5915 -0.2919
13392TIP3   OH261590   3.559   6.431   3.592 -0.4138  0.6217  0.1022
13392TIP3    H161591   3.533   6.383   3.670 -1.3067 -0.0269 -0.5793
13392TIP3    H261592   3.555   6.367   3.522  0.3339  1.2072 -0.5019
13393TIP3   OH261593   6.004   5.297   1.977  0.2469 -0.4537 -0.7216
13393TIP3    H161594   5.926   5.300   1.923  0.7471 -1.6384 -1.5722
13393TIP3    H261595   5.972   5.272   2.064 -0.7885  3.3090  0.1246
13394TIP3   OH261596   6.658   2.485   5.856 -0.0216 -0.8461 -0.0293
13394TIP3    H161597   6.598   2.432   5.908 -0.7182 -0.2755 -0.2363
13394TIP3    H261598   6.646   2.575   5.888 -1.1120 -0.3303 -1.7077
13395TIP3   OH261599   2.651   3.291   0.969  0.4365  0.4857  0.2804
13395TIP3    H161600   2.696   3.376   0.974  0.3176  0.5296  0.5947
13395TIP3    H261601   2.660   3.265   0.877 -0.8404  1.5557 -0.1824
13396TIP3   OH261602   5.772   3.589   3.826  0.0796 -0.3653  0.3772
13396TIP3    H161603   5.857   3.562   3.793 -1.0462 -0.6971 -2.5498
13396TIP3    H261604   5.719   3.509   3.825 -0.5236  0.0020  1.3018
13397TIP3   OH261605   4.114   4.731   2.154 -0.2107  0.0144 -0.4351
13397TIP3    H161606   4.060   4.804   2.122  0.2419  0.0833 -1.0632
13397TIP3    H261607   4.055   4.655   2.154 -0.4974  0.2357 -0.4300
13398TIP3   OH261608   0.212   5.376   1.693 -0.4540 -0.5198 -0.0620
13398TIP3    H161609   0.209   5.302   1.752  0.4879 -0.1431  0.4707
13398TIP3    H261610   0.283   5.356   1.632 -0.4294 -0.2134 -0.1369
13399TIP3   OH261611   3.868   4.321  16.770 -0.0222  0.0095 -0.3743
13399TIP3    H161612   3.869   4.414  16.795  0.6421  0.1656 -0.9594
13399TIP3    H261613   3.860   4.274  16.853 -2.0772  0.6122 -0.1716
13400TIP3   OH261614   0.267   4.293   4.426  0.5823 -0.4340 -0.2263
13400TIP3    H161615   0.295   4.345   4.350  1.4448  0.3411  0.5977
13400TIP3    H261616   0.205   4.229   4.390  1.1052 -0.1933 -1.6073
13401TIP3   OH261617   1.583   0.709   3.916  0.2358  0.3046 -0.4617
13401TIP3    H161618   1.622   0.672   3.836  0.2209 -0.1704 -0.2556
13401TIP3    H261619   1.509   0.761   3.885  1.5145  1.9081 -0.9324
13402TIP3   OH261620   4.876   3.716  16.851 -0.0719  0.3222 -0.4527
13402TIP3    H161621   4.950   3.743  16.905 -1.1260 -0.5917  1.6056
13402TIP3    H261622   4.891   3.756  16.766  1.6090  2.0248  0.5733
13403TIP3   OH261623   0.247   0.509  15.101 -0.1115 -0.8891  0.0526
13403TIP3    H161624   0.330   0.532  15.142 -0.3315 -1.5702  0.9057
13403TIP3    H261625   0.229   0.420  15.130 -0.7844 -1.0229 -0.7178
13404TIP3   OH261626   5.172   1.064   2.957 -0.8367 -0.1462  0.4014
13404TIP3    H161627   5.220   1.070   3.039 -2.9891 -1.2758  1.8588
13404TIP3    H261628   5.191   0.977   2.923  1.7765  1.0412 -1.5903
13405TIP3   OH261629   6.351   2.806   1.157  0.1765  0.1736  0.1467
13405TIP3    H161630   6.413   2.783   1.226  0.5031  0.5190 -0.0336
13405TIP3    H261631   6.277   2.746   1.171  0.2229  0.2620  0.8156
13406TIP3   OH261632   1.931   5.121   3.388  0.1956 -0.5168  0.1479
13406TIP3    H161633   1.957   5.151   3.475 -0.7835  0.1403  0.2305
13406TIP3    H261634   1.838   5.144   3.381  0.6975  1.2046 -1.7771
13407TIP3   OH261635   1.863   6.322   6.442 -0.0266 -0.0677  0.1031
13407TIP3    H161636   1.946   6.332   6.396 -0.1788 -0.3641 -0.2435
13407TIP3    H261637   1.882   6.260   6.513  0.3009  0.6886  0.6838
13408TIP3   OH261638   0.654   5.337   4.866 -0.5118  0.5497 -0.6725
13408TIP3    H161639   0.748   5.324   4.854 -0.6934  0.8866 -2.7223
13408TIP3    H261640   0.613   5.269   4.812 -1.5177 -0.9451  1.7852
13409TIP3   OH261641   6.181   6.222   1.630 -0.3604  0.6493  0.4757
13409TIP3    H161642   6.256   6.180   1.672 -0.2896  1.7807  1.5584
13409TIP3    H261643   6.219   6.274   1.559 -0.3346 -0.2286 -0.1646
13410TIP3   OH261644   5.589   5.990  12.788  0.3860  0.2494  0.1919
13410TIP3    H161645   5.544   6.075  12.793  0.8401  0.4540  0.9214
13410TIP3    H261646   5.668   6.009  12.738  0.8556  0.4328  0.9815
13411TIP3   OH261647   4.619   1.084  15.949 -0.0436 -0.7946  0.3184
13411TIP3    H161648   4.570   1.031  16.011 -2.1821  0.2935 -0.3425
13411TIP3    H261649   4.705   1.042  15.943 -0.6706 -2.4221  1.9921
13412TIP3   OH261650   5.191   0.805   2.954  0.4250  0.1175  0.3260
13412TIP3    H161651   5.184   0.726   2.900 -1.6546 -0.3438  1.1755
13412TIP3    H261652   5.281   0.803   2.987  1.0043 -0.8586 -1.1717
13413TIP3   OH261653   4.004   3.231   3.334  0.0655 -0.3711  0.1905
13413TIP3    H161654   4.086   3.242   3.382 -0.7505 -1.3410  1.8964
13413TIP3    H261655   3.981   3.319   3.306  0.8853  0.1414  1.0732
13414TIP3   OH261656   0.344   2.496  17.059 -0.3709 -0.9223 -0.2935
13414TIP3    H161657   0.418   2.498  16.999  0.2003  1.6934  0.3612
13414TIP3    H261658   0.381   2.521  17.144 -1.8420 -0.3905  0.2330
13415TIP3   OH261659   5.170   2.253  12.224  0.0519 -0.0475  0.2333
13415TIP3    H161660   5.176   2.347  12.243  1.5140 -0.0043 -0.2676
13415TIP3    H261661   5.165   2.211  12.309  1.7819  0.3819  0.5875
13416TIP3   OH261662   2.062   6.583   4.063 -0.8268 -0.0250 -0.5683
13416TIP3    H161663   2.072   6.671   4.101 -0.2608  0.8711 -2.6477
13416TIP3    H261664   1.968   6.564   4.071 -1.0882  1.0977 -0.7520
13417TIP3   OH261665   1.095   0.890   5.421  0.6087  0.0059 -0.2140
13417TIP3    H161666   1.062   0.892   5.511  1.2032  1.7039  0.0005
13417TIP3    H261667   1.019   0.908   5.367  0.6567  1.2756  0.1126
13418TIP3   OH261668   6.733   0.681  14.795 -0.3979 -0.5179 -0.2312
13418TIP3    H161669   6.747   0.612  14.860 -0.9364 -0.6245 -0.2241
13418TIP3    H261670   6.799   0.747  14.816  0.8062 -1.4893 -0.8853
13419TIP3   OH261671   0.829   4.671   2.649  0.2856  0.0962  0.1480
13419TIP3    H161672   0.747   4.667   2.601 -0.7351 -0.1860  1.8209
13419TIP3    H261673   0.835   4.762   2.680  1.1938  0.4142 -0.8994
13420TIP3   OH261674   1.191   5.457  12.528 -0.2122  0.0200  0.0113
13420TIP3    H161675   1.280   5.465  12.560 -0.6016  0.5665  0.9898
13420TIP3    H261676   1.200   5.422  12.439  0.8689 -1.6082  0.7364
13421TIP3   OH261677   4.580   0.082   1.879 -0.0114  0.0524 -0.4735
13421TIP3    H161678   4.569   0.177   1.887 -1.4187 -0.1196 -0.0441
13421TIP3    H261679   4.613   0.069   1.790 -0.4171  0.9036 -0.7630
13422TIP3   OH261680   1.526   0.073  12.516  0.2064  0.2451 -0.0908
13422TIP3    H161681   1.542   0.067  12.610  2.3336  0.4834 -0.3984
13422TIP3    H261682   1.458   0.140  12.508  1.8020  2.1481  1.1713
13423TIP3   OH261683   1.335   3.080  12.507 -0.2447  0.9555  0.2963
13423TIP3    H161684   1.406   3.025  12.539  0.0499  0.3825 -1.2297
13423TIP3    H261685   1.259   3.022  12.503 -0.1769  0.9065 -0.3913
13424TIP3   OH261686   4.019   4.062  15.764  0.1263 -0.5325  0.7286
13424TIP3    H161687   4.046   4.088  15.676  2.0937  1.4339  1.8143
13424TIP3    H261688   4.041   3.969  15.769 -1.7713 -1.1782 -1.4094
13425TIP3   OH261689   1.676   4.799   5.310 -0.2283  0.4403  0.2794
13425TIP3    H161690   1.693   4.799   5.215  1.4335 -0.8526  0.5230
13425TIP3    H261691   1.612   4.729   5.323 -0.7401  0.8668  0.0786
13426TIP3   OH261692   5.584   1.620   5.422 -0.2066  0.1227  0.3784
13426TIP3    H161693   5.577   1.656   5.510  0.2766  0.2807  0.3544
13426TIP3    H261694   5.545   1.533   5.428 -0.4862  0.2678  0.6685
13427TIP3   OH261695   2.203   2.073   6.588 -0.4394  0.2978  0.2121
13427TIP3    H161696   2.287   2.102   6.622 -0.4375 -1.2444  1.6696
13427TIP3    H261697   2.209   2.085   6.493  1.7366 -0.4887  0.2016
13428TIP3   OH261698   1.018   4.949  11.281  0.6053  0.2076  0.0837
13428TIP3    H161699   1.018   4.939  11.377  0.8638 -0.7106  0.0007
13428TIP3    H261700   1.084   4.887  11.250 -0.6219 -0.7234 -0.7870
13429TIP3   OH261701   5.535   3.341   5.347 -0.5268 -0.1776  0.2972
13429TIP3    H161702   5.459   3.287   5.326 -0.0844 -0.6083 -0.2332
13429TIP3    H261703   5.515   3.380   5.433 -2.0420  0.9925 -0.5327
13430TIP3   OH261704   3.436   4.546   5.737  0.4384 -0.7967  0.1093
13430TIP3    H161705   3.507   4.503   5.689  1.4595  2.3961 -1.4916
13430TIP3    H261706   3.457   4.533   5.829  2.3927 -1.0439 -0.3326
13431TIP3   OH261707   0.994   3.497   3.584  0.1458  0.0435 -0.0869
13431TIP3    H161708   0.899   3.502   3.574  0.1505  0.2820 -0.0335
13431TIP3    H261709   1.025   3.458   3.503  0.1076  1.1268 -0.6403
13432TIP3   OH261710   0.111   2.289   0.115 -0.3715 -0.0762  0.6702
13432TIP3    H161711   0.058   2.239   0.053  0.3067 -1.3213  1.0618
13432TIP3    H261712   0.201   2.266   0.094  0.1986  3.1376 -0.9390
13433TIP3   OH261713   4.555   6.691   4.899 -0.3336 -0.0096  0.1581
13433TIP3    H161714   4.605   6.664   4.976  0.7228 -0.7389 -0.7546
13433TIP3    H261715   4.600   6.769   4.867 -1.4049  0.9348  0.8621
13434TIP3   OH261716   0.963   1.463   3.203 -0.9690  0.1801  0.1728
13434TIP3    H161717   0.881   1.413   3.211 -1.0922  0.1426 -1.1592
13434TIP3    H261718   1.028   1.398   3.178  0.0027 -0.2039  3.2283
13435TIP3   OH261719   1.951   3.865   3.263  0.5127 -0.1073  0.4899
13435TIP3    H161720   1.983   3.951   3.236 -0.4354 -0.0018 -0.3596
13435TIP3    H261721   1.946   3.870   3.359  1.7204  0.3183  0.5469
13436TIP3   OH261722   1.110   4.576  11.674 -0.5778 -0.0517  0.3244
13436TIP3    H161723   1.041   4.522  11.711  0.6597 -0.6527  1.8834
13436TIP3    H261724   1.129   4.536  11.589 -1.5064 -0.4168  0.2784
13437TIP3   OH261725   5.406   2.804  14.978 -0.1130  0.4249 -0.1545
13437TIP3    H161726   5.453   2.853  15.045 -0.1016 -1.7060  1.5174
13437TIP3    H261727   5.319   2.845  14.975 -0.1296  0.5495  1.2422
13438TIP3   OH261728   1.679   3.943  13.886 -0.1243  0.1193 -1.1737
13438TIP3    H161729   1.688   3.861  13.838  0.4907  0.3445 -1.4647
13438TIP3    H261730   1.767   3.959  13.921 -0.6776 -0.2950  0.4642
13439TIP3   OH261731   5.476   2.622   1.309 -0.1775  0.0220 -0.1378
13439TIP3    H161732   5.474   2.550   1.372  2.7964  0.4962  0.6470
13439TIP3    H261733   5.557   2.608   1.260 -0.1720  2.1179 -0.8139
13440TIP3   OH261734   2.668   4.752   4.736 -0.2695  0.3368 -0.3585
13440TIP3    H161735   2.595   4.764   4.797  0.3063  1.4554  0.1243
13440TIP3    H261736   2.632   4.773   4.650 -0.6623  0.2947 -0.2063
13441TIP3   OH261737   6.381   4.257  13.179 -0.2450 -0.6273  0.2386
13441TIP3    H161738   6.458   4.258  13.122  0.5300  0.6508  1.2665
13441TIP3    H261739   6.311   4.294  13.125  0.3063 -0.1179 -0.1393
13442TIP3   OH261740   5.427   6.354  15.120  0.7495  0.2233  0.4084
13442TIP3    H161741   5.379   6.433  15.095  0.3133  0.1074  0.8719
13442TIP3    H261742   5.359   6.287  15.131  1.2928 -1.1653 -3.2406
13443TIP3   OH261743   3.084   3.025   3.187  0.1204 -0.3380  0.9142
13443TIP3    H161744   3.040   3.043   3.270  0.1875  3.4474  0.3155
13443TIP3    H261745   3.020   3.047   3.120  1.4911  1.2267  0.0403
13444TIP3   OH261746   2.357   2.517  13.672  0.1584 -0.2507 -0.7095
13444TIP3    H161747   2.444   2.483  13.691  0.7054  0.8327 -1.1822
13444TIP3    H261748   2.347   2.592  13.731  0.5156  1.0644 -2.2354
13445TIP3   OH261749   2.395   1.040   3.258  0.3224 -0.5101  0.1149
13445TIP3    H161750   2.451   0.965   3.279 -0.0876 -1.2180 -1.2422
13445TIP3    H261751   2.307   1.012   3.284  0.2841 -0.1788  0.3526
13446TIP3   OH261752   6.224   2.020  12.966  0.2303 -0.1782  0.4722
13446TIP3    H161753   6.248   2.106  13.002 -0.7063 -0.1043  0.9577
13446TIP3    H261754   6.131   2.011  12.986 -1.0483  0.8749 -3.9033
13447TIP3   OH261755   1.540   0.286  13.266  0.2816 -0.2373 -0.0735
13447TIP3    H161756   1.505   0.234  13.194  1.2459  0.1134 -0.8219
13447TIP3    H261757   1.471   0.286  13.332 -1.0405  0.2337 -1.3987
13448TIP3   OH261758   4.137   4.780  12.315 -0.1830 -0.2058 -0.0861
13448TIP3    H161759   4.214   4.830  12.340 -0.8343  0.7999 -0.0285
13448TIP3    H261760   4.135   4.706  12.375  2.2972 -1.8863 -1.8809
13449TIP3   OH261761   6.672   5.688   3.245  0.0998  0.1706  0.2858
13449TIP3    H161762   6.639   5.609   3.202  1.1199 -0.2555  0.2611
13449TIP3    H261763   6.652   5.759   3.184  0.5541 -0.2807 -0.3905
13450TIP3   OH261764   4.634   0.592  13.147  0.8432 -0.2413  0.0066
13450TIP3    H161765   4.586   0.640  13.079  1.1856 -1.2827 -1.0018
13450TIP3    H261766   4.579   0.601  13.225 -0.5836 -0.6802 -0.8988
13451TIP3   OH261767   2.523   2.642  16.500  0.1019  0.1455  0.1168
13451TIP3    H161768   2.455   2.578  16.522 -1.0070  1.3246  0.2236
13451TIP3    H261769   2.600   2.614  16.549 -0.4937 -0.8399  0.5079
13452TIP3   OH261770   6.485   1.948   1.227 -0.3860 -0.3610  0.3704
13452TIP3    H161771   6.507   1.908   1.143 -1.4581  1.1770 -0.7037
13452TIP3    H261772   6.568   1.980   1.261 -0.2700  1.7984 -1.6779
13453TIP3   OH261773   6.088   6.232   0.023 -0.1013 -0.4367  0.0804
13453TIP3    H161774   6.033   6.207   0.098  2.2566  2.0566  2.9527
13453TIP3    H261775   6.164   6.175   0.029  1.0699  1.1298  1.0345
13454TIP3   OH261776   0.917   6.453  11.045 -0.1998 -0.1090  0.0825
13454TIP3    H161777   0.851   6.491  10.987  0.6831 -0.0727 -0.9370
13454TIP3    H261778   0.941   6.525  11.104  0.3581  0.5094 -0.8533
13455TIP3   OH261779   2.995   3.213   0.405  0.3788 -0.0193 -0.3807
13455TIP3    H161780   3.004   3.307   0.388 -1.8909  0.5401  1.0320
13455TIP3    H261781   3.048   3.198   0.484  1.7683 -0.2608 -1.3081
13456TIP3   OH261782   6.723   0.580  12.089 -0.4379 -0.3339 -0.5107
13456TIP3    H161783   6.764   0.494  12.101  0.8882  0.5658  2.1766
13456TIP3    H261784   6.715   0.590  11.994 -1.4639 -3.7600 -0.9197
13457TIP3   OH261785   3.435   3.935  11.347  0.0678  0.2551 -0.2253
13457TIP3    H161786   3.492   3.866  11.313 -1.4267  0.0824 -2.6340
13457TIP3    H261787   3.440   4.005  11.282 -0.8807  1.1124  0.5838
13458TIP3   OH261788   5.269   4.929  12.107 -0.1389 -0.1598  0.1980
13458TIP3    H161789   5.346   4.972  12.069 -1.2037  1.4082 -0.2653
13458TIP3    H261790   5.260   4.848  12.057  1.0833 -0.2864  0.1395
13459TIP3   OH261791   5.659   5.263   1.369 -0.3330  0.2196  0.2845
13459TIP3    H161792   5.705   5.189   1.327 -4.0900 -2.1825 -0.0790
13459TIP3    H261793   5.631   5.318   1.295 -1.0134 -0.2643  0.1676
13460TIP3   OH261794   0.516   1.214   1.667 -0.3928  0.1133 -0.4325
13460TIP3    H161795   0.607   1.208   1.695 -0.8191  0.7866  1.2590
13460TIP3    H261796   0.515   1.178   1.579  1.2617 -1.1988  0.0387
13461TIP3   OH261797   1.865   0.570   0.251  0.5646  0.2671 -0.3665
13461TIP3    H161798   1.941   0.513   0.263  1.3798  1.1942 -0.9003
13461TIP3    H261799   1.856   0.615   0.335  0.0538 -0.4714 -0.0169
13462TIP3   OH261800   4.957   0.397  11.068  0.1270 -0.2437  0.0189
13462TIP3    H161801   4.944   0.363  10.979 -2.1096  0.8917 -0.1871
13462TIP3    H261802   4.912   0.482  11.067  0.5360  0.0453  2.0854
13463TIP3   OH261803   3.620   3.021  13.915  0.0664 -0.7001 -0.5298
13463TIP3    H161804   3.656   3.110  13.920 -0.6612 -0.4668  1.3020
13463TIP3    H261805   3.629   2.997  13.823  0.5216  1.1751 -1.0221
13464TIP3   OH261806   0.072   5.476  16.860 -0.2860 -0.0139 -0.3661
13464TIP3    H161807   0.141   5.461  16.925 -1.4168  0.1693  0.9307
13464TIP3    H261808   0.025   5.393  16.856  1.4529 -1.0323 -3.1608
13465TIP3   OH261809   3.731   0.086   0.709  0.0691  0.0798 -0.4514
13465TIP3    H161810   3.761   0.048   0.626  1.4572 -1.0295  0.5133
13465TIP3    H261811   3.664   0.026   0.740 -0.9634  0.8743 -1.0800
13466TIP3   OH261812   6.234   2.135  11.836  0.3186 -0.1395 -0.8537
13466TIP3    H161813   6.165   2.068  11.835 -1.0157  1.1419 -0.1546
13466TIP3    H261814   6.225   2.176  11.923 -0.4200  2.3864 -2.0249
13467TIP3   OH261815   6.545   4.945  12.712 -0.2724  0.2490  0.6441
13467TIP3    H161816   6.624   4.901  12.741 -0.1742  0.4488  0.6795
13467TIP3    H261817   6.572   4.995  12.635 -0.3915  0.2154  0.5798
13468TIP3   OH261818   3.985   1.209  13.353  0.2117  0.4617  0.0947
13468TIP3    H161819   3.952   1.279  13.298 -1.1527  0.2846  0.6587
13468TIP3    H261820   3.937   1.131  13.324  0.4474  0.1085  0.6458
13469TIP3   OH261821   5.476   6.437   5.433 -0.1038 -0.2763  0.0488
13469TIP3    H161822   5.474   6.359   5.377  0.8693  0.1982 -0.6828
13469TIP3    H261823   5.566   6.442   5.465 -0.2266  0.3934  0.3089
13470TIP3   OH261824   0.431   1.729   3.081  0.2070  0.8152  0.2529
13470TIP3    H161825   0.482   1.716   3.001  1.3263  0.3371  1.0091
13470TIP3    H261826   0.359   1.666   3.074 -0.5534  1.8026 -1.0334
13471TIP3   OH261827   4.904   1.753   4.929 -0.0642  0.0069 -0.3833
13471TIP3    H161828   4.834   1.746   4.994  0.1802 -0.2056 -0.1406
13471TIP3    H261829   4.978   1.787   4.977 -0.0555  0.4208 -0.6839
13472TIP3   OH261830   3.414   6.478   3.295 -0.3039 -0.2395  0.5380
13472TIP3    H161831   3.502   6.513   3.285 -0.4227 -0.0186  0.2305
13472TIP3    H261832   3.409   6.406   3.233  0.3989 -1.7346  2.1476
13473TIP3   OH261833   6.378   4.731   5.327  0.6492 -0.7828 -0.2339
13473TIP3    H161834   6.347   4.739   5.237 -0.4925 -0.8010  0.1382
13473TIP3    H261835   6.372   4.819   5.363  1.0038 -0.7954 -0.1368
13474TIP3   OH261836   2.311   0.865   4.304  0.8438  0.0681 -0.5259
13474TIP3    H161837   2.278   0.809   4.375 -1.2565  0.9928 -0.7119
13474TIP3    H261838   2.342   0.803   4.238  3.0592 -0.8259  1.1922
13475TIP3   OH261839   1.828   1.680  14.531 -0.8355 -0.0705  0.2465
13475TIP3    H161840   1.767   1.727  14.588 -1.2025 -1.6688  1.2478
13475TIP3    H261841   1.789   1.593  14.521  1.6275 -1.4189  1.5649
13476TIP3   OH261842   5.647   5.214   0.988 -0.0129  0.1317 -0.0713
13476TIP3    H161843   5.639   5.120   0.976  0.9469 -0.0121  0.3188
13476TIP3    H261844   5.557   5.247   0.985 -0.4567 -0.9351  0.9126
13477TIP3   OH261845   1.816   6.590   4.186  0.0917 -0.4096  0.3318
13477TIP3    H161846   1.765   6.648   4.242 -3.1528 -1.7965 -0.9788
13477TIP3    H261847   1.760   6.514   4.172  2.8877 -2.4721 -0.6158
13478TIP3   OH261848   0.513   5.242  14.099 -1.3294  0.5484  0.3587
13478TIP3    H161849   0.595   5.194  14.111 -1.5449  0.0995  0.0696
13478TIP3    H261850   0.540   5.327  14.064 -1.1087 -0.3490 -1.7744
13479TIP3   OH261851   1.886   2.253   0.883 -0.3523 -0.4322 -0.0094
13479TIP3    H161852   1.936   2.295   0.813 -0.6789  0.3391  0.2086
13479TIP3    H261853   1.814   2.314   0.901 -0.7126 -0.9879  0.4680
13480TIP3   OH261854   1.953   0.817  11.592  0.0240 -0.1681 -0.8334
13480TIP3    H161855   2.009   0.895  11.586 -0.1713  0.2768  1.9478
13480TIP3    H261856   2.002   0.758  11.649 -0.8201 -1.2054 -1.1717
13481TIP3   OH261857   5.751   0.384  14.681  0.0375  0.1113 -0.1187
13481TIP3    H161858   5.830   0.347  14.641  0.7035  1.4843 -0.1222
13481TIP3    H261859   5.695   0.308  14.698  1.6212 -0.9775  0.4766
13482TIP3   OH261860   1.401   1.738  11.049  0.5256  0.0248 -0.0084
13482TIP3    H161861   1.420   1.757  10.957 -0.8858 -0.4959 -0.4359
13482TIP3    H261862   1.483   1.702  11.083  0.5768 -1.4858 -1.5509
13483TIP3   OH261863   5.552   2.592  15.882  0.3685 -0.4357 -0.7070
13483TIP3    H161864   5.517   2.643  15.809 -1.6547 -1.8334 -0.8167
13483TIP3    H261865   5.476   2.547  15.918  1.4418 -0.4349  1.7817
13484TIP3   OH261866   2.049   1.004   5.432 -0.3409  0.0132 -0.4082
13484TIP3    H161867   2.005   1.042   5.508  0.1409 -0.9513  0.3864
13484TIP3    H261868   1.986   1.012   5.361 -1.0981  0.2700  0.2780
13485TIP3   OH261869   3.963   5.087  13.756  0.0117 -0.4640 -0.2939
13485TIP3    H161870   3.988   5.177  13.779  0.0692 -0.3383 -0.8284
13485TIP3    H261871   3.980   5.036  13.835 -2.1196  0.3645  0.7693
13486TIP3   OH261872   4.788   0.397   0.620  0.6402 -0.0816  0.3369
13486TIP3    H161873   4.857   0.429   0.678  0.1774  0.1131  0.7829
13486TIP3    H261874   4.798   0.301   0.622  1.6458 -0.0110 -0.5380
13487TIP3   OH261875   1.249   0.316   3.434  0.0996 -0.8476  0.3008
13487TIP3    H161876   1.204   0.307   3.350 -3.5726  3.0849  1.4700
13487TIP3    H261877   1.198   0.261   3.494  0.2255 -0.5272  0.7000
13488TIP3   OH261878   3.186   0.457  14.213 -0.4937 -0.4201 -0.1473
13488TIP3    H161879   3.226   0.417  14.136  1.0065  0.6188  0.0422
13488TIP3    H261880   3.178   0.550  14.190 -1.1667 -0.3060  0.5061
13489TIP3   OH261881   0.703   4.863   0.260  0.0905  0.4082 -0.2256
13489TIP3    H161882   0.620   4.823   0.236 -1.1445  1.7343  1.6016
13489TIP3    H261883   0.734   4.906   0.181 -2.1187  1.8033 -0.3906
13490TIP3   OH261884   3.797   2.010   1.703  0.3810  0.3617  0.9537
13490TIP3    H161885   3.833   2.010   1.791 -0.6541  1.8180  1.4069
13490TIP3    H261886   3.826   2.092   1.664  2.8003 -1.2628 -0.9709
13491TIP3   OH261887   5.751   4.879   4.356  0.1329 -0.4870  0.0673
13491TIP3    H161888   5.701   4.803   4.385  0.3908 -0.2850  1.0544
13491TIP3    H261889   5.698   4.917   4.286 -0.5086 -0.9651  0.2880
13492TIP3   OH261890   3.913   4.741  12.146 -0.4723  0.1593  0.0104
13492TIP3    H161891   3.974   4.785  12.205  1.0655  1.0356 -2.1091
13492TIP3    H261892   3.827   4.777  12.168  0.2984  1.7217  0.5641
13493TIP3   OH261893   1.947   4.662   3.546  0.8835  0.0426 -0.1251
13493TIP3    H161894   2.033   4.645   3.585  0.8844  1.4655  0.5483
13493TIP3    H261895   1.966   4.699   3.460  1.0722  3.0172  1.1024
13494TIP3   OH261896   1.458   0.252  15.911 -0.3252  0.4154  0.3065
13494TIP3    H161897   1.414   0.279  15.991 -1.3002 -1.1668  0.3407
13494TIP3    H261898   1.549   0.280  15.923 -0.4099  0.0395  2.0376
13495TIP3   OH261899   3.334   2.496   3.418  0.5407  0.4907  0.1640
13495TIP3    H161900   3.375   2.421   3.461 -0.1222 -0.0293 -0.0902
13495TIP3    H261901   3.289   2.542   3.489  0.0998  0.0723  0.1598
13496TIP3   OH261902   1.175   5.699  14.384  0.0694  0.3170 -0.2426
13496TIP3    H161903   1.157   5.695  14.290  0.0657 -0.8820 -0.2100
13496TIP3    H261904   1.093   5.728  14.424 -0.1135  0.2288 -0.5570
13497TIP3   OH261905   5.434   0.444  13.643 -0.0451  0.3085 -0.5712
13497TIP3    H161906   5.519   0.484  13.625  0.2075 -0.1697 -0.4539
13497TIP3    H261907   5.380   0.466  13.567  1.0580 -1.8759 -2.1009
13498TIP3   OH261908   6.569   0.591  14.569 -0.1256 -0.1642  0.5384
13498TIP3    H161909   6.625   0.630  14.636  0.9577  1.2984 -1.1273
13498TIP3    H261910   6.623   0.524  14.528  0.1957  0.7212 -0.5528
13499TIP3   OH261911   1.584   4.426  16.055 -0.2693  0.0968 -0.1666
13499TIP3    H161912   1.672   4.452  16.082 -0.8422  1.0178  0.8960
13499TIP3    H261913   1.541   4.509  16.033 -1.2354 -0.2253  0.4665
13500TIP3   OH261914   4.762   3.293   5.166  0.0554 -0.2448 -0.7811
13500TIP3    H161915   4.840   3.348   5.156 -1.2707  1.5128 -2.3629
13500TIP3    H261916   4.785   3.211   5.124  0.8014  0.5700 -2.0322
13501TIP3   OH261917   5.525   4.132   4.995  0.4353 -0.4940 -0.0419
13501TIP3    H161918   5.620   4.143   4.991  0.4679 -0.7228  0.0766
13501TIP3    H261919   5.496   4.146   4.905  0.6261 -0.8243 -0.1573
13502TIP3   OH261920   2.312   6.787   4.477 -0.5001 -0.3484 -0.0639
13502TIP3    H161921   2.316   6.796   4.382  1.3394 -0.8167 -0.0514
13502TIP3    H261922   2.357   6.705   4.496  0.3312  0.3971  1.3109
13503TIP3   OH261923   4.017   4.589  15.026  0.1951  0.6665 -0.5093
13503TIP3    H161924   3.968   4.567  15.105  1.1334 -1.2928 -0.4105
13503TIP3    H261925   4.105   4.557  15.042  0.4499  0.3700 -2.2825
13504TIP3   OH261926   1.591   0.174   2.672  0.2898  0.4041  0.8315
13504TIP3    H161927   1.664   0.222   2.632  0.5887 -2.0044 -1.8487
13504TIP3    H261928   1.632   0.109   2.728  0.0253  1.0320  1.7774
13505TIP3   OH261929   1.058   3.918  15.744  0.1100  0.1740 -0.1895
13505TIP3    H161930   1.001   3.864  15.690  0.0228 -0.5183  0.5829
13505TIP3    H261931   1.107   3.855  15.797  0.7252  0.8143  0.0197
13506TIP3   OH261932   5.468   4.104  13.288 -0.5182 -0.3275  0.6929
13506TIP3    H161933   5.511   4.180  13.330  1.1881 -1.4242  1.0502
13506TIP3    H261934   5.467   4.037  13.356 -0.5342 -1.1398 -0.0923
13507TIP3   OH261935   0.173   1.474  17.023 -0.2767 -0.2509  0.2239
13507TIP3    H161936   0.211   1.446  17.107 -0.2949  1.0677  0.7019
13507TIP3    H261937   0.104   1.536  17.048  0.9720  1.6529 -0.7967
13508TIP3   OH261938   1.088   3.838   1.387 -0.3780 -0.2977  0.0224
13508TIP3    H161939   1.013   3.808   1.440 -0.8079  0.5140 -0.1180
13508TIP3    H261940   1.049   3.867   1.305  0.1109  0.0064 -0.1035
13509TIP3   OH261941   3.704   2.369   4.312 -0.0494 -0.2588  0.0497
13509TIP3    H161942   3.717   2.286   4.357  0.1500 -0.5021 -0.4491
13509TIP3    H261943   3.721   2.436   4.379  1.9105 -0.5809 -0.0593
13510TIP3   OH261944   2.136   1.875  14.616  0.1008  0.1395  0.6821
13510TIP3    H161945   2.122   1.822  14.537 -0.1520 -0.4331  1.1026
13510TIP3    H261946   2.231   1.880  14.624  0.1284  0.2005  0.3424
13511TIP3   OH261947   6.233   1.408  12.359  0.3285  0.6226 -0.2868
13511TIP3    H161948   6.169   1.390  12.428 -1.1666  1.1316 -1.4819
13511TIP3    H261949   6.207   1.493  12.323  2.2293  1.2712 -0.2436
13512TIP3   OH261950   4.544   1.099   6.419 -0.0242 -0.5101  0.3458
13512TIP3    H161951   4.631   1.120   6.385 -0.2196  0.1300  0.2134
13512TIP3    H261952   4.500   1.184   6.426 -0.8009 -0.8614 -0.0376
13513TIP3   OH261953   2.952   5.923   4.432  0.4719  0.0258  0.3922
13513TIP3    H161954   2.972   5.997   4.488 -0.4089 -0.7364  1.7712
13513TIP3    H261955   3.033   5.907   4.383  0.5879  2.0254 -0.1192
13514TIP3   OH261956   4.924   1.757   1.281 -0.0525 -0.2474  0.2254
13514TIP3    H161957   5.017   1.744   1.262 -0.3192 -0.7208 -0.8716
13514TIP3    H261958   4.915   1.741   1.375  0.9337 -0.4167  0.2968
13515TIP3   OH261959   5.708   0.487  13.628 -0.4141 -0.3818 -0.1327
13515TIP3    H161960   5.703   0.540  13.549  2.0842  0.4745  0.1833
13515TIP3    H261961   5.707   0.396  13.597  0.6653 -0.0534 -1.1987
13516TIP3   OH261962   6.527   2.710   4.048  0.3091 -0.3397 -0.1036
13516TIP3    H161963   6.459   2.660   4.093 -0.0203 -0.0482 -0.2716
13516TIP3    H261964   6.557   2.774   4.113  0.1177 -0.1823 -0.1724
13517TIP3   OH261965   6.200   4.639  12.156 -0.5125  0.4249  0.2057
13517TIP3    H161966   6.181   4.632  12.250 -0.9151 -1.7036  0.0062
13517TIP3    H261967   6.295   4.629  12.150 -0.4828  0.5906  0.3797
13518TIP3   OH261968   6.505   5.119  11.707  0.6675  0.1947  0.3150
13518TIP3    H161969   6.592   5.159  11.698  1.2755 -1.3192 -0.8226
13518TIP3    H261970   6.470   5.116  11.618 -0.3260  0.2719  0.6921
13519TIP3   OH261971   2.523   0.290  11.949  0.2795 -0.2323 -0.2881
13519TIP3    H161972   2.505   0.254  11.862 -0.0156 -1.5991  0.3137
13519TIP3    H261973   2.614   0.265  11.966  0.5036  0.4825 -0.4006
13520TIP3   OH261974   6.441   1.734   4.711 -0.3069  0.5208  0.1424
13520TIP3    H161975   6.370   1.736   4.776 -0.4395  0.5359 -0.0031
13520TIP3    H261976   6.426   1.652   4.663 -0.8724  1.0595 -0.6132
13521TIP3   OH261977   2.926   3.051  11.343 -0.4355  0.2364 -0.1652
13521TIP3    H161978   2.838   3.023  11.319  0.4385 -1.5712 -1.4483
13521TIP3    H261979   2.933   3.141  11.310 -1.3033 -0.1271 -1.3811
13522TIP3   OH261980   2.385   4.758   3.840  0.4309  0.1566  0.2539
13522TIP3    H161981   2.436   4.835   3.813  1.1222 -0.9884 -1.8840
13522TIP3    H261982   2.418   4.737   3.928  0.4309  2.0940  0.7628
13523TIP3   OH261983   3.456   3.074  14.539 -0.5929  0.0536  0.0223
13523TIP3    H161984   3.498   3.115  14.463  0.1152 -0.1887  0.2760
13523TIP3    H261985   3.363   3.076  14.518 -0.5016  0.9838 -0.3686
13524TIP3   OH261986   2.365   2.376   2.786  0.0800  0.3554 -0.5015
13524TIP3    H161987   2.299   2.327   2.835  0.4268 -0.9382 -1.2840
13524TIP3    H261988   2.323   2.394   2.701  0.1147  1.0618 -0.3798
13525TIP3   OH261989   1.904   3.198  14.711 -0.1467 -0.2389  0.7455
13525TIP3    H161990   1.900   3.118  14.660 -0.7320  1.5443 -2.2400
13525TIP3    H261991   1.829   3.192  14.770 -1.5691 -0.9406 -1.0290
13526TIP3   OH261992   4.854   0.593  12.924  0.2182 -1.1985 -0.4162
13526TIP3    H161993   4.884   0.674  12.965  0.7303 -1.3979 -0.3900
13526TIP3    H261994   4.766   0.579  12.961 -1.0297  0.7434 -2.4352
13527TIP3   OH261995   2.300   5.852  16.952 -0.5451  0.1815 -0.2621
13527TIP3    H161996   2.223   5.879  16.901 -1.3019 -1.2412  0.0656
13527TIP3    H261997   2.290   5.757  16.962  1.9969 -0.2975 -1.4139
13528TIP3   OH261998   4.363   3.264  11.693 -0.3655  0.1581  0.2325
13528TIP3    H161999   4.291   3.233  11.638  1.0052 -1.0138 -1.0038
13528TIP3    H262000   4.403   3.334  11.642 -0.7760  1.0182  1.0538
13529TIP3   OH262001   4.856   4.384  15.249 -0.9763  0.1336 -0.2244
13529TIP3    H162002   4.801   4.314  15.285 -0.2990  0.8965  2.5210
13529TIP3    H262003   4.797   4.458  15.238 -1.0587  0.1055  0.0209
13530TIP3   OH262004   6.112   3.575   3.264 -0.2264 -0.0569 -0.2079
13530TIP3    H162005   6.038   3.583   3.324 -0.4703  2.0741 -0.6903
13530TIP3    H262006   6.107   3.485   3.232  0.8617 -1.8703  4.0202
13531TIP3   OH262007   2.451   4.883   0.877  1.0280  0.2965  0.6015
13531TIP3    H162008   2.431   4.976   0.865  0.8605  0.4952  2.1335
13531TIP3    H262009   2.542   4.874   0.850  0.3499  0.3599 -1.9446
13532TIP3   OH262010   4.376   6.013   3.923 -0.1164  0.0344 -0.7741
13532TIP3    H162011   4.333   6.093   3.953  0.9534  0.3563 -0.0364
13532TIP3    H262012   4.459   6.011   3.971  1.0334 -0.1829 -2.6339
13533TIP3   OH262013   6.694   0.810   3.286  0.2928  0.0997 -0.5690
13533TIP3    H162014   6.750   0.798   3.362 -0.0218  0.8601 -0.2122
13533TIP3    H262015   6.749   0.783   3.212  1.0994  0.7333 -0.2187
13534TIP3   OH262016   3.839   5.319  16.973 -0.1081  0.1229  0.1235
13534TIP3    H162017   3.766   5.329  16.912  0.4390  1.6863 -0.3228
13534TIP3    H262018   3.823   5.384  17.041  0.8524  0.5069  0.0087
13535TIP3   OH262019   0.019   5.724   5.542 -0.1932  0.1240 -0.4962
13535TIP3    H162020   0.011   5.804   5.595  2.8212  1.9688 -2.4966
13535TIP3    H262021   0.093   5.677   5.581 -1.2916 -1.2454  0.0258
13536TIP3   OH262022   0.085   6.658  15.085 -0.7624  0.2609 -0.1141
13536TIP3    H162023   0.037   6.702  15.155  0.7213  2.7927 -0.5647
13536TIP3    H262024   0.052   6.698  15.005  0.2300  0.1558 -0.5831
13537TIP3   OH262025   4.812   6.352   0.648  0.1854 -0.4123 -0.6998
13537TIP3    H162026   4.873   6.354   0.722  0.1638 -0.5071 -0.6800
13537TIP3    H262027   4.769   6.267   0.654  1.0467 -0.9298 -1.5225
13538TIP3   OH262028   1.081   0.609   4.522 -0.3925  0.0988 -0.3690
13538TIP3    H162029   1.059   0.684   4.577 -0.2451  0.6343 -1.0323
13538TIP3    H262030   1.044   0.534   4.569 -0.5744  0.5830  0.2816
13539TIP3   OH262031   3.756   2.901   3.249 -0.5779 -0.0384 -0.3566
13539TIP3    H162032   3.673   2.934   3.214 -0.8831 -0.3140  0.0974
13539TIP3    H262033   3.778   2.961   3.320 -1.0797 -0.7199  0.4006
13540TIP3   OH262034   2.136   2.598  11.216 -0.0117  0.5396 -0.0952
13540TIP3    H162035   2.138   2.661  11.144  0.2965 -0.8875 -1.3659
13540TIP3    H262036   2.096   2.647  11.289  0.1579  2.1702 -1.0463
13541TIP3   OH262037   1.621   0.688  15.112  0.3768 -0.1649 -0.2552
13541TIP3    H162038   1.672   0.769  15.120 -1.7911  1.3445 -0.7954
13541TIP3    H262039   1.574   0.697  15.029  0.0920 -2.0238 -0.3429
13542TIP3   OH262040   5.769   2.841  14.993  0.0161 -0.0808  0.1087
13542TIP3    H162041   5.747   2.928  15.024  1.2086  0.1489  0.3898
13542TIP3    H262042   5.760   2.846  14.898 -0.0179  0.3298  0.1324
13543TIP3   OH262043   3.259   5.750   6.716  0.4228  0.3421  0.0607
13543TIP3    H162044   3.342   5.743   6.669  0.8251 -0.2506  0.8291
13543TIP3    H262045   3.282   5.789   6.801  0.1854 -1.2385  0.8874
13544TIP3   OH262046   4.281   6.630   5.215 -0.3436 -0.0054  0.0193
13544TIP3    H162047   4.291   6.691   5.141  1.2173  0.1096  0.2917
13544TIP3    H262048   4.281   6.543   5.174  0.3834  0.0643 -0.1391
13545TIP3   OH262049   0.728   4.826   5.079  0.2548  0.3483  0.1363
13545TIP3    H162050   0.780   4.767   5.133  0.2596  1.7245  1.7079
13545TIP3    H262051   0.637   4.802   5.096  0.2720 -1.0627 -1.4639
13546TIP3   OH262052   5.155   3.934  15.929 -0.2550 -0.0771  0.6087
13546TIP3    H162053   5.213   3.953  16.004  2.0239 -0.3575 -0.9774
13546TIP3    H262054   5.069   3.922  15.968  0.5674  1.1764  3.0374
13547TIP3   OH262055   1.097   4.702   6.402  0.6689  0.4454 -0.2921
13547TIP3    H162056   1.107   4.694   6.497  0.8058  1.2021 -0.2372
13547TIP3    H262057   1.165   4.765   6.375 -1.8836  3.4489 -0.3112
13548TIP3   OH262058   3.840   2.444   0.263 -0.5517  0.2426 -0.0364
13548TIP3    H162059   3.755   2.425   0.223 -0.3518  0.0499 -0.3717
13548TIP3    H262060   3.881   2.506   0.203 -0.6068  0.6262  0.3173
13549TIP3   OH262061   6.318   5.085  11.137 -0.7249 -0.1589 -0.4035
13549TIP3    H162062   6.261   5.129  11.074 -0.4765 -0.3949 -0.7977
13549TIP3    H262063   6.369   5.023  11.084 -1.7482 -1.6245  0.2613
13550TIP3   OH262064   2.667   4.445   1.713 -0.4830  0.2259 -0.2700
13550TIP3    H162065   2.642   4.418   1.625 -0.1351 -0.7031 -0.0878
13550TIP3    H262066   2.635   4.535   1.720  1.1775  1.0211 -2.0366
13551TIP3   OH262067   1.333   4.843  11.522 -0.0539  0.1637 -0.3576
13551TIP3    H162068   1.320   4.906  11.592  0.7850 -1.6181  1.4979
13551TIP3    H262069   1.367   4.895  11.449  3.2913  1.5418  1.9403
13552TIP3   OH262070   2.604   4.198  14.736  0.4073 -0.1751  0.0599
13552TIP3    H162071   2.558   4.281  14.724  0.9523  0.3922  1.7235
13552TIP3    H262072   2.536   4.131  14.721 -0.4978  0.6094  0.5296
13553TIP3   OH262073   5.035   4.243  13.014 -0.4752  0.0903 -0.0066
13553TIP3    H162074   4.982   4.210  13.086  1.3953 -1.1718  0.8377
13553TIP3    H262075   5.111   4.186  13.010  0.0334  0.7965 -2.2932
13554TIP3   OH262076   1.802   1.712   4.436 -0.2215  0.0224  0.5249
13554TIP3    H162077   1.831   1.796   4.400  1.5080  0.0403  1.8379
13554TIP3    H262078   1.708   1.723   4.449 -0.2714  1.2473 -0.5975
13555TIP3   OH262079   5.475   0.781   1.405 -0.0945 -0.2407 -0.7849
13555TIP3    H162080   5.517   0.811   1.325  0.8315  0.9781  0.1288
13555TIP3    H262081   5.381   0.789   1.388  0.1083  0.6190 -1.5142
13556TIP3   OH262082   6.639   5.887  14.862 -0.4533 -0.3125 -0.4030
13556TIP3    H162083   6.624   5.902  14.768 -0.0432 -0.4008 -0.4866
13556TIP3    H262084   6.553   5.897  14.902 -0.8542 -1.3879 -0.9345
13557TIP3   OH262085   3.836   3.029   6.255  0.2003  0.1442 -0.0768
13557TIP3    H162086   3.746   3.012   6.283  0.9220 -0.9268  1.7472
13557TIP3    H262087   3.863   2.949   6.210  0.3413  0.3657 -0.3949
13558TIP3   OH262088   1.185   2.293  10.329 -0.7447  0.1892 -0.1537
13558TIP3    H162089   1.250   2.224  10.316 -2.5443 -1.7367  0.4812
13558TIP3    H262090   1.129   2.261  10.400 -2.4859  1.6633 -0.7563
13559TIP3   OH262091   3.908   5.310   3.519  0.5934 -0.3851 -0.3630
13559TIP3    H162092   3.825   5.349   3.490  0.3475 -0.8276 -0.2690
13559TIP3    H262093   3.945   5.374   3.579 -0.7957 -1.1641  1.4149
13560TIP3   OH262094   6.626   3.909  12.107  0.0219  0.1161  0.3410
13560TIP3    H162095   6.596   3.995  12.136 -0.8597 -0.0081 -0.1782
13560TIP3    H262096   6.704   3.892  12.160 -0.3491  0.8073  1.1312
13561TIP3   OH262097   2.889   4.027   6.856 -0.0084  0.3076  0.1392
13561TIP3    H162098   2.860   4.033   6.765  1.1791  1.0014 -0.2148
13561TIP3    H262099   2.929   3.940   6.862  1.6125  0.9583 -0.5599
13562TIP3   OH262100   4.052   6.587   3.015  0.4305 -0.2187 -0.0990
13562TIP3    H162101   4.130   6.631   3.050 -0.4927  0.8332  0.7498
13562TIP3    H262102   4.036   6.629   2.931  0.8884 -0.5663 -0.3578
13563TIP3   OH262103   2.075   1.242   3.773  0.4225  0.1337  0.4574
13563TIP3    H162104   2.124   1.172   3.816 -0.0346  1.2348  2.9646
13563TIP3    H262105   2.129   1.320   3.784 -0.5088  0.7836  0.5784
13564TIP3   OH262106   5.447   1.661  16.557 -0.2361 -0.0789  0.0246
13564TIP3    H162107   5.413   1.574  16.579  1.3758 -0.6367  0.4464
13564TIP3    H262108   5.542   1.650  16.556  0.0035  1.7114  0.1987
13565TIP3   OH262109   3.486   1.111  13.178  0.0246 -0.5243 -0.1828
13565TIP3    H162110   3.538   1.036  13.149 -0.8602 -0.8842 -0.8750
13565TIP3    H262111   3.466   1.092  13.270 -0.5245 -1.3443 -0.4609
13566TIP3   OH262112   2.016   4.274  16.254 -0.9245  0.3203 -0.1731
13566TIP3    H162113   1.966   4.212  16.307 -0.1935 -0.0941  0.0530
13566TIP3    H262114   1.954   4.344  16.233 -1.5256 -0.0645  0.2874
13567TIP3   OH262115   3.511   1.528  15.010 -0.3257  0.3079 -0.0083
13567TIP3    H162116   3.526   1.436  15.030  1.7014  0.2370 -1.4187
13567TIP3    H262117   3.416   1.538  15.007 -0.5831 -1.5079  1.0867
13568TIP3   OH262118   0.042   2.440  12.272 -0.1429 -1.0766  0.1260
13568TIP3    H162119   0.025   2.353  12.309  2.2942 -1.9923 -0.6970
13568TIP3    H262120   0.089   2.487  12.340 -0.0006 -0.9891 -0.0315
13569TIP3   OH262121   4.879   2.798  11.470 -0.1927  0.0732 -0.0097
13569TIP3    H162122   4.947   2.771  11.408 -0.4035 -1.7026  0.4617
13569TIP3    H262123   4.889   2.893  11.478  0.6104  0.1818 -1.8300
13570TIP3   OH262124   6.445   1.470   2.848  0.2526  0.0782 -0.0398
13570TIP3    H162125   6.391   1.472   2.768 -1.3570  1.9143  1.0157
13570TIP3    H262126   6.529   1.507   2.821 -0.6189  1.6882 -0.6997
13571TIP3   OH262127   5.904   0.384   2.359  0.7658  0.1277 -0.3484
13571TIP3    H162128   5.920   0.406   2.451  1.6638  1.8105 -0.8755
13571TIP3    H262129   5.987   0.400   2.315  0.5780 -1.4398 -1.3482
13572TIP3   OH262130   4.759   3.824  12.645  0.1535 -0.2485 -0.9669
13572TIP3    H162131   4.770   3.732  12.619  1.2338 -1.0114  1.7240
13572TIP3    H262132   4.720   3.819  12.732 -2.1281  2.0056 -1.7469
13573TIP3   OH262133   3.963   2.070  13.992 -0.7376 -0.6095 -0.5576
13573TIP3    H162134   4.044   2.024  13.972 -0.3760  0.5147 -1.8300
13573TIP3    H262135   3.976   2.158  13.956 -1.9276  0.0655  0.5811
13574TIP3   OH262136   0.730   6.390  12.654  0.1959 -0.6780  0.4318
13574TIP3    H162137   0.757   6.398  12.746 -0.5888  1.0308  0.5557
13574TIP3    H262138   0.788   6.448  12.606 -0.0748 -0.7604 -0.0033
13575TIP3   OH262139   2.266   3.650  12.299 -0.6206  0.0415  0.1236
13575TIP3    H162140   2.238   3.663  12.389 -1.1323 -1.3621  0.1888
13575TIP3    H262141   2.257   3.556  12.284 -2.2602  0.4419 -1.9295
13576TIP3   OH262142   5.651   3.372  12.975 -0.0759  0.0380 -0.6134
13576TIP3    H162143   5.637   3.431  13.049  1.3017  1.9123 -1.7577
13576TIP3    H262144   5.564   3.337  12.955 -0.5067 -0.4413  1.7591
13577TIP3   OH262145   3.764   6.412  15.573 -0.2365  0.1304  0.1680
13577TIP3    H162146   3.796   6.392  15.485 -0.1592  0.8569  0.0267
13577TIP3    H262147   3.837   6.387  15.630  0.8574  2.2880 -0.1943
13578TIP3   OH262148   1.408   5.470  17.244  0.0708 -0.0334  0.1776
13578TIP3    H162149   1.385   5.480  17.152 -1.5783  1.1103  0.6806
13578TIP3    H262150   1.354   5.534  17.290 -0.2675 -1.5969  2.1059
13579TIP3   OH262151   3.973   2.738  12.097  0.2327 -0.3936 -0.1991
13579TIP3    H162152   4.015   2.820  12.070  1.6594 -0.3379  1.9695
13579TIP3    H262153   4.018   2.671  12.044 -2.5563  0.2393 -3.7750
13580TIP3   OH262154   3.019   3.617  12.120 -0.3189  0.3574 -0.2872
13580TIP3    H162155   2.944   3.589  12.172  0.2853  0.1249  0.4706
13580TIP3    H262156   3.078   3.660  12.182  1.2482 -1.5048 -0.3527
13581TIP3   OH262157   3.029   4.641   0.786 -0.3436  0.0476  0.0707
13581TIP3    H162158   3.096   4.575   0.771 -1.0087 -0.3615 -1.2452
13581TIP3    H262159   2.964   4.625   0.718 -2.0020  0.1710  1.5654
13582TIP3   OH262160   4.913   2.098  12.251  0.4244  0.3036 -0.4901
13582TIP3    H162161   4.880   2.188  12.262 -2.3266 -0.6931  0.4453
13582TIP3    H262162   4.943   2.094  12.161  0.3203  2.0786 -0.6447
13583TIP3   OH262163   5.096   3.867   5.858  0.7845  0.1645  0.1690
13583TIP3    H162164   5.039   3.902   5.927 -1.4587  0.3617 -1.6469
13583TIP3    H262165   5.069   3.775   5.849  2.7102 -0.5360  1.0924
13584TIP3   OH262166   0.931   1.612  16.911 -0.2551  0.2311 -0.4714
13584TIP3    H162167   0.941   1.683  16.847 -0.6053  0.2309 -0.5282
13584TIP3    H262168   0.982   1.641  16.987 -2.0214  1.4988  0.2935
13585TIP3   OH262169   2.189   0.350  15.949  0.4655  0.9724  0.6459
13585TIP3    H162170   2.262   0.407  15.973  1.1224 -0.0988  1.2927
13585TIP3    H262171   2.180   0.291  16.024  1.5704 -1.5244 -1.0668
13586TIP3   OH262172   3.553   2.702  11.513 -0.2633 -0.2752  0.2874
13586TIP3    H162173   3.575   2.773  11.453 -0.1058 -0.0369  0.6236
13586TIP3    H262174   3.545   2.744  11.598 -0.0054 -0.6878  0.5204
13587TIP3   OH262175   0.292   1.157  16.727 -0.1944 -0.1733 -0.2451
13587TIP3    H162176   0.358   1.185  16.790 -1.7472  0.9317  0.9997
13587TIP3    H262177   0.291   1.227  16.662 -0.6439  0.2192  0.1687
13588TIP3   OH262178   4.896   0.197  14.957  0.7309 -0.0198  0.0795
13588TIP3    H162179   4.823   0.175  14.899  0.5595  1.2689 -0.2213
13588TIP3    H262180   4.912   0.291  14.943  1.6811 -0.0108  1.0017
13589TIP3   OH262181   1.946   3.336   4.977  0.0542 -0.7121  0.2608
13589TIP3    H162182   1.853   3.357   4.988  0.0481 -0.3871 -0.3781
13589TIP3    H262183   1.961   3.343   4.883  1.2686  1.5856  0.5561
13590TIP3   OH262184   5.683   2.106  14.504 -0.0254 -0.4576  0.5855
13590TIP3    H162185   5.607   2.138  14.456  0.7956 -0.0373 -0.4818
13590TIP3    H262186   5.669   2.012  14.511 -1.4110 -0.2040  1.8495
13591TIP3   OH262187   4.842   1.656   5.861 -0.1445 -0.2952 -0.1480
13591TIP3    H162188   4.864   1.575   5.908  0.2883 -1.5451 -2.3628
13591TIP3    H262189   4.761   1.687   5.903 -0.7278 -2.2783  0.2814
13592TIP3   OH262190   5.986   3.752  14.549  0.0171 -0.5345  0.1028
13592TIP3    H162191   5.932   3.809  14.604 -0.3282 -1.1874  0.4459
13592TIP3    H262192   6.076   3.773  14.573  0.0665  1.8541 -1.7139
13593TIP3   OH262193   5.759   6.171  11.147  0.2092  0.2511 -0.0287
13593TIP3    H162194   5.738   6.195  11.238 -0.3941  0.4058 -0.1990
13593TIP3    H262195   5.783   6.079  11.151  0.6755  0.3889  0.3626
13594TIP3   OH262196   2.324   2.418  16.546  0.6291 -0.1882 -0.2060
13594TIP3    H162197   2.230   2.402  16.532  0.5885 -1.7565  1.3766
13594TIP3    H262198   2.331   2.434  16.640  1.8493  0.9439 -0.4681
13595TIP3   OH262199   4.348   3.264  13.451  0.0599 -0.3461  0.3258
13595TIP3    H162200   4.392   3.240  13.370 -0.5182 -0.2896 -0.0139
13595TIP3    H262201   4.293   3.188  13.472  0.0944 -0.3004  0.5787
13596TIP3   OH262202   4.348   3.483  12.946 -0.0382  0.1197 -0.1853
13596TIP3    H162203   4.267   3.433  12.932  0.9971 -2.3777  1.7812
13596TIP3    H262204   4.385   3.445  13.025  2.9162  1.3958 -0.8354
13597TIP3   OH262205   2.053   2.079   4.365  0.5932  0.0066 -0.6137
13597TIP3    H162206   2.005   2.032   4.297 -1.1682 -2.3648  2.0156
13597TIP3    H262207   2.126   2.022   4.387  0.2489 -0.0256  0.5064
13598TIP3   OH262208   1.225   6.445   3.670  0.0960  0.0468  0.3871
13598TIP3    H162209   1.215   6.481   3.758 -1.8839 -0.8205  0.5760
13598TIP3    H262210   1.165   6.497   3.616 -0.5317 -0.9902  0.0595
13599TIP3   OH262211   2.914   1.349   2.424 -0.1621 -0.1663 -0.6138
13599TIP3    H162212   3.005   1.380   2.422 -0.6502  1.4314  0.2557
13599TIP3    H262213   2.874   1.396   2.498 -0.8729 -3.2663  1.1450
13600TIP3   OH262214   4.535   6.685  13.733 -0.6976  0.1054 -0.3104
13600TIP3    H162215   4.488   6.695  13.816 -0.0082 -0.3275  0.1412
13600TIP3    H262216   4.614   6.738  13.744 -0.1599 -0.6752 -0.3397
13601TIP3   OH262217   6.568   1.719   2.263  0.0388 -0.3394 -0.2240
13601TIP3    H162218   6.487   1.669   2.270  0.0989 -0.3614  0.3200
13601TIP3    H262219   6.553   1.796   2.319 -0.7081  1.1417 -2.3086
13602TIP3   OH262220   5.347   0.451   2.602 -0.4623 -0.1739  0.8824
13602TIP3    H162221   5.368   0.520   2.664 -0.4767  0.9027 -0.2923
13602TIP3    H262222   5.342   0.494   2.517 -1.4310 -1.4363  0.2530
13603TIP3   OH262223   1.877   4.532   5.857  0.0040  1.0509  0.4445
13603TIP3    H162224   1.925   4.491   5.785  0.4438  1.7916  0.3128
13603TIP3    H262225   1.796   4.564   5.818 -0.9234 -0.7213  0.7790
13604TIP3   OH262226   2.757   4.025  16.125 -0.5509 -0.3749  0.0040
13604TIP3    H162227   2.803   4.095  16.077 -0.5333 -0.7292 -0.5006
13604TIP3    H262228   2.665   4.046  16.116 -0.6145 -1.0527 -1.1703
13605TIP3   OH262229   2.150   5.966   4.442  0.0940  0.4460  0.1548
13605TIP3    H162230   2.129   5.885   4.489 -0.1985  0.8439  0.7233
13605TIP3    H262231   2.130   6.036   4.504  2.0897  0.9143  0.3414
13606TIP3   OH262232   3.657   2.963  16.471 -0.5970  0.1093  0.1308
13606TIP3    H162233   3.662   2.927  16.382 -1.3601  0.1222  0.0736
13606TIP3    H262234   3.611   2.897  16.521 -1.0830  0.5505  0.2738
13607TIP3   OH262235   3.653   3.713   0.072 -0.3757 -0.2771 -0.4762
13607TIP3    H162236   3.736   3.666   0.084 -0.1961  0.5738  2.4070
13607TIP3    H262237   3.679   3.803   0.056 -0.7300 -0.2029 -0.6187
13608TIP3   OH262238   4.420   1.548   5.060  0.2614 -0.0700 -0.1172
13608TIP3    H162239   4.434   1.462   5.101 -1.0999 -0.4308 -0.3667
13608TIP3    H262240   4.459   1.539   4.974  1.8522  0.2183  0.5408
13609TIP3   OH262241   5.263   0.718   0.696  0.2279  0.0880  0.1808
13609TIP3    H162242   5.176   0.745   0.667 -0.1452 -0.7906  0.4394
13609TIP3    H262243   5.270   0.627   0.669  1.9998  0.7759 -1.8961
13610TIP3   OH262244   6.211   6.294   5.603 -0.0969 -0.1487  0.3188
13610TIP3    H162245   6.280   6.353   5.572  0.3829  0.1469  1.8585
13610TIP3    H262246   6.245   6.206   5.582  1.1397 -0.0484  1.7170
13611TIP3   OH262247   3.581   2.081   0.039  0.4589 -0.4112  0.2016
13611TIP3    H162248   3.513   2.028   0.081 -0.2650 -0.0911 -0.5142
13611TIP3    H262249   3.561   2.171   0.066  0.9942 -0.3877  0.5113
13612TIP3   OH262250   2.365   0.790  13.706  0.1437  0.0782  0.0647
13612TIP3    H162251   2.450   0.823  13.736  1.5615 -1.0253 -2.4445
13612TIP3    H262252   2.371   0.695  13.718 -0.5762 -0.0485 -0.5343
13613TIP3   OH262253   3.604   0.302   2.883  0.4372 -0.0657 -0.4514
13613TIP3    H162254   3.548   0.369   2.923 -0.3404 -1.5899  1.1875
13613TIP3    H262255   3.583   0.305   2.790 -1.6044  0.1708 -0.0348
13614TIP3   OH262256   1.449   5.627   1.606  0.1177  0.1246 -0.5336
13614TIP3    H162257   1.531   5.594   1.570  0.2655 -0.4594  0.3269
13614TIP3    H262258   1.425   5.564   1.674  0.8179  2.1378  1.7066
13615TIP3   OH262259   3.015   0.559  13.356  0.3288 -0.2101  0.9676
13615TIP3    H162260   3.081   0.601  13.411  0.7142 -1.1254  1.2199
13615TIP3    H262261   3.061   0.486  13.314  0.0794  0.5270 -0.6815
13616TIP3   OH262262   6.453   2.879   3.482 -0.0850 -0.5304 -0.3123
13616TIP3    H162263   6.363   2.848   3.491 -0.6109 -0.1808 -3.3608
13616TIP3    H262264   6.445   2.969   3.451  1.2908 -0.7043 -1.2633
13617TIP3   OH262265   6.287   3.986   2.104  0.6118 -0.0499 -0.1207
13617TIP3    H162266   6.282   3.988   2.008 -1.0483  0.2123 -0.0548
13617TIP3    H262267   6.293   4.078   2.130 -2.1672  0.1591  0.0992
13618TIP3   OH262268   2.330   4.510  14.490  0.5624 -0.1115 -0.5916
13618TIP3    H162269   2.289   4.491  14.406  0.7393  1.0675 -0.9619
13618TIP3    H262270   2.344   4.605  14.489  1.6492 -0.2436  0.2699
13619TIP3   OH262271   3.530   1.695  14.368 -0.1748  0.2224  0.5014
13619TIP3    H162272   3.480   1.663  14.444  1.5259  1.1206  2.0846
13619TIP3    H262273   3.603   1.634  14.360 -1.2281 -0.8646 -1.5610
13620TIP3   OH262274   0.595   2.994   4.468  0.7602 -0.3902  0.0727
13620TIP3    H162275   0.594   3.090   4.471 -0.2824 -0.4015  0.5049
13620TIP3    H262276   0.587   2.973   4.375 -0.5446 -0.0478  0.0851
13621TIP3   OH262277   4.700   5.430   1.870  0.8989  0.0764  0.6507
13621TIP3    H162278   4.728   5.387   1.950  2.9197 -1.9066 -0.9956
13621TIP3    H262279   4.604   5.432   1.876  0.7252 -3.6655  1.4410
13622TIP3   OH262280   3.651   1.452   5.722  0.3917  0.2877  0.5414
13622TIP3    H162281   3.610   1.402   5.792 -0.9087  0.4556 -0.0628
13622TIP3    H262282   3.642   1.397   5.644  0.1955  0.8551  0.1491
13623TIP3   OH262283   1.215   4.412   0.902  0.3340  0.0799  0.0898
13623TIP3    H162284   1.240   4.331   0.858 -0.2546 -0.3751  0.5874
13623TIP3    H262285   1.243   4.481   0.842 -2.9958 -0.5411 -2.4096
13624TIP3   OH262286   2.702   0.881   1.780  0.0814  0.0442  0.3285
13624TIP3    H162287   2.630   0.874   1.842 -0.4398  0.6649 -0.1883
13624TIP3    H262288   2.688   0.809   1.718  1.3710 -1.4397  1.6575
13625TIP3   OH262289   2.461   0.365   0.394  0.6029 -0.5622 -0.3766
13625TIP3    H162290   2.373   0.403   0.395  0.9421  0.2953 -1.1379
13625TIP3    H262291   2.479   0.342   0.485  0.3969  1.1607  0.1270
13626TIP3   OH262292   5.577   4.701   4.524 -0.1053 -0.1744  0.1610
13626TIP3    H162293   5.544   4.676   4.611  0.5361 -0.1638  0.4176
13626TIP3    H262294   5.517   4.659   4.463  0.4495 -1.6741  0.5968
13627TIP3   OH262295   0.006   5.015  13.142  0.1902  0.1128 -0.6828
13627TIP3    H162296   0.069   4.957  13.183 -0.0659  0.4928  0.2853
13627TIP3    H262297   0.019   5.099  13.186 -1.1915  0.1175 -0.2373
13628TIP3   OH262298   6.708   1.218  14.914 -0.7033 -0.1084  0.1425
13628TIP3    H162299   6.647   1.144  14.910 -2.1544  0.9378  1.5556
13628TIP3    H262300   6.764   1.199  14.988 -2.6434  1.2414  2.0802
13629TIP3   OH262301   3.035   3.999   4.677  0.3115  0.0459  0.0138
13629TIP3    H162302   3.009   3.933   4.740 -1.9687 -1.2052 -2.0813
13629TIP3    H262303   3.124   3.974   4.650  0.1490 -1.1282  0.5417
13630TIP3   OH262304   5.000   6.642  12.046 -0.6993  0.2722  1.0658
13630TIP3    H162305   4.990   6.723  12.097 -0.5354  0.1087  1.3621
13630TIP3    H262306   5.089   6.613  12.066 -0.2078  0.8037 -0.1978
13631TIP3   OH262307   6.747   4.294   4.933  0.5389  0.4687 -0.5311
13631TIP3    H162308   6.742   4.350   4.856  1.3215  0.5710 -0.5232
13631TIP3    H262309   6.826   4.242   4.919 -0.5202 -1.1098 -0.8486
13632TIP3   OH262310   3.830   2.863  14.612  0.0149  0.2552 -0.6104
13632TIP3    H162311   3.848   2.772  14.587  0.6054  0.2594 -0.2383
13632TIP3    H262312   3.804   2.906  14.530 -0.5961 -0.3189 -0.7297
13633TIP3   OH262313   1.824   4.652   5.497  0.0731 -0.2671 -0.0283
13633TIP3    H162314   1.819   4.708   5.419  1.1764  0.8999  0.7040
13633TIP3    H262315   1.807   4.711   5.570 -0.3398 -1.2311  0.6705
13634TIP3   OH262316   6.315   4.261  12.620  0.0938 -0.5614  0.6835
13634TIP3    H162317   6.329   4.181  12.569  0.7337  0.2071 -0.3957
13634TIP3    H262318   6.220   4.263  12.637 -0.2458 -0.5359 -1.0485
13635TIP3   OH262319   2.423   4.268   2.302 -0.2202  0.1679  0.3341
13635TIP3    H162320   2.382   4.241   2.384  0.4882 -0.2093  0.5743
13635TIP3    H262321   2.408   4.362   2.297  1.9918  0.7283  2.2630
13636TIP3   OH262322   1.122   0.033   5.570  0.0685  0.1751  0.4724
13636TIP3    H162323   1.058  -0.038   5.562 -0.2400  0.3474  1.3942
13636TIP3    H262324   1.146   0.053   5.479  1.5100 -2.3174  0.2285
13637TIP3   OH262325   0.759   2.285   0.823  0.3165  0.6883 -0.6165
13637TIP3    H162326   0.719   2.333   0.751  0.3071 -0.5100 -1.4432
13637TIP3    H262327   0.727   2.195   0.813  1.4074  0.1948  0.0605
13638TIP3   OH262328   4.505   2.920  16.541  0.0961  0.2417  0.5068
13638TIP3    H162329   4.529   3.002  16.584 -0.1169  0.8207 -0.4774
13638TIP3    H262330   4.485   2.944  16.451 -1.1520 -0.7038  0.5041
13639TIP3   OH262331   2.761   0.274  15.989  0.2997 -0.5768  0.1636
13639TIP3    H162332   2.830   0.287  16.054  0.2456 -0.3542  0.1789
13639TIP3    H262333   2.685   0.244  16.039 -1.4302  4.3222  1.1199
13640TIP3   OH262334   3.854   6.496   3.574  0.2244  0.5455 -0.7009
13640TIP3    H162335   3.770   6.451   3.568 -0.2372  0.9802  1.4356
13640TIP3    H262336   3.853   6.561   3.505 -1.5783  1.1049 -0.1884
13641TIP3   OH262337   2.532   1.281  12.186 -0.1597  0.1466 -0.2501
13641TIP3    H162338   2.493   1.296  12.100  1.9696  1.2166 -1.1006
13641TIP3    H262339   2.616   1.239  12.168 -0.3207 -1.0077  1.4312
13642TIP3   OH262340   0.896   1.366  12.450 -0.3765 -0.0608  0.2494
13642TIP3    H162341   0.925   1.310  12.522 -0.3447 -2.3184 -1.4011
13642TIP3    H262342   0.818   1.410  12.484 -0.4075 -1.1196  1.6509
13643TIP3   OH262343   2.860   3.644   3.257 -0.2022  1.2076 -0.0755
13643TIP3    H162344   2.901   3.575   3.205 -1.1735  0.1284  0.5379
13643TIP3    H262345   2.929   3.709   3.269  0.6201  0.5380 -1.0177
13644TIP3   OH262346   4.950   1.910   0.982 -0.4347 -0.2066  0.1807
13644TIP3    H162347   5.018   1.977   0.976 -0.3660 -0.0670  1.9566
13644TIP3    H262348   4.901   1.918   0.900  2.8300 -1.6281 -2.1121
13645TIP3   OH262349   0.494   5.112   3.098  0.3221  0.0042  1.1149
13645TIP3    H162350   0.582   5.075   3.092  0.2392 -0.1070  0.6018
13645TIP3    H262351   0.436   5.037   3.086  0.1489  0.3491 -0.3556
13646TIP3   OH262352   2.516   0.060   6.381 -0.3728  0.2307 -0.2384
13646TIP3    H162353   2.467   0.135   6.349  0.8132  0.2449 -2.1625
13646TIP3    H262354   2.530   0.005   6.304  0.5439 -0.9610  0.7255
13647TIP3   OH262355   1.563   2.000   5.506  0.3488 -0.1900  0.0206
13647TIP3    H162356   1.612   2.079   5.528  0.4431 -0.3397  0.3620
13647TIP3    H262357   1.628   1.929   5.512  0.2925 -0.2796 -0.3962
13648TIP3   OH262358   4.872   6.192   2.039 -0.0170  0.0819  0.1729
13648TIP3    H162359   4.941   6.186   2.106 -0.5089  0.7894  0.7497
13648TIP3    H262360   4.917   6.224   1.961  0.4623 -0.2541  0.3054
13649TIP3   OH262361   6.079   4.608   1.683  0.4295 -0.2689  0.4092
13649TIP3    H162362   6.119   4.694   1.673  1.4861 -0.4054  2.8064
13649TIP3    H262363   5.999   4.625   1.734  0.5923 -0.6756  0.8048
13650TIP3   OH262364   6.599   2.285  11.593 -0.5645  0.2187 -0.2969
13650TIP3    H162365   6.661   2.345  11.552 -0.7359  1.9213  1.7579
13650TIP3    H262366   6.540   2.341  11.643 -1.8317 -1.5708  0.3401
13651TIP3   OH262367   5.514   6.633   3.815  0.7242  0.0327 -0.5500
13651TIP3    H162368   5.468   6.555   3.785  2.6700 -0.4438 -2.5801
13651TIP3    H262369   5.447   6.701   3.819 -0.9974 -1.6443  1.1183
13652TIP3   OH262370   1.116   4.094  11.284  0.7201  0.2383 -0.0444
13652TIP3    H162371   1.114   4.114  11.378  0.5541 -0.3151  0.0736
13652TIP3    H262372   1.036   4.132  11.249 -0.6680 -1.9759  0.5518
13653TIP3   OH262373   2.516   1.547  11.857 -0.4609 -0.0437 -0.7344
13653TIP3    H162374   2.592   1.597  11.887  1.4866 -2.3862 -1.4165
13653TIP3    H262375   2.459   1.543  11.934 -0.1038  2.0686 -0.2980
13654TIP3   OH262376   2.565   0.007  15.411 -0.2227  0.2455  0.0904
13654TIP3    H162377   2.552   0.079  15.474  0.8229 -0.0519  0.6715
13654TIP3    H262378   2.569  -0.072  15.465 -3.4552 -0.5924 -0.6830
13655TIP3   OH262379   1.740   2.214   5.516  0.3773 -0.0465 -0.2552
13655TIP3    H162380   1.807   2.245   5.577 -0.9202  0.7938  0.8116
13655TIP3    H262381   1.732   2.285   5.452 -1.0934  0.9740  0.9718
13656TIP3   OH262382   4.149   2.076   2.137 -0.2321  0.1226 -0.2001
13656TIP3    H162383   4.102   2.038   2.212 -1.6920 -0.3564 -1.3156
13656TIP3    H262384   4.095   2.150   2.110  0.9440  1.0648 -0.0187
13657TIP3   OH262385   3.124   1.478   6.321 -0.9529  0.3395  0.0348
13657TIP3    H162386   3.196   1.538   6.339 -0.2222 -0.5996  0.3051
13657TIP3    H262387   3.136   1.452   6.230 -0.1927 -0.7971  0.4454
13658TIP3   OH262388   5.486   3.971   3.505  0.0884 -0.1944 -0.0976
13658TIP3    H162389   5.467   4.006   3.592 -2.7955 -2.7264  0.4680
13658TIP3    H262390   5.522   3.884   3.521 -0.4643 -0.6979 -1.4101
13659TIP3   OH262391   4.226   4.265   0.996  0.4484  0.2929  0.4781
13659TIP3    H162392   4.181   4.268   0.911 -1.3443 -1.2094  1.3056
13659TIP3    H262393   4.155   4.271   1.061  1.4700 -1.3806  1.8494
13660TIP3   OH262394   0.029   1.903  16.735  0.0276 -0.2138  0.1264
13660TIP3    H162395   0.115   1.862  16.734  0.5282  0.8272 -0.0780
13660TIP3    H262396   0.012   1.926  16.644  0.3905  1.3147  0.4240
13661TIP3   OH262397   3.622   6.135  10.622  0.4848 -0.4913  0.2139
13661TIP3    H162398   3.614   6.076  10.547 -0.2524 -0.3530  0.1766
13661TIP3    H262399   3.708   6.177  10.611  1.3146 -2.0294  0.5982
13662TIP3   OH262400   6.514   0.391  12.600  0.0873  0.2563  0.3381
13662TIP3    H162401   6.450   0.462  12.602 -0.8630 -0.5886  0.8221
13662TIP3    H262402   6.595   0.432  12.630 -0.0503  1.4830 -0.8537
13663TIP3   OH262403   4.455   1.998  15.325  0.4868  0.1002 -0.1032
13663TIP3    H162404   4.437   1.979  15.233  1.8274 -0.3120 -0.3175
13663TIP3    H262405   4.475   1.912  15.363 -1.7469  0.0143  1.0244
13664TIP3   OH262406   1.089   3.704  17.207 -0.3820  0.7826 -0.3212
13664TIP3    H162407   1.132   3.778  17.163 -2.7374  2.6406  0.3123
13664TIP3    H262408   1.083   3.731  17.299  0.0779 -0.9144  0.2495
13665TIP3   OH262409   5.191   4.796  13.741  0.1652 -0.0296  0.2328
13665TIP3    H162410   5.201   4.711  13.698 -1.6224  0.2550 -0.8470
13665TIP3    H262411   5.096   4.810  13.745  0.3202  0.8495  2.5571
13666TIP3   OH262412   0.823   3.751  13.394  0.8093  0.7364 -0.3613
13666TIP3    H162413   0.856   3.661  13.396 -0.4783  0.1517 -2.4594
13666TIP3    H262414   0.742   3.748  13.446  0.4636  0.5318 -0.9041
13667TIP3   OH262415   2.515   5.897  12.935  0.0297 -0.4574  0.0615
13667TIP3    H162416   2.543   5.974  12.985 -0.4204 -1.8642  2.6421
13667TIP3    H262417   2.517   5.926  12.843 -0.1551  2.6117  0.9216
13668TIP3   OH262418   1.775   1.505   2.637 -0.0103  0.7700  0.7561
13668TIP3    H162419   1.780   1.446   2.712  2.1590  1.4645  1.2031
13668TIP3    H262420   1.724   1.579   2.668 -3.0304 -0.8502  0.1048
13669TIP3   OH262421   4.129   6.727   5.866 -0.1390 -0.5779  0.4708
13669TIP3    H162422   4.086   6.652   5.907  0.2896 -1.8069 -1.2475
13669TIP3    H262423   4.116   6.799   5.928  0.0305 -2.2120  2.4966
13670TIP3   OH262424   1.736   4.624  11.272  0.0996 -0.2405  0.0151
13670TIP3    H162425   1.683   4.667  11.340 -1.9787  0.8803 -2.1583
13670TIP3    H262426   1.688   4.640  11.191  0.2845 -4.8863 -1.3231
13671TIP3   OH262427   3.020   5.498  12.313 -0.0037  0.1516  0.8045
13671TIP3    H162428   3.106   5.514  12.352  0.4359  0.2388 -0.1819
13671TIP3    H262429   3.039   5.455  12.230 -0.9584 -0.7550  1.0224
13672TIP3   OH262430   0.287   3.480  15.683 -0.1408  0.6974  0.0997
13672TIP3    H162431   0.198   3.510  15.669 -0.4363  0.1292  0.7605
13672TIP3    H262432   0.292   3.459  15.776  1.1676  2.2899  0.4320
13673TIP3   OH262433   0.605   4.880  15.240  0.3611 -0.2705 -0.0385
13673TIP3    H162434   0.518   4.862  15.276 -0.0480 -0.1853 -0.9632
13673TIP3    H262435   0.646   4.794  15.232 -0.2635 -0.4749 -1.1407
13674TIP3   OH262436   2.350   6.519   1.948  0.6462 -0.1757 -0.6748
13674TIP3    H162437   2.416   6.559   1.892 -0.5798 -0.3140 -2.3010
13674TIP3    H262438   2.277   6.498   1.889  0.5986 -3.4666  0.3311
13675TIP3   OH262439   0.803   4.565   4.591 -0.0998 -0.0906  0.0547
13675TIP3    H162440   0.759   4.644   4.562 -0.2026 -0.6301 -1.3451
13675TIP3    H262441   0.892   4.572   4.555  0.0919 -0.3093  0.4725
13676TIP3   OH262442   0.574   6.384   4.473 -0.2270  0.2628  0.1049
13676TIP3    H162443   0.576   6.344   4.560 -0.1128  0.0712  0.0155
13676TIP3    H262444   0.501   6.446   4.476 -1.9734 -1.6549 -0.4822
13677TIP3   OH262445   5.551   3.279   6.606  0.2920  0.3041  0.1643
13677TIP3    H162446   5.635   3.325   6.610 -0.1841  1.1238  1.5972
13677TIP3    H262447   5.570   3.192   6.641  0.4896  0.5792  0.7502
13678TIP3   OH262448   6.185   1.587  13.077 -0.3313 -0.5535  0.5717
13678TIP3    H162449   6.109   1.625  13.033  0.5772  0.1703 -0.4213
13678TIP3    H262450   6.190   1.634  13.160  0.5175  1.2373 -0.4516
13679TIP3   OH262451   4.023   1.863  12.414 -1.5454 -0.2287  0.2577
13679TIP3    H162452   4.093   1.850  12.478 -1.2003  2.6802  0.6066
13679TIP3    H262453   3.942   1.853  12.464 -1.3866 -1.8827  0.2303
13680TIP3   OH262454   0.860   5.941   1.577  0.1042  0.6912  0.4869
13680TIP3    H162455   0.849   6.025   1.622  0.8195  0.1031  1.7982
13680TIP3    H262456   0.939   5.953   1.524  1.3175  0.2624  2.1384
13681TIP3   OH262457   4.725   3.179  12.738 -0.3564 -0.2302  0.4402
13681TIP3    H162458   4.765   3.221  12.814  0.3421  1.4358 -0.7841
13681TIP3    H262459   4.661   3.242  12.706  0.1783 -0.3732 -1.0076
13682TIP3   OH262460   4.603   1.252  11.363  0.0717 -0.1132 -0.6020
13682TIP3    H162461   4.672   1.198  11.403 -0.4216  0.4545  1.0826
13682TIP3    H262462   4.648   1.333  11.337 -0.2106  0.9993  2.0994
13683TIP3   OH262463   4.444   0.857   6.257 -0.7738  0.0691  0.7206
13683TIP3    H162464   4.407   0.853   6.169 -0.7316  1.9416  0.5765
13683TIP3    H262465   4.518   0.916   6.249 -0.5244 -0.0510  1.9469
13684TIP3   OH262466   0.835   2.654  17.188  0.3137 -0.4421  0.1066
13684TIP3    H162467   0.795   2.653  17.101  1.6182 -2.2305 -0.5233
13684TIP3    H262468   0.818   2.566  17.223  3.2910 -1.1647 -0.0519
13685TIP3   OH262469   6.350   3.535   3.079  0.2394 -0.3920 -0.0715
13685TIP3    H162470   6.327   3.615   3.126  0.3267 -0.3376 -0.1213
13685TIP3    H262471   6.334   3.556   2.987  0.1094 -0.4843 -0.0690
13686TIP3   OH262472   3.502   5.366  14.792  0.0664 -0.6419 -0.0297
13686TIP3    H162473   3.577   5.314  14.822  1.0355  0.8749  0.2678
13686TIP3    H262474   3.482   5.330  14.705  2.4297  0.1836 -0.9888
13687TIP3   OH262475   1.479   2.357  12.124 -0.4251  0.1339  0.3314
13687TIP3    H162476   1.410   2.410  12.085  0.2796  0.0098 -1.1570
13687TIP3    H262477   1.534   2.420  12.171 -0.5015  0.4990 -0.0625
13688TIP3   OH262478   1.147   2.210  13.020  0.1007 -0.0257 -0.2045
13688TIP3    H162479   1.197   2.228  12.940 -1.7514  0.6333 -1.2724
13688TIP3    H262480   1.103   2.293  13.040  0.8359 -0.0584  1.7669
13689TIP3   OH262481   1.211   5.812   1.209 -0.1715 -0.0770 -0.0115
13689TIP3    H162482   1.143   5.752   1.180 -0.1202 -0.5705  0.8320
13689TIP3    H262483   1.232   5.783   1.298 -0.3894  1.4055  0.5540
13690TIP3   OH262484   3.450   4.729  15.895 -0.3401  0.3574 -0.0802
13690TIP3    H162485   3.477   4.820  15.911  0.6985 -0.0176  0.3536
13690TIP3    H262486   3.355   4.734  15.885 -0.3212  1.4621  0.1717
13691TIP3   OH262487   6.577   3.498   3.835  0.3291 -0.4250  0.4269
13691TIP3    H162488   6.600   3.450   3.915  0.7182 -0.0571  0.5374
13691TIP3    H262489   6.658   3.502   3.785  0.2443 -0.0782  0.3146
13692TIP3   OH262490   0.517   6.710  15.638  0.0712  0.3335 -0.1462
13692TIP3    H162491   0.534   6.723  15.732 -0.5161  0.3335 -0.0354
13692TIP3    H262492   0.431   6.668  15.635 -0.9066  2.2429 -0.7680
13693TIP3   OH262493   6.611   4.237  10.956 -0.1738  0.2671  0.0356
13693TIP3    H162494   6.684   4.191  10.997  1.8331  1.4088 -2.0289
13693TIP3    H262495   6.555   4.167  10.923  1.0595 -0.6916 -0.1153
13694TIP3   OH262496   6.109   4.297   4.869 -0.1822 -0.3619 -0.1036
13694TIP3    H162497   6.077   4.348   4.943  0.9438 -1.6482  1.3535
13694TIP3    H262498   6.125   4.210   4.906 -0.0243 -1.1691 -1.9914
13695TIP3   OH262499   5.143   1.145   4.648 -0.0462 -0.0603 -0.5459
13695TIP3    H162500   5.067   1.089   4.666  0.4410 -0.2124  1.2218
13695TIP3    H262501   5.121   1.189   4.565 -0.3144 -3.0821 -2.2268
13696TIP3   OH262502   0.159   3.020  11.289 -0.6293  0.2315 -0.2831
13696TIP3    H162503   0.141   3.011  11.382 -0.8763  0.0940 -0.3440
13696TIP3    H262504   0.142   2.933  11.252  2.8841 -0.7860  0.0851
13697TIP3   OH262505   3.355   0.854  15.500 -0.1125 -0.5828 -0.0841
13697TIP3    H162506   3.336   0.872  15.408  1.5967  0.5336 -0.2620
13697TIP3    H262507   3.434   0.903  15.519 -1.4533  0.8212  2.5412
13698TIP3   OH262508   4.593   0.275   5.249  0.1148 -0.7794  0.1400
13698TIP3    H162509   4.659   0.344   5.253  0.0286 -0.6208 -0.7915
13698TIP3    H262510   4.570   0.258   5.340 -0.4010  0.9434  0.3684
13699TIP3   OH262511   2.951   6.439   2.678 -0.2511  0.5735 -0.0079
13699TIP3    H162512   2.940   6.345   2.690 -0.2826  0.4856 -0.6588
13699TIP3    H262513   3.044   6.455   2.694 -0.4805  0.6510  1.3911
13700TIP3   OH262514   0.750   2.932  11.171  0.0333 -0.1855 -0.0487
13700TIP3    H162515   0.655   2.930  11.183  0.1440 -0.2822  0.9250
13700TIP3    H262516   0.768   2.859  11.113 -0.3274 -1.2649  1.1419
13701TIP3   OH262517   6.709   3.698   2.322 -0.5033  0.0503 -0.3857
13701TIP3    H162518   6.700   3.700   2.417 -0.8478 -0.4602 -0.4036
13701TIP3    H262519   6.795   3.736   2.305 -0.1913 -0.4016  0.1620
13702TIP3   OH262520   6.182   1.574  11.614  0.4978  1.1305  0.8628
13702TIP3    H162521   6.228   1.592  11.695  0.0897  0.4361  1.2663
13702TIP3    H262522   6.159   1.481  11.620 -1.6260  1.6098  1.0598
13703TIP3   OH262523   5.416   4.630  16.741 -0.1086 -0.6928 -0.0610
13703TIP3    H162524   5.476   4.574  16.789  1.4122  0.2397 -0.7939
13703TIP3    H262525   5.405   4.707  16.797 -2.7969 -1.9386  1.3008
13704TIP3   OH262526   4.271   1.912  13.260 -0.2267  1.0693 -0.1610
13704TIP3    H162527   4.258   1.882  13.170  1.3831 -4.8942  1.1303
13704TIP3    H262528   4.356   1.956  13.258  0.7736 -0.7946 -1.3229
13705TIP3   OH262529   0.202   5.456  13.011  0.5177 -0.4823  0.4494
13705TIP3    H162530   0.274   5.483  13.068  0.1145 -2.7340  2.1555
13705TIP3    H262531   0.124   5.492  13.053  0.2175 -2.1678  1.4275
13706TIP3   OH262532   4.496   4.262   5.069  0.1160  0.0315  0.5282
13706TIP3    H162533   4.425   4.267   5.133 -0.6612  0.8909 -0.3613
13706TIP3    H262534   4.523   4.170   5.069  0.8307  0.1642  2.7887
13707TIP3   OH262535   6.045   4.483   0.050 -0.3755  0.1120 -0.5281
13707TIP3    H162536   5.958   4.521   0.036 -0.6836 -0.3991 -0.0376
13707TIP3    H262537   6.044   4.454   0.141 -0.6159 -2.1708 -1.1890
13708TIP3   OH262538   0.928   2.434  12.760  0.0420 -0.3662 -0.3414
13708TIP3    H162539   0.937   2.447  12.666 -3.0517 -0.7308 -0.7697
13708TIP3    H262540   0.856   2.491  12.786  1.1301  0.1131  1.9660
13709TIP3   OH262541   1.814   2.191  16.341  0.0746 -0.5106  0.4552
13709TIP3    H162542   1.835   2.100  16.319 -1.8038 -0.9568  0.3208
13709TIP3    H262543   1.741   2.213  16.283  0.5520  1.1269  0.4306
13710TIP3   OH262544   1.533   4.710  12.162 -0.6321  0.1993  0.0120
13710TIP3    H162545   1.490   4.743  12.082  0.2558 -0.9250 -0.9708
13710TIP3    H262546   1.478   4.637  12.190 -0.5068  0.0763 -0.0570
13711TIP3   OH262547   5.236   5.344   2.627 -0.6488  0.2330 -0.2787
13711TIP3    H162548   5.173   5.279   2.596 -1.2495  0.6916 -0.0461
13711TIP3    H262549   5.313   5.293   2.653 -0.0911 -0.1718 -2.5111
13712TIP3   OH262550   0.777   3.368  11.614 -0.1485  0.0228  0.0597
13712TIP3    H162551   0.751   3.316  11.539  1.9169 -1.4806  0.2911
13712TIP3    H262552   0.866   3.338  11.634  0.1224  1.8082  1.8539
13713TIP3   OH262553   2.321   3.376  12.231  0.6253 -0.1428 -0.2519
13713TIP3    H162554   2.287   3.300  12.278  1.8638  0.1481  1.2041
13713TIP3    H262555   2.287   3.367  12.142 -0.3976 -1.6349  0.2521
13714TIP3   OH262556   4.820   2.677  15.395 -0.5671  0.3653  0.0006
13714TIP3    H162557   4.797   2.768  15.415  0.3673  1.0405 -1.7184
13714TIP3    H262558   4.736   2.632  15.386 -1.0331  0.8236  1.7626
13715TIP3   OH262559   2.245   5.211   2.901 -0.3092 -0.1944  0.1349
13715TIP3    H162560   2.207   5.139   2.851 -1.6441  1.8513 -1.9885
13715TIP3    H262561   2.189   5.219   2.978 -1.3847 -0.1615 -0.6317
13716TIP3   OH262562   2.154   3.833   0.494 -0.4467  0.3423  0.2188
13716TIP3    H162563   2.227   3.877   0.451 -0.6617 -0.3309 -0.8489
13716TIP3    H262564   2.137   3.887   0.572  1.0274  0.6278  0.3684
13717TIP3   OH262565   5.359   2.544   0.053  0.0573  0.1751  0.1173
13717TIP3    H162566   5.442   2.497   0.045  1.1713  2.1913 -0.5445
13717TIP3    H262567   5.382   2.626   0.096 -1.6528  0.6532  0.1740
13718TIP3   OH262568   6.703   6.015  17.142  1.0949  0.1836  0.1599
13718TIP3    H162569   6.671   5.937  17.096  0.0665 -0.0243  1.1813
13718TIP3    H262570   6.686   5.997  17.234  1.6419  1.2644  0.4851
13719TIP3   OH262571   1.369   1.445   3.225 -0.0942 -0.0986  0.7586
13719TIP3    H162572   1.403   1.373   3.171  0.1318  0.5138  0.0551
13719TIP3    H262573   1.443   1.506   3.232 -0.2810  0.0693  1.3495
13720TIP3   OH262574   5.057   1.362   0.230 -0.1936 -0.2159  0.2863
13720TIP3    H162575   5.098   1.379   0.314 -0.2465 -0.2428  0.3177
13720TIP3    H262576   5.107   1.291   0.192 -1.5248 -1.7486  1.2730
13721TIP3   OH262577   3.266   3.605  15.648 -0.7992  0.2836 -0.0789
13721TIP3    H162578   3.291   3.583  15.738  1.3988 -1.0717 -0.9282
13721TIP3    H262579   3.180   3.565  15.637 -0.5322 -0.6758  1.0490
13722TIP3   OH262580   2.714   4.750   2.590  0.0097 -0.9044  0.3017
13722TIP3    H162581   2.647   4.705   2.538  0.6030 -2.4456  0.8301
13722TIP3    H262582   2.750   4.683   2.647  0.8308  0.2905  1.2472
13723TIP3   OH262583   3.862   1.105   2.359  0.1954  0.1920 -0.6411
13723TIP3    H162584   3.831   1.128   2.271  0.9576  1.6560 -0.5507
13723TIP3    H262585   3.853   1.186   2.410  1.0901 -0.2504  0.2520
13724TIP3   OH262586   1.980   6.701   1.817  0.0719 -0.1561 -0.4555
13724TIP3    H162587   2.047   6.703   1.748  1.1162 -1.3483  0.4690
13724TIP3    H262588   1.989   6.614   1.856 -0.5839  0.4411  1.1011
13725TIP3   OH262589   6.661   5.680  11.332 -0.1004  0.4520  0.2093
13725TIP3    H162590   6.673   5.596  11.288  2.7588  1.0247 -0.2944
13725TIP3    H262591   6.641   5.657  11.423 -1.6267 -0.7192 -0.3761
13726TIP3   OH262592   0.099   1.508  15.252 -0.7415  0.5367 -0.1557
13726TIP3    H162593   0.026   1.450  15.272 -0.3115 -0.5376 -1.5119
13726TIP3    H262594   0.058   1.590  15.225 -1.4420  0.0846 -0.4953
13727TIP3   OH262595   5.291   5.812  12.025  0.2611 -0.4906 -0.6111
13727TIP3    H162596   5.292   5.865  12.105  2.0871 -0.9099 -0.2954
13727TIP3    H262597   5.201   5.815  11.995  0.4179  3.7814 -1.2850
13728TIP3   OH262598   5.770   0.510  10.694  0.8916 -0.1503  0.4927
13728TIP3    H162599   5.812   0.461  10.765  0.4379  0.2045  1.0108
13728TIP3    H262600   5.843   0.536  10.637  1.1519 -1.3193  0.2681
13729TIP3   OH262601   6.397   3.811   3.112 -0.3767 -0.2441 -0.1218
13729TIP3    H162602   6.481   3.767   3.117 -0.5115 -0.3825  1.1783
13729TIP3    H262603   6.378   3.838   3.202 -2.0767 -0.8947 -0.2517
13730TIP3   OH262604   3.844   4.949   3.160  0.5691  0.4367  0.0750
13730TIP3    H162605   3.792   5.022   3.126  0.1212 -1.1362 -3.0077
13730TIP3    H262606   3.779   4.884   3.187  0.9328  0.1149  0.1875
13731TIP3   OH262607   6.341   4.215   1.788  0.4315 -0.0500  0.0531
13731TIP3    H162608   6.345   4.187   1.880 -0.4140  0.4441  0.2610
13731TIP3    H262609   6.250   4.245   1.777  0.5431 -0.0451 -0.9297
13732TIP3   OH262610   3.272   0.114  11.187  0.6265  0.6065 -0.0665
13732TIP3    H162611   3.332   0.075  11.251  0.4550  0.0196 -0.2553
13732TIP3    H262612   3.301   0.080  11.103 -0.4245 -0.2997 -0.0854
13733TIP3   OH262613   5.708   1.879  15.186 -0.5865  0.3412  0.7382
13733TIP3    H162614   5.651   1.920  15.120  0.5782  1.0668  0.1552
13733TIP3    H262615   5.791   1.925  15.177  0.4229 -1.3937  0.8696
13734TIP3   OH262616   5.684   0.441   3.170 -0.1698 -0.4002 -0.7199
13734TIP3    H162617   5.715   0.357   3.203 -0.3014 -0.3823 -0.5478
13734TIP3    H262618   5.589   0.431   3.165 -0.0547 -0.9573 -2.6115
13735TIP3   OH262619   3.871   0.376   2.203  0.9935 -0.2669  0.3665
13735TIP3    H162620   3.920   0.458   2.204  0.1064  0.4128 -2.6850
13735TIP3    H262621   3.827   0.375   2.118 -1.0818 -2.7274  1.3349
13736TIP3   OH262622   6.424   4.559   5.554  0.2851 -0.3376  0.0209
13736TIP3    H162623   6.378   4.599   5.629 -0.0886 -1.4010  0.3821
13736TIP3    H262624   6.402   4.616   5.480 -0.2286  0.1301  0.5131
13737TIP3   OH262625   1.281   5.247   6.057 -0.0277 -0.3168  0.4384
13737TIP3    H162626   1.289   5.322   5.997 -0.2687  1.0585  2.0680
13737TIP3    H262627   1.328   5.177   6.013  1.7845  1.3000 -0.3306
13738TIP3   OH262628   4.907   2.466   3.197  0.1531 -0.3556  0.0711
13738TIP3    H162629   4.916   2.407   3.272 -1.3663  0.1500  0.6754
13738TIP3    H262630   4.852   2.537   3.228 -1.0081 -0.4373 -1.6816
13739TIP3   OH262631   5.156   6.078   1.639 -0.9114 -0.8872  0.2149
13739TIP3    H162632   5.139   6.034   1.723  1.2295  1.2836  1.9492
13739TIP3    H262633   5.243   6.117   1.651 -0.7828 -0.0160 -2.8691
13740TIP3   OH262634   1.246   6.439  12.840  0.2524  0.4478  0.7042
13740TIP3    H162635   1.163   6.435  12.792  0.5609  5.2803 -0.7703
13740TIP3    H262636   1.284   6.351  12.829 -2.8283 -0.7690 -1.9947
13741TIP3   OH262637   3.495   0.586  17.074  1.0984  0.7948  0.0082
13741TIP3    H162638   3.491   0.491  17.082 -0.3340  0.6285 -1.9409
13741TIP3    H262639   3.500   0.617  17.165 -0.5595 -1.0939  0.8334
13742TIP3   OH262640   2.105   1.982   3.565  0.0738  0.3546 -0.0107
13742TIP3    H162641   2.147   2.066   3.583  1.8126 -0.1126 -1.5378
13742TIP3    H262642   2.050   1.966   3.642  1.4552  1.7968  1.3668
13743TIP3   OH262643   2.905   3.527  16.976 -0.3485  0.2611 -0.0098
13743TIP3    H162644   2.986   3.572  16.951  0.4839 -1.4061 -0.4793
13743TIP3    H262645   2.900   3.539  17.071  0.8991 -0.2707  0.1470
13744TIP3   OH262646   1.655   3.706  11.937 -0.1421  0.1791 -0.1208
13744TIP3    H162647   1.720   3.741  11.999 -1.5576  0.2786  1.3722
13744TIP3    H262648   1.580   3.765  11.945 -0.5079 -0.0262 -1.7010
13745TIP3   OH262649   0.623   4.016  15.385 -0.5777 -0.0273 -0.4346
13745TIP3    H162650   0.578   3.976  15.460  0.3070  0.9445  0.6404
13745TIP3    H262651   0.555   4.066  15.340 -1.2214 -1.0038 -0.5940
13746TIP3   OH262652   5.905   6.436   3.557  0.3693 -0.1353  0.6872
13746TIP3    H162653   5.876   6.439   3.466  1.6798 -0.3925  0.2348
13746TIP3    H262654   5.966   6.509   3.565  0.4266 -0.2466  1.3020
13747TIP3   OH262655   2.846   4.086   0.213 -0.9221  0.0365 -0.1921
13747TIP3    H162656   2.834   3.991   0.217  0.2128 -0.1076  0.1303
13747TIP3    H262657   2.870   4.103   0.122 -0.0476 -0.1394 -0.0058
13748TIP3   OH262658   0.050   3.744   1.126  0.3211  0.0607 -0.1923
13748TIP3    H162659   0.011   3.830   1.141 -2.9570 -1.5862  1.7314
13748TIP3    H262660  -0.008   3.702   1.062  1.1065 -1.2088 -0.1127
13749TIP3   OH262661   6.701   2.046   5.582 -0.4315 -0.0328 -0.2796
13749TIP3    H162662   6.607   2.060   5.581 -1.0137 -3.1373  0.4988
13749TIP3    H262663   6.736   2.118   5.635 -2.1203  2.0151 -1.8158
13750TIP3   OH262664   2.625   2.239  12.930  0.3339 -0.2694 -0.7883
13750TIP3    H162665   2.581   2.159  12.961 -0.4404  0.9816  1.5353
13750TIP3    H262666   2.704   2.245  12.984  0.8904  0.0631 -1.6180
13751TIP3   OH262667   2.247   3.674  16.778  0.0007 -0.1884  0.2453
13751TIP3    H162668   2.262   3.592  16.732 -0.8071  0.0608 -0.4899
13751TIP3    H262669   2.154   3.671  16.802  0.1249  0.2207  0.8080
13752TIP3   OH262670   2.085   1.021  12.289 -0.4973 -0.0281  0.7686
13752TIP3    H162671   2.122   0.939  12.321 -0.6994  0.2186  1.6570
13752TIP3    H262672   2.153   1.057  12.231  0.0753 -0.2480  1.2920
13753TIP3   OH262673   2.767   4.370   3.543  0.2972  0.4875  0.3473
13753TIP3    H162674   2.801   4.458   3.560  0.6806  0.2170  1.0116
13753TIP3    H262675   2.775   4.324   3.627 -0.0941 -0.1181  0.0611
13754TIP3   OH262676   0.199   6.643   4.024  0.0353 -0.2616  0.3349
13754TIP3    H162677   0.260   6.656   4.097  0.9007 -1.6979 -0.0928
13754TIP3    H262678   0.210   6.551   4.000  0.5049  0.3868 -2.2257
13755TIP3   OH262679   3.738   6.435  12.197 -0.4955  0.0811 -0.4190
13755TIP3    H162680   3.779   6.513  12.234 -1.1546  0.2543 -0.0486
13755TIP3    H262681   3.672   6.468  12.137  0.4836 -0.2026 -1.6889
13756TIP3   OH262682   3.231   5.088  13.221 -0.2203  0.3850  0.1636
13756TIP3    H162683   3.186   5.135  13.151  1.7127  2.0258 -0.0607
13756TIP3    H262684   3.282   5.154  13.267  1.0221 -1.1594  1.1428
13757TIP3   OH262685   0.261   1.785  16.812  0.1002  0.4414 -0.4943
13757TIP3    H162686   0.344   1.787  16.764  1.0678  1.1685  1.1066
13757TIP3    H262687   0.244   1.692  16.826  0.3273  0.2639 -1.3413
13758TIP3   OH262688   5.301   5.706  12.728 -0.2001  0.0497  0.1736
13758TIP3    H162689   5.334   5.740  12.645 -1.5220  1.4673  0.2005
13758TIP3    H262690   5.207   5.723  12.727  0.1049  3.0049  3.2224
13759TIP3   OH262691   5.138   4.345  16.350  0.2387  0.4417 -0.3695
13759TIP3    H162692   5.054   4.323  16.390  1.3655 -3.0347  0.4839
13759TIP3    H262693   5.177   4.410  16.408 -1.1047  0.7704  0.1956
13760TIP3   OH262694   3.836   6.425  12.541  0.0787  0.0689 -0.2913
13760TIP3    H162695   3.916   6.463  12.503 -0.3094 -0.5698 -1.8409
13760TIP3    H262696   3.805   6.492  12.602 -0.8957  2.6589 -3.3170
13761TIP3   OH262697   4.569   4.978  12.560  0.6121  0.8224  0.1969
13761TIP3    H162698   4.594   5.033  12.486 -0.2309 -0.3139 -0.9798
13761TIP3    H262699   4.647   4.928  12.581  0.2044 -0.6608 -1.6048
13762TIP3   OH262700   0.427   1.080   4.343 -0.2533  0.0350 -0.1489
13762TIP3    H162701   0.443   1.119   4.429 -2.3993  1.5253 -0.3507
13762TIP3    H262702   0.496   1.117   4.286  1.2056 -0.9927  0.8682
13763TIP3   OH262703   5.245   0.225  13.218 -0.1784  0.0206 -0.4434
13763TIP3    H162704   5.269   0.187  13.303 -1.4809 -0.0533 -0.0752
13763TIP3    H262705   5.318   0.204  13.160  1.9462  2.2002  1.2323
13764TIP3   OH262706   1.450   6.103   0.115  0.2041  0.1662 -0.3053
13764TIP3    H162707   1.477   6.190   0.143 -1.0911  0.4008  0.2801
13764TIP3    H262708   1.529   6.049   0.125  0.9039  1.1601 -0.2798
13765TIP3   OH262709   2.152   1.255  12.693 -0.5657 -0.4902 -0.1022
13765TIP3    H162710   2.226   1.217  12.646 -1.0089 -1.9189  0.3053
13765TIP3    H262711   2.080   1.251  12.630 -0.3679  0.6969 -0.4229
13766TIP3   OH262712   1.113   5.939  14.848  0.6141  0.4424  0.6876
13766TIP3    H162713   1.193   5.952  14.797  0.7598  1.4216  1.1511
13766TIP3    H262714   1.129   5.858  14.897  2.4322  1.9354  2.7792
13767TIP3   OH262715   1.091   3.766   4.032  0.7217 -0.1664  0.2754
13767TIP3    H162716   1.057   3.849   3.998  0.5822 -1.1193 -2.0972
13767TIP3    H262717   1.163   3.743   3.973  0.3359 -2.0319  0.4574
13768TIP3   OH262718   2.620   3.714   4.059  0.1362  0.8704  0.2409
13768TIP3    H162719   2.640   3.807   4.047  0.3298  0.4825 -3.5637
13768TIP3    H262720   2.621   3.677   3.971 -0.1733 -2.7463  1.5707
13769TIP3   OH262721   6.483   0.164  10.796  0.2805 -0.0514 -0.3395
13769TIP3    H162722   6.401   0.142  10.752  0.8519 -1.7494 -0.6083
13769TIP3    H262723   6.504   0.253  10.765 -0.4056 -0.3980 -1.8691
13770TIP3   OH262724   3.152   4.756  15.893  0.3358  0.1055 -0.1645
13770TIP3    H162725   3.197   4.672  15.882  0.2217 -0.5077  3.0180
13770TIP3    H262726   3.074   4.735  15.944 -0.4879  1.9632 -0.5810
13771TIP3   OH262727   4.345   1.436   3.261  0.1855  0.6923  0.0164
13771TIP3    H162728   4.327   1.482   3.343  1.5463  1.9797 -0.3612
13771TIP3    H262729   4.351   1.344   3.286 -1.1679  0.8508  1.0502
13772TIP3   OH262730   1.833   6.551   0.849 -0.8853 -0.7302  0.0456
13772TIP3    H162731   1.866   6.638   0.871  0.3235 -1.0106 -0.5617
13772TIP3    H262732   1.784   6.524   0.927 -1.9993  0.8182 -0.0798
13773TIP3   OH262733   6.450   2.522  15.807 -0.1197 -0.2716 -0.0863
13773TIP3    H162734   6.458   2.438  15.761  0.0908 -0.5197  0.3939
13773TIP3    H262735   6.537   2.539  15.842 -0.3957 -0.3588  0.6787
13774TIP3   OH262736   0.123   2.846  15.988 -0.7140 -0.4814 -0.3899
13774TIP3    H162737   0.075   2.871  15.909 -0.7008  0.8873  0.0209
13774TIP3    H262738   0.086   2.900  16.057  1.4180  0.6702 -0.0655
13775TIP3   OH262739   1.632   5.292   6.381  0.1842 -0.2270 -0.4766
13775TIP3    H162740   1.678   5.334   6.454 -0.5196  1.7121 -1.0817
13775TIP3    H262741   1.629   5.359   6.313 -1.4225 -1.1093 -1.3272
13776TIP3   OH262742   1.920   4.344  12.379 -0.0942  0.2942 -0.5707
13776TIP3    H162743   1.972   4.421  12.404  2.1259 -1.1650 -0.3477
13776TIP3    H262744   1.910   4.352  12.284  2.4277 -0.3373 -0.9844
13777TIP3   OH262745   4.982   4.976   5.372 -0.0342  0.1235 -0.3882
13777TIP3    H162746   5.008   5.020   5.453 -0.7407 -1.6026  0.8354
13777TIP3    H262747   5.025   5.026   5.303  0.5337  1.7007  1.0297
13778TIP3   OH262748   3.324   5.420   5.050  0.1228 -0.3296 -0.0386
13778TIP3    H162749   3.304   5.442   5.141 -0.3669  0.4118 -0.3224
13778TIP3    H262750   3.417   5.439   5.041  0.2285 -0.6171  0.3581
13779TIP3   OH262751   5.633   2.466  13.726 -0.5618  0.1836 -0.8124
13779TIP3    H162752   5.660   2.550  13.762  0.8156  0.5106 -2.4451
13779TIP3    H262753   5.595   2.419  13.800 -1.3056  2.1934  0.1570
13780TIP3   OH262754   0.615   6.070  16.210 -0.3247 -0.1028  0.1312
13780TIP3    H162755   0.686   6.109  16.159 -0.0330 -0.1334  0.4993
13780TIP3    H262756   0.653   5.989  16.245 -0.7794 -0.4924 -0.2629
13781TIP3   OH262757   4.810   3.501   2.012 -0.1413 -0.9579  0.3265
13781TIP3    H162758   4.887   3.525   1.960  0.2779  2.0555  2.1045
13781TIP3    H262759   4.777   3.421   1.971  1.3581  0.0516 -3.1872
13782TIP3   OH262760   5.101   3.703   1.071  0.4622 -0.0916  0.1951
13782TIP3    H162761   5.083   3.630   1.130  0.2568  0.4142  0.7755
13782TIP3    H262762   5.020   3.716   1.023  0.3806 -0.0061  0.3571
13783TIP3   OH262763   4.568   6.185   3.790 -0.2468  0.0097 -0.0340
13783TIP3    H162764   4.539   6.256   3.847 -0.5852 -1.2388  1.4215
13783TIP3    H262765   4.647   6.151   3.832 -0.8532 -1.3390  0.0618
13784TIP3   OH262766   2.081   0.108  11.462  0.3446  0.4571  0.2889
13784TIP3    H162767   2.009   0.127  11.402  0.1363 -1.2054 -0.0601
13784TIP3    H262768   2.157   0.096  11.405  0.0306 -1.6783  0.2359
13785TIP3   OH262769   5.838   3.333  13.384 -0.4424 -0.1115  0.2023
13785TIP3    H162770   5.851   3.317  13.478  0.1403  0.0038  0.1484
13785TIP3    H262771   5.854   3.248  13.343  1.5090  0.2890  0.0201
13786TIP3   OH262772   0.488   4.628   5.117 -0.0205  0.1661  0.3523
13786TIP3    H162773   0.473   4.558   5.054  1.4516  0.8674 -0.8277
13786TIP3    H262774   0.408   4.681   5.114 -0.4893 -0.5542  0.0557
13787TIP3   OH262775   2.390   6.182   1.974  0.2069 -0.1971  0.1395
13787TIP3    H162776   2.433   6.126   1.909  0.6382 -1.8115  1.7215
13787TIP3    H262777   2.421   6.270   1.954  0.1487 -0.5932 -1.9518
13788TIP3   OH262778   2.758   1.667  13.111 -0.3223 -0.8167 -0.0422
13788TIP3    H162779   2.795   1.603  13.049 -0.1364 -2.5166  1.7367
13788TIP3    H262780   2.685   1.621  13.153 -0.4101  0.2632  1.0457
13789TIP3   OH262781   2.434   0.314  14.624 -0.1895  0.3619 -0.5580
13789TIP3    H162782   2.438   0.238  14.683 -2.1196  0.2428 -0.4914
13789TIP3    H262783   2.493   0.378  14.663  0.6919 -0.7265 -0.0367
13790TIP3   OH262784   6.791   2.433   2.522  0.0949  0.3303 -0.3397
13790TIP3    H162785   6.865   2.397   2.570 -0.2576 -0.6975 -0.5480
13790TIP3    H262786   6.791   2.387   2.439 -1.7721 -0.9590  0.3058
13791TIP3   OH262787   5.303   5.263  16.927  0.7786  0.3072 -0.1079
13791TIP3    H162788   5.369   5.195  16.938 -0.3516 -0.8284 -0.2420
13791TIP3    H262789   5.344   5.326  16.867  1.3457 -0.9094 -1.0327
13792TIP3   OH262790   2.515   0.560  11.930 -0.3544  0.1141  0.2549
13792TIP3    H162791   2.591   0.608  11.963  0.7442 -0.7659 -0.8847
13792TIP3    H262792   2.536   0.468  11.947 -0.9239 -0.1729 -0.5446
13793TIP3   OH262793   6.573   3.542  11.980  0.1365  0.2492 -0.4303
13793TIP3    H162794   6.509   3.486  11.937  0.3686 -2.1404  2.0930
13793TIP3    H262795   6.525   3.584  12.050  0.7741  0.4036 -0.0801
13794TIP3   OH262796   4.411   4.107  15.649 -0.3836 -0.1588 -0.2099
13794TIP3    H162797   4.395   4.098  15.743 -1.5735  0.1209 -0.3719
13794TIP3    H262798   4.395   4.019  15.614  2.9208 -1.0511  0.1809
13795TIP3   OH262799   1.772   3.271   5.262  0.0965  0.5164 -0.2703
13795TIP3    H162800   1.779   3.322   5.181 -1.4377 -0.8022 -1.3090
13795TIP3    H262801   1.698   3.213   5.247  0.0775 -0.1162  1.9261
13796TIP3   OH262802   0.744   5.130  14.720  1.0131  0.1692 -0.0040
13796TIP3    H162803   0.768   5.207  14.669  3.9768 -1.1287 -0.7837
13796TIP3    H262804   0.827   5.099  14.758  0.0418 -2.8225 -0.0516
13797TIP3   OH262805   4.789   1.147   6.697  0.1219  0.1038 -0.3429
13797TIP3    H162806   4.782   1.140   6.602 -0.2430 -0.4315 -0.2802
13797TIP3    H262807   4.771   1.059   6.730 -2.2438  0.7517  0.3515
13798TIP3   OH262808   4.749   6.466   2.616  0.0083 -0.3048 -0.4571
13798TIP3    H162809   4.843   6.462   2.635  0.2692 -1.1936 -1.7947
13798TIP3    H262810   4.714   6.526   2.681  1.1884 -1.4424  1.3007
13799TIP3   OH262811   3.969   2.715  16.878 -0.3725 -1.4780  0.2568
13799TIP3    H162812   3.954   2.789  16.936 -2.0532  0.8407 -2.8352
13799TIP3    H262813   4.063   2.718  16.860 -0.4006 -0.0039  0.1933
13800TIP3   OH262814   0.135   3.866  11.662 -0.2866 -0.3631 -0.0676
13800TIP3    H162815   0.070   3.918  11.709 -0.8916 -0.5722 -0.6592
13800TIP3    H262816   0.219   3.906  11.686 -0.7459  0.9615 -0.5952
13801TIP3   OH262817   4.408   5.419   5.151 -0.3932 -0.1146  0.0350
13801TIP3    H162818   4.374   5.388   5.234  1.4170  0.5905  1.1016
13801TIP3    H262819   4.492   5.460   5.173  1.1307 -1.6985 -2.3948
13802TIP3   OH262820   2.883   6.451   5.737 -0.1038  0.3585  0.3570
13802TIP3    H162821   2.938   6.493   5.803  1.8696 -1.8695  0.2554
13802TIP3    H262822   2.876   6.360   5.766  0.2490 -0.5365 -2.1225
13803TIP3   OH262823   2.196   4.523   4.416 -0.0308  0.1388 -0.0975
13803TIP3    H162824   2.163   4.515   4.505 -1.1155 -1.4592 -0.5971
13803TIP3    H262825   2.254   4.447   4.405  0.9323  0.9037 -0.4244
13804TIP3   OH262826   3.172   4.016   2.317  0.0814  0.4463  0.3205
13804TIP3    H162827   3.220   3.983   2.241 -0.3875 -0.1153  0.2657
13804TIP3    H262828   3.095   3.960   2.324 -0.2255  0.9137  0.8153
13805TIP3   OH262829   5.404   4.385   2.787 -0.1131  0.2772 -0.8516
13805TIP3    H162830   5.490   4.423   2.769  0.3013  0.5012  1.3143
13805TIP3    H262831   5.343   4.459   2.779  0.4494  1.0732  1.4606
13806TIP3   OH262832   4.720   1.201  13.684 -0.5516  0.2855 -0.1660
13806TIP3    H162833   4.638   1.224  13.639 -1.1258  1.4539  1.3787
13806TIP3    H262834   4.783   1.187  13.613 -1.5199  1.6704 -1.3712
13807TIP3   OH262835   4.476   4.790  13.765  0.1720  0.6276  0.8310
13807TIP3    H162836   4.473   4.801  13.670 -0.0780 -0.9978  0.6099
13807TIP3    H262837   4.494   4.696  13.777 -1.0505  0.5549  2.3758
13808TIP3   OH262838   2.636   5.924  14.698 -0.3643 -0.3261 -0.1963
13808TIP3    H162839   2.680   5.992  14.749 -0.8120  0.0677 -0.3317
13808TIP3    H262840   2.635   5.958  14.609 -0.7658 -0.4198 -0.2293
13809TIP3   OH262841   2.738   0.379  16.919 -0.0368 -0.6034  0.3931
13809TIP3    H162842   2.670   0.410  16.860 -0.6483  0.4427  1.6079
13809TIP3    H262843   2.817   0.375  16.864 -0.9816 -1.5641 -0.9578
13810TIP3   OH262844   4.283   3.357   1.956  0.0419 -0.3089  0.6108
13810TIP3    H162845   4.215   3.307   1.912 -0.1546 -0.6842  1.3160
13810TIP3    H262846   4.323   3.410   1.887 -0.7160 -0.3588  0.1241
13811TIP3   OH262847   1.111   2.649  12.610  0.5294 -0.3606 -0.1545
13811TIP3    H162848   1.020   2.623  12.593  0.5826 -0.1412 -0.8251
13811TIP3    H262849   1.121   2.731  12.561  0.6665  0.3826  1.0763
13812TIP3   OH262850   1.559   3.339   0.497 -0.0895 -0.0300  0.0540
13812TIP3    H162851   1.640   3.313   0.540  0.9183  1.5821 -0.7562
13812TIP3    H262852   1.583   3.349   0.405 -1.6533 -1.2164 -0.5256
13813TIP3   OH262853   6.187   5.348   4.736 -0.0469  0.3436  0.7074
13813TIP3    H162854   6.238   5.420   4.772  0.9728 -0.0492  0.1029
13813TIP3    H262855   6.235   5.269   4.763 -1.0816 -0.1173  1.2653
13814TIP3   OH262856   6.646   6.724  16.540 -0.3299  0.0869 -0.7468
13814TIP3    H162857   6.573   6.776  16.506  0.8957  1.2871 -1.6817
13814TIP3    H262858   6.723   6.778  16.524  0.7681 -1.0931  0.3103
13815TIP3   OH262859   5.489   6.322   2.163  0.1328  0.0334  0.3740
13815TIP3    H162860   5.557   6.376   2.121 -0.8428  1.3388  0.3999
13815TIP3    H262861   5.509   6.233   2.134  0.8204  0.6047 -1.0562
13816TIP3   OH262862   4.264   2.747  15.964  0.3460 -0.0733  0.0020
13816TIP3    H162863   4.331   2.814  15.980  2.1954 -1.3714 -1.7977
13816TIP3    H262864   4.245   2.754  15.870 -1.4385 -0.3409  0.2983
13817TIP3   OH262865   5.849   0.763   0.871 -0.4791 -0.4486 -0.0978
13817TIP3    H162866   5.890   0.698   0.929  1.8307 -2.7644 -3.8873
13817TIP3    H262867   5.916   0.831   0.860 -1.4264  0.6809  0.8850
13818TIP3   OH262868   2.335   3.412   0.821  0.0492 -0.2528 -0.0110
13818TIP3    H162869   2.320   3.441   0.911  0.8451  1.7377 -0.4648
13818TIP3    H262870   2.424   3.377   0.821 -0.4739 -1.6398  0.2658
13819TIP3   OH262871   2.037   1.402  16.266  0.6516  0.3459  0.5732
13819TIP3    H162872   2.097   1.333  16.240  0.3959 -0.7947  2.8002
13819TIP3    H262873   2.087   1.483  16.255  0.8690 -0.0572 -2.3258
13820TIP3   OH262874   4.848   3.257   4.824  0.3223  0.2697  0.2185
13820TIP3    H162875   4.826   3.344   4.789  0.8103  0.5653  0.6248
13820TIP3    H262876   4.930   3.271   4.871  0.3169 -0.3840  0.4269
13821TIP3   OH262877   1.434   5.913  15.363  0.1561 -0.1487 -0.4322
13821TIP3    H162878   1.399   5.996  15.333  1.7863  0.4979 -0.6532
13821TIP3    H262879   1.422   5.914  15.458  0.7627  0.6533 -0.3526
13822TIP3   OH262880   5.540   4.685  11.934 -1.0343 -0.5222  0.5221
13822TIP3    H162881   5.477   4.639  11.990 -1.6931  0.5721  0.7005
13822TIP3    H262882   5.536   4.637  11.851 -1.4097 -1.0359  0.8253
13823TIP3   OH262883   0.791   2.098  15.654 -0.2275 -0.2083  0.1978
13823TIP3    H162884   0.778   2.157  15.581  0.9641 -1.8594 -1.4434
13823TIP3    H262885   0.713   2.043  15.656  1.3931 -2.9048 -2.6314
13824TIP3   OH262886   1.622   1.834  14.650  0.1535  0.0756 -0.2786
13824TIP3    H162887   1.588   1.835  14.561 -0.4062 -0.1717 -0.0716
13824TIP3    H262888   1.674   1.914  14.657  2.3126 -1.1180 -1.6257
13825TIP3   OH262889   3.240   0.973   4.498  0.5573 -0.3741  0.6190
13825TIP3    H162890   3.258   0.991   4.591  0.3022 -1.4751  0.8997
13825TIP3    H262891   3.316   0.923   4.469 -0.3541 -1.9744  0.8587
13826TIP3   OH262892   0.926   1.884  16.762  0.6868  0.2562  0.1281
13826TIP3    H162893   0.994   1.849  16.705  1.1071  2.2996 -0.6881
13826TIP3    H262894   0.865   1.927  16.703 -1.0216 -0.9640  0.9058
13827TIP3   OH262895   3.811   5.976   0.679 -0.3729 -0.0847 -0.5061
13827TIP3    H162896   3.748   6.035   0.638 -0.1374  0.0695 -0.6491
13827TIP3    H262897   3.759   5.921   0.738 -0.6459  0.0020 -0.6699
13828TIP3   OH262898   1.525   6.323   1.210 -0.3191  0.0394  0.0737
13828TIP3    H162899   1.482   6.252   1.259 -1.2290  0.2702 -0.3842
13828TIP3    H262900   1.532   6.394   1.273 -1.9696  0.5215 -0.2505
13829TIP3   OH262901   3.707   3.564   2.133 -0.2042  0.3956 -0.1684
13829TIP3    H162902   3.652   3.486   2.125  1.0785 -0.5577 -0.0751
13829TIP3    H262903   3.710   3.582   2.227  0.3688 -0.1105 -0.0833
13830TIP3   OH262904   4.070   1.177   0.306  0.1803  0.6203  0.2026
13830TIP3    H162905   4.023   1.098   0.278  0.5705  0.2782  0.5056
13830TIP3    H262906   4.162   1.151   0.310  0.3785  1.2290 -0.1836
13831TIP3   OH262907   4.263   5.689  14.732 -0.2394 -0.0415 -0.1776
13831TIP3    H162908   4.250   5.704  14.638  1.3753  1.6084 -0.1949
13831TIP3    H262909   4.196   5.742  14.775 -1.9772 -1.9676 -0.3400
13832TIP3   OH262910   1.053   0.869  15.078 -0.2759 -0.0785  0.4137
13832TIP3    H162911   0.963   0.843  15.096  0.0006 -0.3817  1.4737
13832TIP3    H262912   1.099   0.787  15.058 -0.4916  0.2130 -1.4463
13833TIP3   OH262913   1.486   1.156   3.770 -0.7413  0.4766  0.5683
13833TIP3    H162914   1.515   1.247   3.766 -0.0828  0.2335 -0.5977
13833TIP3    H262915   1.395   1.159   3.738 -0.6960  0.7075  0.4591
13834TIP3   OH262916   0.356   2.390   1.410  0.3178 -0.2183  0.3215
13834TIP3    H162917   0.285   2.451   1.392  0.6968  0.6965  1.8020
13834TIP3    H262918   0.397   2.375   1.324 -1.0064  0.0139 -0.3826
13835TIP3   OH262919   6.216   1.620   1.475  0.1579 -0.0906  0.8919
13835TIP3    H162920   6.239   1.614   1.382 -0.2779  0.2095  0.7606
13835TIP3    H262921   6.276   1.686   1.510 -1.2562  1.5895  0.2851
13836TIP3   OH262922   4.623   5.640  14.166  0.6140  0.0704 -0.2272
13836TIP3    H162923   4.632   5.641  14.261  1.8547 -0.1087 -0.3310
13836TIP3    H262924   4.644   5.728  14.138 -0.4345  0.3144 -0.2989
13837TIP3   OH262925   6.669   4.776   0.021  0.2960  0.5048 -0.4247
13837TIP3    H162926   6.715   4.708   0.070 -0.1020  0.6788  0.2059
13837TIP3    H262927   6.686   4.857   0.069 -0.8192  0.5420 -0.0626
13838TIP3   OH262928   1.115   3.405   3.335  0.0329  0.0836  0.5243
13838TIP3    H162929   1.210   3.410   3.345  0.2096  3.1693 -1.3214
13838TIP3    H262930   1.101   3.354   3.255  0.4473  2.5134 -1.2068
13839TIP3   OH262931   6.557   0.613  15.291  0.1149  0.0999  0.1507
13839TIP3    H162932   6.640   0.580  15.256 -1.1313 -2.0343 -0.9794
13839TIP3    H262933   6.554   0.579  15.380 -0.1818 -1.1203 -0.3005
13840TIP3   OH262934   6.287   5.099   2.879 -0.5862  0.5462 -0.1047
13840TIP3    H162935   6.289   5.184   2.836 -1.3745  0.7089  0.1594
13840TIP3    H262936   6.274   5.036   2.808 -0.7764  0.7125 -0.2152
13841TIP3   OH262937   0.858   3.704   4.141 -0.0648 -0.3677 -0.4747
13841TIP3    H162938   0.878   3.739   4.228 -0.8308  3.5151 -1.6678
13841TIP3    H262939   0.943   3.701   4.097  0.0150  0.1513 -0.3658
13842TIP3   OH262940   3.649   3.618   0.697  0.6852  0.1229 -0.0385
13842TIP3    H162941   3.593   3.694   0.680  0.0739  0.1449  1.8996
13842TIP3    H262942   3.656   3.575   0.612 -1.5242  0.6446 -0.5527
13843TIP3   OH262943   6.204   5.548   0.438 -0.4741 -0.0428  0.2052
13843TIP3    H162944   6.214   5.583   0.527  2.1685 -0.8757  0.3134
13843TIP3    H262945   6.280   5.581   0.390 -0.4415 -1.7510 -1.0066
13844TIP3   OH262946   4.517   5.045  17.176  0.6895  0.4595  0.5091
13844TIP3    H162947   4.593   4.991  17.154  0.5809  1.0349 -1.4019
13844TIP3    H262948   4.543   5.134  17.151 -1.2855  0.3989 -2.1593
13845TIP3   OH262949   1.198   3.152   6.202  0.6259  0.2456 -0.0457
13845TIP3    H162950   1.107   3.161   6.173 -0.2461  0.7826  2.5951
13845TIP3    H262951   1.237   3.090   6.140 -1.1645  0.9256 -1.9664
13846TIP3   OH262952   5.294   2.049  13.076  0.0639  0.2298 -0.2112
13846TIP3    H162953   5.327   2.091  13.155 -0.9388  0.1830  0.2490
13846TIP3    H262954   5.346   1.969  13.068  0.3335  0.3512  0.2719
13847TIP3   OH262955   0.461   2.565   2.333  0.1288 -0.6418  0.9434
13847TIP3    H162956   0.451   2.659   2.320  3.7070 -0.3192 -0.7565
13847TIP3    H262957   0.441   2.552   2.426 -1.6146  1.5458  0.9483
13848TIP3   OH262958   4.330   6.348  13.678 -0.7278  0.0346 -0.5717
13848TIP3    H162959   4.413   6.352  13.725 -0.5307  2.6454 -0.9975
13848TIP3    H262960   4.288   6.267  13.709  0.5431  0.2951  2.0595
13849TIP3   OH262961   1.995   3.477  11.813  0.3006 -0.8783  0.5283
13849TIP3    H162962   2.064   3.539  11.836  0.5960 -1.1283  0.3227
13849TIP3    H262963   2.040   3.409  11.762 -0.2645 -0.5315 -0.4605
13850TIP3   OH262964   4.086   5.205   0.402 -0.4484 -0.6079  0.0834
13850TIP3    H162965   4.061   5.162   0.483 -1.4092  0.6924  0.4973
13850TIP3    H262966   4.012   5.261   0.380  1.3854  2.1529  0.4953
13851TIP3   OH262967   0.328   2.159  13.058 -0.5620 -0.0356 -0.3451
13851TIP3    H162968   0.296   2.070  13.069 -1.2129  0.0903 -1.1103
13851TIP3    H262969   0.266   2.213  13.107 -0.6692  0.0746 -0.6020
13852TIP3   OH262970   5.366   5.249  10.725  0.0830 -0.0463  0.7429
13852TIP3    H162971   5.337   5.227  10.636  0.3217  2.2561  0.0469
13852TIP3    H262972   5.461   5.243  10.721  0.0849 -0.1321  0.9122
13853TIP3   OH262973   5.401   3.863   4.052  0.1737 -1.0357 -0.7906
13853TIP3    H162974   5.432   3.789   4.105 -1.1590  0.0995  1.7382
13853TIP3    H262975   5.307   3.868   4.071  0.2803  1.4758 -0.5926
13854TIP3   OH262976   3.940   5.601   1.257 -0.5780 -0.1271 -0.2978
13854TIP3    H162977   3.891   5.611   1.338 -0.3667 -0.1375 -0.1680
13854TIP3    H262978   4.014   5.660   1.266 -0.0900 -0.7491 -0.1201
13855TIP3   OH262979   4.908   3.904   1.559 -0.3731  0.0534 -0.0893
13855TIP3    H162980   4.969   3.830   1.567  0.3378  0.4757 -1.3463
13855TIP3    H262981   4.913   3.948   1.644  0.9543 -0.0253 -0.0949
13856TIP3   OH262982   5.318   2.998  11.994  0.0471  0.6580  0.0715
13856TIP3    H162983   5.334   3.087  12.026  2.0837  0.3538  0.0313
13856TIP3    H262984   5.320   3.006  11.899 -0.3985  0.6528  0.0574
13857TIP3   OH262985   4.476   6.709  14.013 -0.3829  0.0371  0.2544
13857TIP3    H162986   4.506   6.790  14.053 -1.2404  0.7541 -0.4957
13857TIP3    H262987   4.430   6.663  14.083 -0.4853  0.5281  0.5148
13858TIP3   OH262988   4.834   0.107   0.891 -0.3729 -0.2325 -0.1837
13858TIP3    H162989   4.905   0.075   0.947 -0.1444  0.3839 -0.1163
13858TIP3    H262990   4.755   0.093   0.944 -0.1425  0.4847  0.3597
13859TIP3   OH262991   3.668   6.673   1.974  0.1528  0.4154  0.7162
13859TIP3    H162992   3.652   6.663   1.880 -2.5457  0.6417  1.0744
13859TIP3    H262993   3.672   6.768   1.988 -0.1295  0.4017  0.9085
13860TIP3   OH262994   6.527   3.276   0.581  0.6774 -0.4485 -0.3119
13860TIP3    H162995   6.446   3.278   0.631  0.6433 -2.2644 -0.2129
13860TIP3    H262996   6.545   3.367   0.559 -1.8392 -0.0659 -1.0450
13861TIP3   OH262997   6.142   5.922  11.671  0.0882 -0.4140 -0.5333
13861TIP3    H162998   6.119   5.946  11.581  0.8460  1.0478 -0.3670
13861TIP3    H262999   6.057   5.912  11.715 -0.3424 -2.2850 -1.6281
13862TIP3   OH263000   3.320   6.660   1.409  0.2466 -0.4368 -0.1048
13862TIP3    H163001   3.371   6.639   1.331 -0.5237  0.0702 -0.7545
13862TIP3    H263002   3.304   6.575   1.451 -1.0053 -0.9668 -1.5567
13863TIP3   OH263003   0.358   5.425  11.608  0.0102  0.6058 -0.9282
13863TIP3    H163004   0.321   5.504  11.648 -0.9693  0.3582 -1.3199
13863TIP3    H263005   0.397   5.377  11.682  0.8367  1.5558 -0.7234
13864TIP3   OH263006   4.558   2.038  14.910  0.2570 -0.0487 -0.1986
13864TIP3    H163007   4.611   2.114  14.930  1.5827 -0.7245 -0.9554
13864TIP3    H263008   4.567   2.027  14.815 -0.6094 -0.6417 -0.2271
13865TIP3   OH263009   5.325   1.017   6.535 -0.8202  0.6431 -0.3716
13865TIP3    H163010   5.348   1.096   6.584  0.4156  0.5845 -0.8031
13865TIP3    H263011   5.270   0.967   6.595  0.8782  0.4407  1.1173
13866TIP3   OH263012   2.352   3.056  11.916  0.3897 -0.2009 -0.5218
13866TIP3    H163013   2.391   3.047  12.003  1.1122 -0.6766 -0.8857
13866TIP3    H263014   2.329   2.967  11.890  0.4765 -0.1001 -0.9537
13867TIP3   OH263015   1.252   3.083   4.450  0.0622  0.2129  0.2043
13867TIP3    H163016   1.220   3.166   4.415 -0.6929 -0.7385 -1.5024
13867TIP3    H263017   1.187   3.059   4.516 -0.5423  0.2785 -0.3509
13868TIP3   OH263018   0.567   3.610   0.957 -0.0646  0.1079 -0.2544
13868TIP3    H163019   0.492   3.669   0.970 -1.0689 -0.6049 -2.3553
13868TIP3    H263020   0.599   3.592   1.045 -1.0748  2.0691  0.5778
13869TIP3   OH263021   4.623   2.829  13.341  0.4508 -0.1160  0.3874
13869TIP3    H163022   4.635   2.865  13.429  0.3929  0.3517  0.2052
13869TIP3    H263023   4.702   2.856  13.293 -0.4657  1.4501 -0.3084
13870TIP3   OH263024   4.343   1.941  12.279  0.2968 -0.1458  0.0525
13870TIP3    H163025   4.249   1.927  12.272  0.3252 -0.0259 -0.6370
13870TIP3    H263026   4.380   1.896  12.203  0.6893  0.7460 -0.2987
13871TIP3   OH263027   1.714   5.290  16.025 -0.3303  0.4758 -0.1401
13871TIP3    H163028   1.710   5.357  15.957 -1.5133 -0.5221 -1.1093
13871TIP3    H263029   1.627   5.292  16.065 -0.2251 -0.1552  0.1345
13872TIP3   OH263030   1.501   3.735  13.755  0.5871  0.3223  0.4881
13872TIP3    H163031   1.557   3.672  13.802  0.9776  1.7394  2.0017
13872TIP3    H263032   1.412   3.708  13.777  0.7536  0.3966  1.2746
13873TIP3   OH263033   4.397   4.702   2.073  0.0216  0.3789 -0.1207
13873TIP3    H163034   4.304   4.679   2.083 -1.0401  3.0202 -2.3935
13873TIP3    H263035   4.413   4.766   2.142  0.4078 -0.6869  0.7844
13874TIP3   OH263036   1.849   2.596  13.385  0.1592 -0.3972 -0.0783
13874TIP3    H163037   1.859   2.691  13.395  1.3932 -0.5560  0.3846
13874TIP3    H263038   1.841   2.583  13.291  1.8511  0.0382 -0.3276
13875TIP3   OH263039   5.877   1.989  15.923  0.3363 -0.3208  0.3572
13875TIP3    H163040   5.852   2.077  15.951  2.5411  0.5239 -0.1447
13875TIP3    H263041   5.854   1.933  15.997  1.2222  1.0754  1.7541
13876TIP3   OH263042   5.460   2.885  14.192  0.0132  0.6661  0.5503
13876TIP3    H163043   5.509   2.803  14.193 -0.8970  0.0969  1.9280
13876TIP3    H263044   5.492   2.932  14.269 -0.2954  1.1028  0.4138
13877TIP3   OH263045   1.016   1.922   0.799 -0.0966 -0.2549  0.2059
13877TIP3    H163046   1.048   2.011   0.810  0.7696 -0.2448 -1.9825
13877TIP3    H263047   1.080   1.868   0.846  0.5251  0.1264 -0.1915
13878TIP3   OH263048   0.495   4.166   1.418 -0.1251  0.5128 -0.1257
13878TIP3    H163049   0.456   4.120   1.344 -1.2000  1.1048  0.0408
13878TIP3    H263050   0.484   4.259   1.396 -1.6758  0.7381  1.3259
13879TIP3   OH263051   3.233   2.086   2.254 -0.1914  0.1459  0.2158
13879TIP3    H163052   3.238   1.999   2.294  0.8519 -0.1751 -0.5488
13879TIP3    H263053   3.140   2.105   2.247 -0.4169 -0.1941  1.8950
13880TIP3   OH263054   6.293   1.979  14.752  0.3569  0.4167  0.0635
13880TIP3    H163055   6.364   1.945  14.806  0.1015 -0.8528 -0.3700
13880TIP3    H263056   6.324   1.968  14.662 -0.9040 -1.4755 -0.2047
13881TIP3   OH263057   3.726   5.312  11.290 -0.8319  0.8733  0.0482
13881TIP3    H163058   3.763   5.240  11.238 -0.2823 -1.9084  3.8045
13881TIP3    H263059   3.797   5.376  11.297  0.9653 -1.1070  1.3904
13882TIP3   OH263060   1.797   1.742   5.195 -0.1322 -0.1317 -0.1426
13882TIP3    H163061   1.885   1.730   5.159 -0.7963 -4.2169 -0.8472
13882TIP3    H263062   1.749   1.787   5.125  0.8078 -0.0136 -0.7269
13883TIP3   OH263063   2.880   4.024   5.612 -0.1462 -0.0383  0.0189
13883TIP3    H163064   2.856   4.070   5.693 -1.6404 -0.2747 -0.2603
13883TIP3    H263065   2.965   4.060   5.589 -0.3508  1.0899  0.9206
13884TIP3   OH263066   4.312   2.904  12.331  0.8645 -0.2189  0.2906
13884TIP3    H163067   4.230   2.953  12.336  0.3866 -0.9542 -0.2198
13884TIP3    H263068   4.375   2.958  12.379  0.6654  1.5511 -1.3343
13885TIP3   OH263069   3.942   1.830  15.525 -0.6377 -0.0990  0.6038
13885TIP3    H163070   4.012   1.850  15.587 -0.4552  1.0071  0.0561
13885TIP3    H263071   3.889   1.909  15.522 -1.3620 -0.5814  0.2666
13886TIP3   OH263072   0.476   6.599  12.072  0.1693  0.0555 -0.2876
13886TIP3    H163073   0.440   6.642  12.149 -1.1531 -0.8490 -0.3659
13886TIP3    H263074   0.519   6.668  12.023 -1.1369  1.1129  0.0201
13887TIP3   OH263075   5.125   0.751  14.814  0.4317  0.4834 -0.1327
13887TIP3    H163076   5.073   0.710  14.744  0.6838 -0.6185  0.2982
13887TIP3    H263077   5.092   0.712  14.895  1.0638  0.7237  0.2531
13888TIP3   OH263078   4.691   0.361  13.290  0.7884 -0.4163  0.1376
13888TIP3    H163079   4.699   0.410  13.372 -0.1988 -0.4330  0.2507
13888TIP3    H263080   4.682   0.428  13.223 -2.8151 -0.3451  0.5100
13889TIP3   OH263081   3.551   4.303  12.064 -0.2888  0.5630  0.2463
13889TIP3    H163082   3.596   4.249  12.128 -1.9618 -0.0826  0.9248
13889TIP3    H263083   3.503   4.241  12.009  0.4171  1.1662 -1.1231
13890TIP3   OH263084   5.836   1.893   1.054  0.1336 -0.1118  0.7429
13890TIP3    H163085   5.783   1.935   1.121  0.1877  0.2835  0.5413
13890TIP3    H263086   5.919   1.941   1.054  0.7805 -1.1961  1.5619
13891TIP3   OH263087   0.108   6.775   1.081 -0.0870  0.2648  0.2430
13891TIP3    H163088   0.118   6.806   1.171  0.4111 -1.6757  0.8991
13891TIP3    H263089   0.175   6.822   1.032  0.3539  0.5497  1.0969
13892TIP3   OH263090   5.845   5.670  15.696  0.1115 -0.3422  0.6677
13892TIP3    H163091   5.773   5.733  15.706 -0.8965 -1.1426 -1.0604
13892TIP3    H263092   5.819   5.597  15.752 -1.2562 -1.2679 -1.0719
13893TIP3   OH263093   5.561   5.877  11.684 -0.4061 -0.1053 -0.0394
13893TIP3    H163094   5.551   5.941  11.755 -0.2071  1.1328 -1.1114
13893TIP3    H263095   5.476   5.874  11.642 -0.1586  0.1207 -0.5554
13894TIP3   OH263096   5.835   0.866  15.926 -0.5564 -0.6565 -0.2158
13894TIP3    H163097   5.778   0.789  15.930  1.0359 -1.8688  0.7963
13894TIP3    H263098   5.904   0.841  15.865  1.3640 -1.1356  1.9859
13895TIP3   OH263099   3.849   2.303  11.808 -0.2539  0.5275  0.2395
13895TIP3    H163100   3.906   2.229  11.788  0.1790  0.9988 -0.2812
13895TIP3    H263101   3.907   2.379  11.811 -0.9055  1.0902 -0.7753
13896TIP3   OH263102   1.264   6.015  11.521  0.0582  0.2334  0.0324
13896TIP3    H163103   1.231   5.940  11.471 -1.6237  0.3208  0.9308
13896TIP3    H263104   1.271   6.086  11.456  1.9765 -0.7270 -0.8937
13897TIP3   OH263105   2.230   4.516   0.626  0.0981 -0.3219  0.4712
13897TIP3    H163106   2.283   4.501   0.704  0.0034 -0.0902  0.5819
13897TIP3    H263107   2.193   4.431   0.605  0.4037 -0.4578  0.4742
13898TIP3   OH263108   5.197   4.267  17.150  0.2770 -0.1688 -0.0048
13898TIP3    H163109   5.163   4.269  17.240 -0.4513  0.6996 -0.2860
13898TIP3    H263110   5.209   4.174  17.131 -1.9140 -0.5390  0.1323
13899TIP3   OH263111   0.440   5.593  13.570 -0.0309 -0.1845  0.1267
13899TIP3    H163112   0.497   5.626  13.500 -0.4742 -0.0750 -0.1891
13899TIP3    H263113   0.403   5.671  13.610 -1.1472 -0.2723 -0.6743
13900TIP3   OH263114   4.591   5.696   2.093  0.0799 -0.0044 -0.2700
13900TIP3    H163115   4.531   5.764   2.124  0.6503  1.2998 -1.8884
13900TIP3    H263116   4.556   5.615   2.130 -0.6799  1.1246  1.6443
13901TIP3   OH263117   5.683   1.323   0.804  0.5540 -0.2409  0.4791
13901TIP3    H163118   5.697   1.414   0.833  0.1474  0.4655 -1.4372
13901TIP3    H263119   5.771   1.288   0.794  0.7433  0.3371  0.0650
13902TIP3   OH263120   0.193   4.256   0.474  0.5928 -0.1660 -0.2594
13902TIP3    H163121   0.246   4.317   0.525  0.2975  0.6462 -0.9047
13902TIP3    H263122   0.208   4.281   0.383  0.4027 -1.0103 -0.5322
13903TIP3   OH263123   5.089   0.187  16.077 -0.4474  0.5990  0.2137
13903TIP3    H163124   5.140   0.233  16.144 -0.1809 -0.4196  0.7288
13903TIP3    H263125   5.074   0.101  16.114  2.4334 -1.1794 -2.2879
13904TIP3   OH263126   5.019   0.736  15.695  0.6363  0.7432  0.6835
13904TIP3    H163127   4.949   0.675  15.672 -0.9347  1.5743  2.9101
13904TIP3    H263128   5.096   0.704  15.648 -0.4748 -2.0726  0.6129
13905TIP3   OH263129   4.061   2.003  12.171  0.1615  0.3327 -0.3167
13905TIP3    H163130   4.046   1.929  12.230  1.0192 -0.5154 -1.1188
13905TIP3    H263131   3.995   1.993  12.103 -0.4510  0.9743  0.1683
13906TIP3   OH263132   5.760   2.170   0.488 -0.3857 -0.1974  0.2781
13906TIP3    H163133   5.807   2.227   0.426 -0.4888  2.4388  2.4541
13906TIP3    H263134   5.668   2.185   0.469 -0.4205  0.6997  1.0422
13907TIP3   OH263135   2.663   3.898   2.625  0.6351 -0.0937  0.0662
13907TIP3    H163136   2.592   3.911   2.563 -1.3845  1.8533  2.5911
13907TIP3    H263137   2.742   3.921   2.576 -0.2015 -2.9797 -3.0321
13908TIP3   OH263138   1.587   3.771   2.322 -0.0005  0.2739  0.1068
13908TIP3    H163139   1.546   3.834   2.263 -0.3229 -1.2045 -1.3431
13908TIP3    H263140   1.632   3.710   2.264  0.0749 -0.9831  1.4255
13909TIP3   OH263141   1.613   1.555  14.276 -0.3625 -0.0745  0.1071
13909TIP3    H163142   1.634   1.481  14.219  2.2422 -0.4558  1.3787
13909TIP3    H263143   1.661   1.629  14.237 -1.4479  0.5287 -0.1203
13910TIP3   OH263144   0.844   3.768   1.554 -0.1349  0.5888  0.0929
13910TIP3    H163145   0.821   3.860   1.563  2.4994  1.4102 -0.4635
13910TIP3    H263146   0.808   3.726   1.632 -2.6914  1.7414 -0.3672
13911TIP3   OH263147   4.875   2.099  16.445 -0.6996  0.1009 -0.2731
13911TIP3    H163148   4.865   2.192  16.464 -0.2455 -0.0078  0.5140
13911TIP3    H263149   4.785   2.066  16.441 -0.8410  0.1816  1.4984
13912TIP3   OH263150   3.859   4.942   6.590 -0.2189 -0.2346  0.1265
13912TIP3    H163151   3.781   4.914   6.637 -0.0077 -1.9745 -0.4855
13912TIP3    H263152   3.930   4.888   6.627  0.3743  0.0934 -0.4991
13913TIP3   OH263153   3.043   1.014   0.086  0.0544 -0.3039 -0.0565
13913TIP3    H163154   2.983   1.019   0.011  0.1599  0.8777 -0.0936
13913TIP3    H263155   3.077   0.925   0.084 -1.7479 -1.0343  0.0167
13914TIP3   OH263156   6.261   4.147   2.492 -0.2559  0.0330  0.0398
13914TIP3    H163157   6.247   4.227   2.543  0.4585  1.2674 -1.6224
13914TIP3    H263158   6.177   4.101   2.497  0.0671 -0.4960  3.1707
13915TIP3   OH263159   4.154   2.201  10.625  0.2331 -0.3875 -0.4073
13915TIP3    H163160   4.162   2.107  10.644 -0.8666 -0.4683 -0.2746
13915TIP3    H263161   4.228   2.220  10.567  1.2600 -1.0344  0.6321
13916TIP3   OH263162   3.508   3.988  16.615 -0.0517  0.0951  0.5841
13916TIP3    H163163   3.552   3.978  16.700  0.5567  0.0166  0.2645
13916TIP3    H263164   3.415   3.991  16.637 -0.3046 -4.2029  0.9918
13917TIP3   OH263165   6.223   2.902   4.643  1.0189  0.6828 -0.1291
13917TIP3    H163166   6.314   2.915   4.670  0.9592  1.6981 -0.3772
13917TIP3    H263167   6.219   2.936   4.554  0.9237 -1.4665 -1.0248
13918TIP3   OH263168   6.348   6.722  14.320 -0.0261  1.1990  0.5048
13918TIP3    H163169   6.367   6.632  14.292 -1.1868  0.7456  1.1029
13918TIP3    H263170   6.386   6.776  14.251  0.8240  0.2635  0.2031
13919TIP3   OH263171   1.627   5.978  12.129  0.4032  0.5220  0.0114
13919TIP3    H163172   1.585   6.011  12.049  0.5130  1.6741  0.4125
13919TIP3    H263173   1.554   5.964  12.190  0.2890 -0.6260 -0.3582
13920TIP3   OH263174   4.421   3.733   2.428 -0.0147 -0.0930 -0.0979
13920TIP3    H163175   4.341   3.729   2.479 -0.6711 -0.0655 -1.1019
13920TIP3    H263176   4.487   3.764   2.490 -0.6082 -0.8047  0.9239
13921TIP3   OH263177   6.605   1.189  10.693 -0.1329 -0.0674 -0.4942
13921TIP3    H163178   6.698   1.196  10.671  0.3254 -2.7704  0.2260
13921TIP3    H263179   6.570   1.127  10.629 -0.3040 -2.7349  1.9981
13922TIP3   OH263180   2.697   3.592   0.994  0.2663  0.1473  0.1518
13922TIP3    H163181   2.609   3.573   0.961  0.7640 -1.9396 -0.1007
13922TIP3    H263182   2.690   3.580   1.089  0.0124  1.2174  0.2823
13923TIP3   OH263183   5.812   3.105  14.726  0.0169  0.3362 -0.6780
13923TIP3    H163184   5.853   3.179  14.682  4.7438 -0.9156  1.0186
13923TIP3    H263185   5.818   3.033  14.664 -0.9433  0.4534 -0.9141
13924TIP3   OH263186   0.360   0.723  12.373 -0.0384  0.1771  0.3167
13924TIP3    H163187   0.271   0.699  12.349 -0.3195 -0.1071  1.5798
13924TIP3    H263188   0.359   0.729  12.469  0.9532  1.5417  0.2771
13925TIP3   OH263189   1.321   1.943   5.613 -0.2101 -0.2602  0.2318
13925TIP3    H163190   1.401   1.980   5.575 -0.2567 -0.1291  0.2622
13925TIP3    H263191   1.289   1.882   5.546  0.7703 -1.5084  0.8500
13926TIP3   OH263192   5.922   0.383   0.875  0.1085  0.1330 -0.6300
13926TIP3    H163193   5.863   0.328   0.926  1.7523  0.3321  1.6522
13926TIP3    H263194   5.954   0.449   0.937  2.2973  0.3440 -1.8635
13927TIP3   OH263195   4.116   0.460  16.863 -0.5334  0.7851 -0.1137
13927TIP3    H163196   4.041   0.419  16.820 -1.2996  1.5298  0.4587
13927TIP3    H263197   4.099   0.449  16.957  0.9576 -0.5503  0.0267
13928TIP3   OH263198   6.700   4.456  12.349 -0.4414  0.1926 -1.0085
13928TIP3    H163199   6.698   4.546  12.384 -2.9844  1.1349 -3.2300
13928TIP3    H263200   6.792   4.430  12.356 -0.1390  1.6926  2.6217
13929TIP3   OH263201   0.603   2.023   5.806  0.1532  0.2586  0.0199
13929TIP3    H163202   0.536   1.957   5.786 -0.3674  0.8352 -0.1703
13929TIP3    H263203   0.651   1.986   5.880  0.7146 -0.9193 -0.8968
13930TIP3   OH263204   2.209   2.389  11.531  1.0018  0.1688 -0.6910
13930TIP3    H163205   2.300   2.416  11.518  0.9941 -0.2444 -1.6717
13930TIP3    H263206   2.160   2.471  11.535  1.2540  0.3674 -1.4850
13931TIP3   OH263207   1.999   4.277   2.671 -0.0144 -0.2290  0.5709
13931TIP3    H163208   1.988   4.369   2.648 -2.0369 -0.6582 -0.3657
13931TIP3    H263209   2.002   4.276   2.767 -0.8480  0.7331  0.6148
13932TIP3   OH263210   2.661   0.483   5.430  0.7091 -0.1595  0.2365
13932TIP3    H163211   2.748   0.444   5.427  0.8188  0.1309 -0.6966
13932TIP3    H263212   2.612   0.437   5.362  0.8625  1.3209 -0.9508
13933TIP3   OH263213   2.342   2.703   0.666  0.4224  0.0512  0.5331
13933TIP3    H163214   2.252   2.700   0.699  0.4732  0.1171  0.6797
13933TIP3    H263215   2.379   2.619   0.690  0.7553  0.4572  1.5007
13934TIP3   OH263216   4.098   6.331   4.475  0.2785 -0.4365  0.3628
13934TIP3    H163217   4.081   6.422   4.500 -0.7004  0.3376 -2.5971
13934TIP3    H263218   4.191   6.328   4.456  0.5394 -0.3914  1.5721
13935TIP3   OH263219   2.802   6.170   4.448 -0.0789  0.5115 -0.1502
13935TIP3    H163220   2.728   6.144   4.503  1.4639 -0.9615  1.3610
13935TIP3    H263221   2.819   6.093   4.394  1.5684  0.0322  0.9777
13936TIP3   OH263222   4.898   2.493   5.667 -0.2509 -0.5400 -0.1310
13936TIP3    H163223   4.838   2.563   5.640  1.4843  0.3449 -1.9621
13936TIP3    H263224   4.905   2.503   5.762 -0.6027  1.3460 -0.2621
13937TIP3   OH263225   3.158   6.289  12.418  0.1608  0.0324 -0.1182
13937TIP3    H163226   3.095   6.308  12.348 -0.8050  2.7193  1.2942
13937TIP3    H263227   3.241   6.278  12.373 -0.6638  0.2784 -1.7992
13938TIP3   OH263228   6.344   6.145   2.159  0.7219  0.3214  0.2083
13938TIP3    H163229   6.308   6.211   2.218 -0.0329  0.9420 -0.9096
13938TIP3    H263230   6.437   6.140   2.184  0.9941  2.3828 -0.1564
13939TIP3   OH263231   3.838   1.978   1.331 -0.0630 -0.2080  0.1312
13939TIP3    H163232   3.927   1.956   1.360 -0.1842 -1.0138 -0.0655
13939TIP3    H263233   3.842   2.070   1.306  0.9042 -0.4290 -0.5717
13940TIP3   OH263234   5.575   5.594   2.043  0.4399  0.3906  0.4434
13940TIP3    H163235   5.640   5.562   1.981  0.3893  0.6580  0.2530
13940TIP3    H263236   5.491   5.571   2.003  0.4128  0.2852  0.5612
13941TIP3   OH263237   6.062   5.920  14.408 -0.3819  0.3642 -0.3570
13941TIP3    H163238   6.044   5.830  14.434 -1.2046  0.7441  0.4369
13941TIP3    H263239   6.116   5.911  14.330 -1.4575 -0.8298 -1.0154
13942TIP3   OH263240   4.081   1.478   3.216  0.4607 -0.7783  0.3097
13942TIP3    H163241   4.110   1.531   3.142 -0.0240  1.3845  1.5852
13942TIP3    H263242   4.160   1.465   3.269  0.1424  0.8273  1.2345
13943TIP3   OH263243   4.016   4.873   3.374 -0.0916  0.3019  0.3413
13943TIP3    H163244   4.018   4.777   3.376 -1.3088  0.1884 -1.3976
13943TIP3    H263245   3.957   4.894   3.301 -0.2972  2.3778  1.0402
13944TIP3   OH263246   0.163   5.796  13.257 -0.4602 -0.7328  0.1772
13944TIP3    H163247   0.173   5.701  13.258  0.6728 -0.7124  3.3289
13944TIP3    H263248   0.072   5.811  13.229 -1.1388 -2.8519  1.0565
13945TIP3   OH263249   2.913   1.378   1.276 -0.7805  0.2940 -0.8769
13945TIP3    H163250   2.953   1.403   1.359 -0.3963 -2.3735 -0.1777
13945TIP3    H263251   2.819   1.392   1.289 -0.7023  0.0776 -0.0712
13946TIP3   OH263252   0.339   6.635   3.323  0.1224  0.2460  0.2213
13946TIP3    H163253   0.369   6.694   3.392  0.4601  1.1832 -0.7009
13946TIP3    H263254   0.410   6.572   3.312  0.2023  0.2861  0.5008
13947TIP3   OH263255   3.682   1.947  10.977  0.2774  0.1057 -0.0118
13947TIP3    H163256   3.723   1.979  10.897  2.8281  0.4739  1.3073
13947TIP3    H263257   3.628   2.020  11.008  0.4173  0.4877 -0.6570
13948TIP3   OH263258   1.999   1.533   4.497  0.6506  0.1788 -0.3459
13948TIP3    H163259   2.050   1.535   4.416  0.3696 -3.3043 -0.7646
13948TIP3    H263260   1.925   1.591   4.480  0.8591 -0.0704 -2.4028
13949TIP3   OH263261   4.119   1.520  15.954  0.3669  0.3739 -0.3963
13949TIP3    H163262   4.059   1.567  15.896  1.3043 -0.9251 -2.6017
13949TIP3    H263263   4.178   1.474  15.893  2.1714 -0.1667  1.6500
13950TIP3   OH263264   1.262   3.480   5.297 -0.9427  0.1519  0.4979
13950TIP3    H163265   1.344   3.457   5.253 -0.1868 -1.1940  2.4502
13950TIP3    H263266   1.196   3.424   5.255 -0.4578 -0.2856  0.3108
13951TIP3   OH263267   3.088   1.961  15.465  0.4388 -0.1644  0.1359
13951TIP3    H163268   3.045   2.041  15.436 -2.8908 -2.1226 -0.9509
13951TIP3    H263269   3.088   1.904  15.387  0.2455 -2.1064  1.4725
13952TIP3   OH263270   1.316   0.979  15.988  0.2247 -0.3371  0.6593
13952TIP3    H163271   1.312   1.038  16.064 -0.5541 -0.9033  1.0670
13952TIP3    H263272   1.225   0.958  15.969  0.4950 -4.0807  2.6535
13953TIP3   OH263273   5.649   0.867   0.432  0.0964  0.5189  0.5488
13953TIP3    H163274   5.679   0.822   0.511 -0.2665 -1.3599 -0.3113
13953TIP3    H263275   5.553   0.859   0.435  0.0146  1.3634  0.4308
13954TIP3   OH263276   1.163   5.715   2.702 -0.2812 -0.4117 -0.3676
13954TIP3    H163277   1.084   5.767   2.717 -0.2190 -0.1870 -0.7962
13954TIP3    H263278   1.156   5.685   2.612  0.2252 -0.2063 -0.4796
13955TIP3   OH263279   4.596   2.441  12.080  0.2059 -0.2205 -0.2304
13955TIP3    H163280   4.575   2.359  12.123 -3.0645  0.9468  0.6624
13955TIP3    H263281   4.544   2.441  12.000 -0.0071  1.0462 -0.1211
13956TIP3   OH263282   3.027   4.340   0.737 -1.0005  0.3292  0.2299
13956TIP3    H163283   2.932   4.325   0.733 -0.7630 -1.2538  0.1571
13956TIP3    H263284   3.049   4.328   0.829 -0.8734  0.7834  0.2611
13957TIP3   OH263285   0.255   5.929   1.763 -0.1459  0.5925  0.0332
13957TIP3    H163286   0.285   5.965   1.846 -0.4516 -0.3311  0.5620
13957TIP3    H263287   0.290   5.989   1.697  0.6417  0.9869  0.7802
13958TIP3   OH263288   4.405   2.267   6.446  0.0509 -0.0788  0.1069
13958TIP3    H163289   4.380   2.190   6.396 -1.9993  0.4894  0.1821
13958TIP3    H263290   4.407   2.238   6.537  2.2833 -0.7372 -0.0993
13959TIP3   OH263291   6.543   1.109   5.268  0.5520 -0.4129  0.3544
13959TIP3    H163292   6.511   1.084   5.181 -0.8565 -0.4112  0.8464
13959TIP3    H263293   6.514   1.199   5.280  0.6364 -0.4503  0.8710
13960TIP3   OH263294   2.151   3.700   1.567 -0.2843 -0.1482  0.1500
13960TIP3    H163295   2.133   3.729   1.657  0.0113  3.1400 -0.7405
13960TIP3    H263296   2.072   3.722   1.518  0.0383 -0.7618 -0.6660
13961TIP3   OH263297   2.543   5.963  11.529  0.1495  0.1803  0.0224
13961TIP3    H163298   2.493   5.883  11.514  1.2163 -0.5507  0.2375
13961TIP3    H263299   2.505   6.001  11.608  0.1403 -0.5246  0.3610
13962TIP3   OH263300   4.088   6.754   4.390 -0.5304  0.3472  0.5628
13962TIP3    H163301   4.068   6.832   4.442 -0.0258 -0.1761  1.5686
13962TIP3    H263302   4.063   6.681   4.446 -0.6943 -0.2272 -0.2454
13963TIP3   OH263303   4.644   2.541   2.754  0.3323  0.2489  0.3786
13963TIP3    H163304   4.650   2.614   2.692  0.5508 -0.5619 -0.5875
13963TIP3    H263305   4.712   2.558   2.819 -0.0127  1.2026  0.5165
13964TIP3   OH263306   0.517   1.164   1.390  0.5169  0.8548 -0.0977
13964TIP3    H163307   0.512   1.256   1.364  0.5862  0.7869 -0.3556
13964TIP3    H263308   0.530   1.116   1.307 -2.2916  0.3668 -0.3733
13965TIP3   OH263309   2.587   0.077   1.138 -0.0423 -0.3445 -0.4246
13965TIP3    H163310   2.654   0.058   1.203  0.4769  4.2940  0.7865
13965TIP3    H263311   2.633   0.078   1.054  1.0031  0.6852  0.1338
13966TIP3   OH263312   2.160   3.248   2.560 -0.4595 -0.2991 -0.0610
13966TIP3    H163313   2.133   3.330   2.601 -0.0298  0.4657 -1.2680
13966TIP3    H263314   2.207   3.274   2.481  2.0343 -1.6240  0.8665
13967TIP3   OH263315   3.898   0.316  12.808  0.2170  0.4223  0.6766
13967TIP3    H163316   3.883   0.347  12.718  1.3770 -0.6466  0.0829
13967TIP3    H263317   3.884   0.393  12.863  0.9420  1.4706 -0.5527
13968TIP3   OH263318   3.620   3.848   4.211 -0.0097  0.0702 -0.0594
13968TIP3    H163319   3.631   3.759   4.245  1.9637 -0.3808 -1.6650
13968TIP3    H263320   3.680   3.901   4.263 -0.6777  0.3473  0.4394
13969TIP3   OH263321   4.003   0.932   3.026  0.2588 -0.1918 -0.5365
13969TIP3    H163322   4.069   0.872   3.060 -0.0539  0.0578  0.5533
13969TIP3    H263323   4.042   1.019   3.034 -0.5052  0.0569  0.9934
13970TIP3   OH263324   4.608   6.016   1.100  0.0193 -0.2392 -0.7707
13970TIP3    H163325   4.661   6.065   1.162 -2.2313  1.3293  0.0614
13970TIP3    H263326   4.636   5.925   1.110  3.3331  0.6097 -1.3288
13971TIP3   OH263327   2.951   3.255   4.619 -0.1035  0.4074 -0.1331
13971TIP3    H163328   2.954   3.286   4.710 -1.4312 -0.8423  0.3813
13971TIP3    H263329   2.969   3.332   4.566  2.3230  0.8692  1.2022
13972TIP3   OH263330   1.631   3.394  14.727  0.3225  0.7266 -0.0937
13972TIP3    H163331   1.666   3.350  14.804 -0.4304  1.9191  0.9701
13972TIP3    H263332   1.707   3.406  14.670  0.9068 -0.1412  0.4756
13973TIP3   OH263333   3.646   5.919  11.747 -0.7019 -0.4053  0.3227
13973TIP3    H163334   3.562   5.886  11.779 -1.0342  0.4640  0.4002
13973TIP3    H263335   3.665   5.993  11.805 -0.4472  0.1082 -0.4039
13974TIP3   OH263336   2.193   4.058   3.490  0.2917 -0.1834  0.5472
13974TIP3    H163337   2.149   3.977   3.517  0.2875 -0.0910  0.8256
13974TIP3    H263338   2.236   4.090   3.570 -1.8330  1.4514  1.1365
13975TIP3   OH263339   2.877   6.433  17.092 -0.2417  0.0978 -0.5591
13975TIP3    H163340   2.824   6.511  17.108  0.4263  0.9211 -2.0661
13975TIP3    H263341   2.830   6.386  17.023  1.0871  1.0271 -2.1802
13976TIP3   OH263342   5.081   6.038   4.960  0.1925  0.2804  0.1181
13976TIP3    H163343   4.998   5.990   4.951  0.8660 -0.9318  0.1098
13976TIP3    H263344   5.146   5.980   4.920  1.4865 -0.1584  2.6482
13977TIP3   OH263345   3.695   5.254   4.473 -0.0966  0.5264 -0.2039
13977TIP3    H163346   3.679   5.214   4.387  0.4132  3.3546 -1.7320
13977TIP3    H263347   3.776   5.214   4.503 -0.3805 -0.6440 -0.9356
13978TIP3   OH263348   5.252   6.522  16.757 -0.2215 -0.7837 -0.2449
13978TIP3    H163349   5.259   6.522  16.852 -1.2350  0.3598 -0.1327
13978TIP3    H263350   5.337   6.554  16.726  0.0215 -0.9035  0.2938
13979TIP3   OH263351   1.870   3.121   6.584  0.3084 -0.5477 -0.4982
13979TIP3    H163352   1.847   3.204   6.544  0.3443 -0.8920 -1.2518
13979TIP3    H263353   1.915   3.144   6.666 -1.4045  0.1526  0.2846
13980TIP3   OH263354   5.057   1.439  15.658 -0.6495 -0.3386  0.1431
13980TIP3    H163355   5.095   1.391  15.731  1.3349 -0.8015 -1.1145
13980TIP3    H263356   5.108   1.411  15.582 -1.2267  1.7240 -1.0855
13981TIP3   OH263357   1.842   0.509  14.600  0.5405  0.3581 -0.3292
13981TIP3    H163358   1.875   0.589  14.559 -0.3107  0.2673 -1.2388
13981TIP3    H263359   1.921   0.462  14.628  1.0775  1.1512 -0.4832
13982TIP3   OH263360   4.092   5.114   2.975  0.0827  0.4422  0.3893
13982TIP3    H163361   4.066   5.026   2.948  0.1387  0.4797  0.2134
13982TIP3    H263362   4.085   5.167   2.896 -0.4076  0.7022  0.5966
13983TIP3   OH263363   0.138   3.369   2.346 -0.0689  0.1549  0.0944
13983TIP3    H163364   0.180   3.454   2.357 -1.1333  0.6034  0.8851
13983TIP3    H263365   0.189   3.309   2.400  1.3705  0.0090 -1.3354
13984TIP3   OH263366   1.094   5.631   5.406  0.3299 -0.1019 -0.2292
13984TIP3    H163367   1.118   5.559   5.347  1.0902 -0.4674  0.5014
13984TIP3    H263368   1.109   5.710   5.354 -3.3734 -0.4185 -2.1368
13985TIP3   OH263369   4.703   4.313  16.919  0.1305  0.0991 -0.4023
13985TIP3    H163370   4.743   4.268  16.993 -0.9172 -1.3932 -0.6903
13985TIP3    H263371   4.746   4.399  16.916  1.5444 -0.5328  0.7380
13986TIP3   OH263372   0.798   3.661  11.729 -0.7680 -0.8233  0.1718
13986TIP3    H163373   0.736   3.675  11.658 -0.7080 -1.3737  0.0063
13986TIP3    H263374   0.829   3.571  11.717 -0.0459 -0.6071  0.3353
13987TIP3   OH263375   1.652   5.544  15.037  0.0047  0.0592 -0.1615
13987TIP3    H163376   1.732   5.581  15.073 -0.2601  1.0071 -0.5073
13987TIP3    H263377   1.602   5.620  15.006 -0.4574 -0.6079 -1.1086
13988TIP3   OH263378   6.409   0.224  12.970  0.1782 -0.0725  0.3602
13988TIP3    H163379   6.444   0.201  13.056  0.1712  1.5269  0.8177
13988TIP3    H263380   6.454   0.166  12.909  1.4942 -0.0349  1.2516
13989TIP3   OH263381   2.342   2.774  12.739 -0.9706  0.6013  0.0238
13989TIP3    H163382   2.369   2.685  12.715 -1.6194  0.5366 -0.5063
13989TIP3    H263383   2.292   2.763  12.820 -1.9167  0.3424 -0.5783
13990TIP3   OH263384   2.014   3.171   3.593  0.8016  0.5350 -0.5592
13990TIP3    H163385   2.061   3.147   3.513  1.4144  0.9203 -0.3286
13990TIP3    H263386   2.071   3.237   3.635  0.2480  0.7078 -0.0641
13991TIP3   OH263387   3.544   6.081  11.381  0.3637  0.1764 -0.4044
13991TIP3    H163388   3.541   6.137  11.458  1.5013 -0.7758  0.3575
13991TIP3    H263389   3.489   6.006  11.402  0.4091  0.0719 -0.6479
13992TIP3   OH263390   6.487   0.628   3.369 -0.4621 -0.0828 -0.4983
13992TIP3    H163391   6.522   0.551   3.414  1.2917 -1.0330 -3.2622
13992TIP3    H263392   6.560   0.691   3.371 -1.5311  1.1916  0.8310
13993TIP3   OH263393   3.129   0.291  15.777 -0.3340  0.0016 -0.2925
13993TIP3    H163394   3.175   0.322  15.699  0.1412 -1.5828 -0.6760
13993TIP3    H263395   3.078   0.366  15.807  1.5792  1.4667 -0.5418
13994TIP3   OH263396   1.960   1.351   2.864 -0.2597  0.4027  0.1008
13994TIP3    H163397   1.914   1.432   2.889 -0.1927  0.1375  1.1397
13994TIP3    H263398   2.051   1.378   2.853 -0.4223  0.6728 -0.6512
13995TIP3   OH263399   3.111   0.774  13.619 -0.4257  0.5180  0.2359
13995TIP3    H163400   3.019   0.794  13.639  0.1345  1.5418  1.9065
13995TIP3    H263401   3.140   0.849  13.567 -1.0181 -0.7165 -2.0316
13996TIP3   OH263402   5.037   5.430   2.274  0.2922 -0.5543  0.5225
13996TIP3    H163403   5.109   5.485   2.244 -0.3221  0.8327  1.5115
13996TIP3    H263404   5.078   5.363   2.329  0.9980 -0.8443 -0.3490
13997TIP3   OH263405   2.792   4.640  14.732 -0.3405  0.5928 -0.1642
13997TIP3    H163406   2.747   4.724  14.724  0.4897  1.1319  0.6031
13997TIP3    H263407   2.840   4.631  14.650 -1.0652  0.4832 -0.5805
13998TIP3   OH263408   3.480   5.826  16.527 -0.1833 -0.0649  0.0192
13998TIP3    H163409   3.460   5.754  16.586 -0.0123  0.2435  0.4648
13998TIP3    H263410   3.503   5.899  16.586 -0.4503  0.3791 -0.4164
13999TIP3   OH263411   6.790   2.667   3.925  0.0516 -0.5840  0.4121
13999TIP3    H163412   6.832   2.581   3.935 -0.9248 -0.9969  1.2246
13999TIP3    H263413   6.701   2.653   3.956  0.0860  0.9287  1.2635
14000TIP3   OH263414   1.115   3.238  15.914  0.2679  0.4892 -0.0205
14000TIP3    H163415   1.192   3.291  15.894  1.5852  0.9335  4.8608
14000TIP3    H263416   1.140   3.188  15.992 -3.8889 -0.4805  0.9475
14001TIP3   OH263417   5.861   0.041   5.678  0.4506  0.7024 -0.2034
14001TIP3    H163418   5.841   0.029   5.585 -1.1023 -0.0975  0.1799
14001TIP3    H263419   5.843   0.133   5.695 -0.0057  0.6797 -0.5419
14002TIP3   OH263420   3.186   3.174  14.544 -0.0864 -0.4285  0.0290
14002TIP3    H163421   3.186   3.195  14.450  1.3366  0.1120  0.1264
14002TIP3    H263422   3.134   3.093  14.550  0.2062 -0.7418 -1.2878
14003TIP3   OH263423   2.247   5.374   2.391  0.0538 -0.0990 -0.3147
14003TIP3    H163424   2.177   5.438   2.379  0.9601  0.8456 -0.6769
14003TIP3    H263425   2.288   5.397   2.474  2.0417  1.4932 -1.6199
14004TIP3   OH263426   2.024   5.265  11.305  0.7749 -1.2464  0.4380
14004TIP3    H163427   1.958   5.196  11.303  0.0305 -0.5460  0.3357
14004TIP3    H263428   2.031   5.294  11.214  0.1004 -0.2847  0.6801
14005TIP3   OH263429   2.991   6.258  13.961 -0.3472 -0.3235  0.1057
14005TIP3    H163430   2.940   6.259  14.042 -0.1649  0.8594  0.2341
14005TIP3    H263431   2.968   6.340  13.918  0.6881 -0.2380 -0.3158
14006TIP3   OH263432   4.036   3.093   4.947  0.2843 -0.0676  0.3065
14006TIP3    H163433   4.122   3.101   4.906  0.3484  1.6157  0.6961
14006TIP3    H263434   3.974   3.118   4.878  0.2037  0.0382  0.4165
14007TIP3   OH263435   3.363   0.450   1.682 -0.2138  0.4300  0.1587
14007TIP3    H163436   3.368   0.487   1.595  1.0976  0.3802  0.2008
14007TIP3    H263437   3.313   0.514   1.733 -0.9556  0.4734 -0.5981
14008TIP3   OH263438   0.436   1.310  12.355 -0.2138  0.2446 -0.5065
14008TIP3    H163439   0.433   1.234  12.413  1.3616 -0.0107 -0.7252
14008TIP3    H263440   0.438   1.273  12.267  0.2829  0.5393 -0.6241
14009TIP3   OH263441   5.264   5.875  15.508  0.2085 -0.1999 -0.6935
14009TIP3    H163442   5.305   5.961  15.496  1.5896 -0.3436  2.1230
14009TIP3    H263443   5.300   5.821  15.437 -0.1980  1.3193 -2.1247
14010TIP3   OH263444   2.346   3.076   0.990  0.2416  0.0694 -0.5271
14010TIP3    H163445   2.393   3.051   1.070 -0.2803 -3.8112 -1.2495
14010TIP3    H263446   2.285   3.143   1.019  0.1972 -1.0318  2.3283
14011TIP3   OH263447   5.078   4.466  12.826  0.4544  0.1624  0.6057
14011TIP3    H163448   5.092   4.398  12.892 -0.0031 -0.1799  0.3586
14011TIP3    H263449   5.148   4.453  12.762  0.3887 -0.0560  0.5766
14012TIP3   OH263450   2.955   3.519  11.414  0.3055  0.2218 -0.4769
14012TIP3    H163451   3.006   3.501  11.493 -1.4644 -0.2469  0.6018
14012TIP3    H263452   2.925   3.609  11.425 -0.8865 -0.2114 -0.0362
14013TIP3   OH263453   0.334   3.052  17.046  0.4719  0.3121  0.1317
14013TIP3    H163454   0.313   2.959  17.036 -0.5543  0.3511  1.5822
14013TIP3    H263455   0.332   3.087  16.957  0.6440 -0.9995 -0.4126
14014TIP3   OH263456   3.417   4.797  14.315 -0.3201 -0.5606  0.3519
14014TIP3    H163457   3.501   4.841  14.312  0.5532 -2.2179 -1.9759
14014TIP3    H263458   3.366   4.838  14.245 -0.7127 -0.9826  0.3898
14015TIP3   OH263459   5.240   6.144  15.155  0.8919  0.0029  0.2341
14015TIP3    H163460   5.159   6.130  15.107  0.2237 -0.1488  1.3697
14015TIP3    H263461   5.215   6.138  15.247  2.1340  0.2803  0.6133
14016TIP3   OH263462   6.249   0.446  15.109 -0.0076 -0.0657  0.9504
14016TIP3    H163463   6.328   0.452  15.162  0.8016 -1.6518 -0.0059
14016TIP3    H263464   6.266   0.502  15.034 -0.0088  0.0150  1.0103
14017TIP3   OH263465   2.683   4.108  12.152  0.5046 -0.0573 -0.4495
14017TIP3    H163466   2.707   4.190  12.195  1.1384 -0.5343  0.1175
14017TIP3    H263467   2.628   4.063  12.215  1.7325 -0.9208  0.0237
14018TIP3   OH263468   5.914   5.686   1.926 -0.0033 -0.3249  0.2407
14018TIP3    H163469   5.927   5.773   1.963 -0.8038 -0.5732  1.1412
14018TIP3    H263470   5.955   5.627   1.989  0.2565 -0.6354 -0.2107
14019TIP3   OH263471   3.269   6.208   1.822 -0.9503 -0.6353 -0.1311
14019TIP3    H163472   3.301   6.295   1.848 -0.3025 -1.4305  1.9880
14019TIP3    H263473   3.348   6.161   1.795 -0.9830 -1.1814  0.6964
14020TIP3   OH263474   1.115   0.660   2.484  0.1683  0.4049  0.2606
14020TIP3    H163475   1.117   0.746   2.527 -1.6495  0.2389  0.7741
14020TIP3    H263476   1.022   0.642   2.471  0.3214 -2.5858  2.3860
14021TIP3   OH263477   1.824   3.433   2.292 -0.3840 -0.0347 -0.4182
14021TIP3    H163478   1.896   3.370   2.285 -0.3486 -0.0199 -0.2122
14021TIP3    H263479   1.752   3.392   2.245 -0.5558 -0.5271  0.2534
14022TIP3   OH263480   6.221   6.599   3.383  0.0875  0.0005 -0.3307
14022TIP3    H163481   6.301   6.622   3.336  0.8159  0.3776  1.0271
14022TIP3    H263482   6.248   6.533   3.447 -0.7010  0.0692  0.0949
14023TIP3   OH263483   2.399   5.978  16.348  0.1119  0.1171  0.5072
14023TIP3    H163484   2.478   5.937  16.386  0.5220 -0.1022 -0.5396
14023TIP3    H263485   2.394   6.064  16.390  1.2521  0.3660  0.1757
14024TIP3   OH263486   0.148   0.347  13.615  0.4776  0.1722 -0.3822
14024TIP3    H163487   0.053   0.349  13.622  0.4372 -0.8458 -0.5433
14024TIP3    H263488   0.177   0.428  13.658 -0.5335  1.4792 -2.0396
14025TIP3   OH263489   3.238   3.104  17.242  0.1676  0.0492  0.3656
14025TIP3    H163490   3.143   3.103  17.255  0.2292  0.8374  0.9458
14025TIP3    H263491   3.265   3.190  17.273  0.8952  0.3916 -1.1192
14026TIP3   OH263492   2.868   5.046   3.924  0.0494 -0.0682  0.1702
14026TIP3    H163493   2.839   5.098   3.850 -1.3201 -0.3826  0.4495
14026TIP3    H263494   2.950   5.005   3.895 -0.2960  0.0673 -1.0381
14027TIP3   OH263495   6.662   2.169   1.081 -0.1472  0.1955 -0.0517
14027TIP3    H163496   6.728   2.106   1.111  0.3624  0.5349 -0.4372
14027TIP3    H263497   6.622   2.202   1.162 -0.9018 -1.1104  0.1358
14028TIP3   OH263498   4.645   0.244  16.091  0.1379 -0.2959 -0.4882
14028TIP3    H163499   4.706   0.255  16.163 -2.0167  1.3344  1.2069
14028TIP3    H263500   4.657   0.322  16.037 -0.1268 -0.2030 -0.4127
14029TIP3   OH263501   3.008   3.722   0.163 -0.8264  0.3155 -0.5075
14029TIP3    H163502   3.063   3.787   0.207 -1.4016  2.1013 -2.2694
14029TIP3    H263503   2.919   3.758   0.170 -1.2849 -0.7257 -0.7865
14030TIP3   OH263504   3.587   6.435  14.983  0.1852  0.4796  0.3376
14030TIP3    H163505   3.528   6.495  14.937 -1.1684 -1.7931 -1.0956
14030TIP3    H263506   3.607   6.367  14.920  0.5075 -1.3322  2.2652
14031TIP3   OH263507   3.483   3.320  12.133 -0.0912  0.5266  0.0836
14031TIP3    H163508   3.440   3.246  12.176  0.3478  0.2514  0.0551
14031TIP3    H263509   3.530   3.281  12.059  0.0687  0.8453  0.0137
14032TIP3   OH263510   5.543   5.238   5.496  0.1636 -0.3895 -0.1049
14032TIP3    H163511   5.528   5.186   5.418 -0.3950  1.0354 -0.9787
14032TIP3    H263512   5.630   5.276   5.483 -0.5521  1.0729 -0.7851
14033TIP3   OH263513   5.941   2.079   4.266  0.4030 -0.0578 -0.7053
14033TIP3    H163514   5.867   2.035   4.308 -0.1595  1.1784 -0.3574
14033TIP3    H263515   5.923   2.073   4.172 -1.0077  1.6176 -0.5929
14034TIP3   OH263516   4.255   2.772   4.971  0.6976  0.0238 -0.2764
14034TIP3    H163517   4.273   2.678   4.975 -1.9481 -0.5971 -0.9532
14034TIP3    H263518   4.255   2.792   4.877  2.2268  0.9540 -0.1064
14035TIP3   OH263519   1.645   1.188  11.498  0.2561 -0.3507  0.4411
14035TIP3    H163520   1.567   1.220  11.453  0.9078 -0.5716 -0.8745
14035TIP3    H263521   1.635   1.221  11.588 -0.3063  1.4477 -0.2296
14036TIP3   OH263522   6.756   1.769  15.194 -0.1939 -0.3505  0.6437
14036TIP3    H163523   6.766   1.806  15.282 -2.8459 -0.9728  1.3103
14036TIP3    H263524   6.662   1.778  15.175  0.2881 -0.2791 -2.1272
14037TIP3   OH263525   5.381   1.464  10.846 -0.7485 -0.2453 -0.5138
14037TIP3    H163526   5.332   1.445  10.926  1.0862 -4.4019 -0.0859
14037TIP3    H263527   5.470   1.480  10.876 -0.4622  0.2703 -1.6088
14038TIP3   OH263528   5.852   4.063  15.804  0.2216 -0.2254  0.0241
14038TIP3    H163529   5.811   3.982  15.775  1.1961 -0.7184  0.0012
14038TIP3    H263530   5.934   4.036  15.844  0.1511  0.6776  0.8196
14039TIP3   OH263531   4.205   4.303   3.605 -0.4052 -0.4989 -0.5773
14039TIP3    H163532   4.196   4.346   3.689 -0.2188 -1.4111 -0.0762
14039TIP3    H263533   4.291   4.330   3.573 -1.3562  1.6192 -1.5360
14040TIP3   OH263534   0.924   2.469  15.506  0.1235 -0.0382  0.1106
14040TIP3    H163535   0.973   2.495  15.428 -0.5608 -0.2838 -0.4138
14040TIP3    H263536   0.968   2.390  15.538  0.7874  0.4171  0.3472
14041TIP3   OH263537   5.427   1.116   3.477 -0.5284 -0.6838 -0.5946
14041TIP3    H163538   5.428   1.071   3.561 -1.8984 -0.9715 -0.7077
14041TIP3    H263539   5.398   1.049   3.414  1.3752 -0.7434 -1.4879
14042TIP3   OH263540   0.395   2.999   3.929  0.1490  0.0391 -0.3265
14042TIP3    H163541   0.380   3.035   4.016  0.5395  0.1801 -0.3157
14042TIP3    H263542   0.422   2.908   3.944 -2.8560 -0.9852 -0.4262
14043TIP3   OH263543   0.670   0.689  15.646  0.0649 -0.1295  0.4352
14043TIP3    H163544   0.746   0.728  15.602 -0.1174  2.1707  2.0007
14043TIP3    H263545   0.595   0.728  15.601 -0.2465 -2.0765 -0.8274
14044TIP3   OH263546   3.159   5.086  12.794 -0.1664  0.2695  0.3559
14044TIP3    H163547   3.098   5.024  12.754 -1.2884  0.4969  1.6405
14044TIP3    H263548   3.145   5.168  12.746 -2.0896  0.7631  1.6378
14045TIP3   OH263549   5.612   0.035   2.445 -0.7186 -0.0593  0.1478
14045TIP3    H163550   5.563  -0.047   2.435  1.1397 -1.2168  0.1073
14045TIP3    H263551   5.618   0.070   2.356 -1.3122  0.0383  0.1357
14046TIP3   OH263552   0.502   3.537   5.549 -0.0417  0.2241 -0.0679
14046TIP3    H163553   0.482   3.631   5.554 -1.1629  0.0282 -0.4942
14046TIP3    H263554   0.511   3.510   5.641  2.0626  1.0686  0.0291
14047TIP3   OH263555   2.310   0.835  11.922 -0.9088  0.1504  0.5499
14047TIP3    H163556   2.382   0.869  11.975 -0.4041  1.1152 -0.7010
14047TIP3    H263557   2.352   0.771  11.864 -1.3029 -0.2780  0.7353
14048TIP3   OH263558   1.780   1.587   0.824  0.0409  0.0008 -0.9690
14048TIP3    H163559   1.703   1.563   0.876 -0.1371  1.1952 -0.6515
14048TIP3    H263560   1.841   1.514   0.837  0.7913  1.0236  2.5101
14049TIP3   OH263561   0.745   2.330   2.283  0.0112 -0.3815  0.1070
14049TIP3    H163562   0.788   2.376   2.211  0.5862 -0.4936  0.3741
14049TIP3    H263563   0.676   2.278   2.241 -0.4839  0.5285 -0.2210
14050TIP3   OH263564   2.639   4.789   2.266 -0.6508  0.2774 -0.4586
14050TIP3    H163565   2.654   4.880   2.291 -0.0656  0.3275 -0.9771
14050TIP3    H263566   2.635   4.791   2.170 -0.5804 -0.2460 -0.4738
14051TIP3   OH263567   5.653   4.076  16.772  0.2377 -1.0062 -0.4035
14051TIP3    H163568   5.676   4.168  16.764  0.1692 -0.7697  1.5412
14051TIP3    H263569   5.564   4.077  16.810  0.9271 -1.8068  1.3475
14052TIP3   OH263570   3.191   1.308   4.006 -0.1406  0.8006  0.2095
14052TIP3    H163571   3.234   1.223   4.016 -1.2590  0.2784  0.7226
14052TIP3    H263572   3.245   1.368   4.058  1.8250  0.8774 -1.7681
14053TIP3   OH263573   4.560   5.896   0.758 -0.0917  0.0040  0.4827
14053TIP3    H163574   4.518   5.959   0.817  0.7241  0.9693  0.0679
14053TIP3    H263575   4.498   5.885   0.686 -1.3925 -1.6916  1.7958
14054TIP3   OH263576   1.311   0.264   4.066  0.0987 -0.6337 -0.2284
14054TIP3    H163577   1.348   0.208   3.997 -2.1778 -1.6818 -0.7022
14054TIP3    H263578   1.285   0.202   4.134 -1.5641 -0.0679 -0.3202
14055TIP3   OH263579   3.411   0.651   0.073 -0.1307 -0.0122 -0.5330
14055TIP3    H163580   3.395   0.672   0.165  1.9241  0.9651 -0.3279
14055TIP3    H263581   3.406   0.556   0.069 -0.4310 -0.0606  0.5631
14056TIP3   OH263582   5.670   1.047  16.095  0.2725 -0.2031 -0.3355
14056TIP3    H163583   5.576   1.036  16.079  0.0639  2.9900 -2.0918
14056TIP3    H263584   5.712   0.997  16.026 -0.3063  1.4124 -1.9267
14057TIP3   OH263585   3.364   0.145   1.163 -0.1932  0.2811  0.2176
14057TIP3    H163586   3.284   0.193   1.186  0.5245  1.0951  1.1122
14057TIP3    H263587   3.377   0.164   1.070 -2.1548 -1.5732 -0.5402
14058TIP3   OH263588   4.007   3.387   5.538 -0.3282 -0.1295  0.4489
14058TIP3    H163589   4.054   3.445   5.478 -0.1552 -0.1530  0.5594
14058TIP3    H263590   3.915   3.400   5.517 -0.4157  1.5122  1.6340
14059TIP3   OH263591   1.503   4.994   0.574 -1.1136  0.4806  0.8516
14059TIP3    H163592   1.592   4.987   0.538 -1.5078 -3.0339  0.1441
14059TIP3    H263593   1.514   5.038   0.658  1.2226  0.6241  0.5285
14060TIP3   OH263594   1.136   2.974  13.021  0.6155  0.4177 -0.2005
14060TIP3    H163595   1.157   2.949  12.931  0.4510  0.1342 -0.1603
14060TIP3    H263596   1.212   2.948  13.072  0.2328 -0.5018 -0.0735
14061TIP3   OH263597   3.104   5.548   4.190  0.0803 -0.0357  0.1352
14061TIP3    H163598   3.092   5.456   4.170  0.4412 -0.0787  0.1202
14061TIP3    H263599   3.171   5.578   4.128  0.5355  0.0468  0.6612
14062TIP3   OH263600   0.434   4.109  15.024  0.1904  0.5256 -0.4293
14062TIP3    H163601   0.423   4.109  14.929  1.4079 -1.5691 -0.6328
14062TIP3    H263602   0.524   4.137  15.037 -0.0051  0.9032  0.1351
14063TIP3   OH263603   1.113   0.964   4.953  0.4592  0.2080  0.1885
14063TIP3    H163604   1.138   0.977   4.862  1.3859  0.3100  0.4507
14063TIP3    H263605   1.075   0.876   4.955  1.0637 -0.0639 -0.1629
14064TIP3   OH263606   4.145   6.687  10.784  0.2970 -0.1163  0.9590
14064TIP3    H163607   4.167   6.624  10.715 -0.3234 -1.5303  1.9861
14064TIP3    H263608   4.051   6.703  10.772  0.7733  2.0332 -0.3661
14065TIP3   OH263609   5.826   6.366  13.582 -0.1504  0.6009  0.2489
14065TIP3    H163610   5.760   6.427  13.615 -2.6534 -2.1004  0.6024
14065TIP3    H263611   5.779   6.314  13.517  2.4306  0.2809 -1.4925
14066TIP3   OH263612   5.394   1.317   2.105 -0.1828  0.1638 -0.3277
14066TIP3    H163613   5.416   1.399   2.150  0.9150 -1.0948  1.5963
14066TIP3    H263614   5.455   1.313   2.031 -1.9743  2.2489 -2.0619
14067TIP3   OH263615   5.107   2.243  17.027  0.6151  0.1591  0.1396
14067TIP3    H163616   5.047   2.310  17.060  1.0850  0.0511  1.2618
14067TIP3    H263617   5.097   2.247  16.932 -1.6148 -0.2738  0.2932
14068TIP3   OH263618   3.836   4.829  11.885 -0.0671  0.1829 -0.2732
14068TIP3    H163619   3.809   4.920  11.896 -2.0249 -0.2894 -0.7717
14068TIP3    H263620   3.876   4.805  11.969  1.0723  1.6522 -0.3519
14069TIP3   OH263621   1.635   4.222   5.888 -0.1960 -0.0213 -0.0150
14069TIP3    H163622   1.595   4.169   5.958  0.8685 -1.8394 -0.7135
14069TIP3    H263623   1.675   4.295   5.934  2.3182 -2.2472  1.6573
14070TIP3   OH263624   2.025   5.231  15.644  0.6338  0.1593  0.2721
14070TIP3    H163625   2.020   5.231  15.740 -0.0032 -1.4668  0.2752
14070TIP3    H263626   1.965   5.161  15.617  1.2751  0.1685 -1.2885
14071TIP3   OH263627   5.974   0.856   4.700 -0.2269  0.0516 -0.2144
14071TIP3    H163628   5.926   0.776   4.721  3.3534 -2.5927 -1.1806
14071TIP3    H263629   5.987   0.852   4.605  0.7534  1.3270 -0.1555
14072TIP3   OH263630   1.195   5.239  15.976 -0.2143  0.0616 -0.2162
14072TIP3    H163631   1.225   5.313  16.028 -0.8948 -0.8649  1.5995
14072TIP3    H263632   1.242   5.246  15.893  0.4220  1.9770  0.2718
14073TIP3   OH263633   1.965   2.408   5.080  0.2653  0.4471 -0.0591
14073TIP3    H163634   1.872   2.414   5.057  0.5445  0.5390 -1.2105
14073TIP3    H263635   1.997   2.334   5.030  0.2033 -1.4931  2.5565
14074TIP3   OH263636   4.207   2.600  13.492 -0.2640 -0.0287 -0.5637
14074TIP3    H163637   4.265   2.553  13.432  0.1882 -0.4015  0.1564
14074TIP3    H263638   4.123   2.554  13.485  0.5608 -1.9189  1.2290
14075TIP3   OH263639   5.316   0.031   3.834  0.4192 -0.3448  0.1407
14075TIP3    H163640   5.301   0.097   3.901  3.0351  0.7151 -0.1785
14075TIP3    H263641   5.268   0.064   3.757 -0.9379 -0.5397  0.8739
14076TIP3   OH263642   2.926   2.915  10.810  0.5109 -0.7478 -0.5442
14076TIP3    H163643   2.834   2.919  10.784  1.0105 -1.3711 -2.5646
14076TIP3    H263644   2.926   2.944  10.901 -1.4371  1.2406 -1.0748
14077TIP3   OH263645   3.286   5.069   0.561 -0.1702  1.2280  0.5179
14077TIP3    H163646   3.242   5.081   0.476 -1.0977 -1.9807  0.4181
14077TIP3    H263647   3.221   5.028   0.616  1.8499 -1.2880  1.2104
14078TIP3   OH263648   5.830   4.395  10.757 -0.4117  0.5043  0.0860
14078TIP3    H163649   5.829   4.320  10.817  0.8412  0.2719 -0.1396
14078TIP3    H263650   5.738   4.415  10.741 -0.7702  0.2627  1.6986
14079TIP3   OH263651   3.108   5.876  15.901 -0.0714  1.0016 -0.7786
14079TIP3    H163652   3.042   5.924  15.952  1.0999  0.2571  1.5917
14079TIP3    H263653   3.080   5.784  15.908  2.2467  0.3707  2.1821
14080TIP3   OH263654   4.593   6.523  16.924  0.0169  0.3468 -0.1376
14080TIP3    H163655   4.616   6.450  16.981 -0.7598 -1.4341 -2.0151
14080TIP3    H263656   4.662   6.588  16.940  1.5060 -1.3406  0.6175
14081TIP3   OH263657   4.002   5.913  10.809 -0.2992 -0.5840 -0.3031
14081TIP3    H163658   4.079   5.970  10.816 -0.7719  0.2908 -1.8427
14081TIP3    H263659   3.929   5.967  10.838 -0.5535 -0.8907 -0.3663
14082TIP3   OH263660   2.436   3.369  17.130 -0.4984 -0.1752  0.5685
14082TIP3    H163661   2.489   3.294  17.155  1.8145  1.0420 -0.3373
14082TIP3    H263662   2.483   3.445  17.167 -1.7223  0.9431 -0.0927
14083TIP3   OH263663   1.473   0.089  15.297  0.3786  0.0457 -0.3266
14083TIP3    H163664   1.495   0.018  15.356 -0.2310  1.6433  1.9376
14083TIP3    H263665   1.558   0.130  15.277  0.7166 -1.1659 -1.5504
14084TIP3   OH263666   2.215   5.385   3.456 -0.4691  0.4063 -0.0600
14084TIP3    H163667   2.250   5.396   3.367 -0.3088 -1.2604 -0.2317
14084TIP3    H263668   2.174   5.469   3.475  1.2974  1.5388 -0.8912
14085TIP3   OH263669   6.303   0.081  11.838 -0.3154 -0.2862 -0.0177
14085TIP3    H163670   6.234   0.108  11.900  0.3354  0.0783  0.5624
14085TIP3    H263671   6.378   0.061  11.893  0.8844  1.8550 -0.7601
14086TIP3   OH263672   4.016   5.517  12.826 -0.5520  0.1375  0.0450
14086TIP3    H163673   4.034   5.576  12.753 -0.4792 -0.1320 -0.1562
14086TIP3    H263674   4.082   5.449  12.818 -0.3549  0.2655  0.5412
14087TIP3   OH263675   2.713   1.087  15.680  0.7236 -0.0456 -0.4966
14087TIP3    H163676   2.787   1.078  15.740  0.2647  0.5403  0.1779
14087TIP3    H263677   2.703   1.181  15.669 -1.3402  0.0175  1.2571
14088TIP3   OH263678   6.162   6.250   2.991 -0.1639  0.6692 -1.2476
14088TIP3    H163679   6.244   6.209   2.964  0.1010  0.7670 -0.6027
14088TIP3    H263680   6.188   6.337   3.023 -0.2124 -0.1074  1.0413
14089TIP3   OH263681   2.934   2.144   4.365 -0.4441 -0.2648  0.3193
14089TIP3    H163682   2.999   2.162   4.434  0.8157 -0.3960 -0.7980
14089TIP3    H263683   2.923   2.049   4.367  0.1149 -0.3441 -0.1020
14090TIP3   OH263684   0.392   3.191   5.210  0.1895  0.5640  0.5606
14090TIP3    H163685   0.312   3.145   5.236 -1.6038  3.9173  1.5716
14090TIP3    H263686   0.429   3.224   5.293  1.8992  0.2313 -0.0265
14091TIP3   OH263687   1.301   5.720   4.898 -0.3403  0.0061  0.3665
14091TIP3    H163688   1.394   5.722   4.878 -0.1628 -1.0196  1.0032
14091TIP3    H263689   1.296   5.689   4.988 -1.3775 -2.7519 -0.5407
14092TIP3   OH263690   4.151   5.805   0.015  0.0975  0.3205  0.4535
14092TIP3    H163691   4.215   5.875   0.021  1.2167 -0.6141 -0.1776
14092TIP3    H263692   4.190   5.741  -0.045 -0.1365 -1.5930  2.2141
14093TIP3   OH263693   0.920   6.301  16.462 -0.1726 -0.2353  0.3766
14093TIP3    H163694   0.863   6.341  16.528  1.2666 -1.6331  2.5808
14093TIP3    H263695   0.928   6.210  16.489  0.9168 -0.7198 -1.4361
14094TIP3   OH263696   0.627   2.187  11.551  0.6697 -0.1445  0.3019
14094TIP3    H163697   0.652   2.253  11.617  0.1260  0.3627  0.0110
14094TIP3    H263698   0.645   2.103  11.593  1.9748  0.1867  0.4452
14095TIP3   OH263699   2.972   6.141   5.180  0.5117  0.1446 -0.6257
14095TIP3    H163700   3.037   6.211   5.193  1.2485 -0.6620  0.1912
14095TIP3    H263701   3.016   6.062   5.211 -0.2552 -0.7217 -1.6570
14096TIP3   OH263702   5.911   5.257   2.234 -0.2974 -0.6981 -0.5889
14096TIP3    H163703   5.924   5.239   2.327 -1.3558  0.2904 -0.2157
14096TIP3    H263704   5.835   5.315   2.231  0.4991  0.3676 -1.9690
14097TIP3   OH263705   1.650   1.139  13.934  0.4009  0.2592  0.0987
14097TIP3    H163706   1.648   1.068  13.999 -0.1336  0.1477 -0.0405
14097TIP3    H263707   1.573   1.124  13.880  0.7722  0.4354 -0.4803
14098TIP3   OH263708   4.947   2.260   4.107 -0.4054  0.0482 -0.4427
14098TIP3    H163709   4.988   2.237   4.024 -0.4042 -0.9401 -0.1818
14098TIP3    H263710   4.866   2.209   4.109  0.1487 -0.8493  0.6559
14099TIP3   OH263711   3.004   0.186   3.012  0.3370 -0.4134  0.7592
14099TIP3    H163712   2.934   0.223   2.959  1.2129  0.0411 -0.1163
14099TIP3    H263713   2.990   0.222   3.100 -0.7591 -0.6716  0.7009
14100TIP3   OH263714   4.669   1.391   0.521  0.0272 -0.1370 -0.2109
14100TIP3    H163715   4.587   1.432   0.546 -1.1514 -1.9964 -0.7958
14100TIP3    H263716   4.736   1.440   0.568 -1.4269  1.2592  0.4974
14101TIP3   OH263717   5.537   0.033  13.721  0.1907 -0.0535 -0.0953
14101TIP3    H163718   5.554   0.011  13.813  1.6306  0.5830 -0.1783
14101TIP3    H263719   5.456   0.085  13.724 -1.1170 -2.0259  0.5042
14102TIP3   OH263720   5.691   0.500   1.686 -0.3112 -0.0573  0.8242
14102TIP3    H163721   5.616   0.456   1.724 -0.0703 -1.3968 -0.1960
14102TIP3    H263722   5.660   0.534   1.602 -0.2829  1.0849  1.2553
14103TIP3   OH263723   5.195   1.458  11.030  0.4819  0.4101 -0.1821
14103TIP3    H163724   5.229   1.480  11.117  0.0066  3.3576 -0.6327
14103TIP3    H263725   5.102   1.480  11.034  0.7389  2.0531 -1.7900
14104TIP3   OH263726   3.729   6.646   5.044 -0.4052  0.4627  0.2644
14104TIP3    H163727   3.711   6.623   4.952 -1.0539 -0.0093  0.5066
14104TIP3    H263728   3.699   6.570   5.094  0.3056  0.5621  0.8423
14105TIP3   OH263729   6.057   2.299  15.724  0.9085  0.0926  0.3845
14105TIP3    H163730   6.111   2.378  15.714  0.4562  0.3975  0.3563
14105TIP3    H263731   5.983   2.327  15.777  0.9018 -0.3891  0.6278
14106TIP3   OH263732   3.438   0.408   5.990  0.0516  0.0609 -0.2054
14106TIP3    H163733   3.410   0.318   5.973 -1.6767  0.2187  1.4343
14106TIP3    H263734   3.519   0.400   6.039 -0.3813 -0.6366  0.4127
14107TIP3   OH263735   3.111   3.280  13.591  0.1368  0.0645 -0.1951
14107TIP3    H163736   3.173   3.330  13.538 -0.5864 -1.0422 -2.1894
14107TIP3    H263737   3.149   3.281  13.679  0.4148  3.6356 -0.2073
14108TIP3   OH263738   4.941   2.408  14.775  0.2009  0.0923 -0.9518
14108TIP3    H163739   4.917   2.341  14.839 -0.7204 -0.1796 -1.5620
14108TIP3    H263740   4.928   2.366  14.690  1.8028  0.3146 -1.3413
14109TIP3   OH263741   1.442   4.880   1.093  0.4634  0.0847  0.7827
14109TIP3    H163742   1.383   4.846   1.026 -0.7001 -0.7736  2.1936
14109TIP3    H263743   1.510   4.813   1.102 -0.0968 -0.4091  1.3620
14110TIP3   OH263744   4.115   2.406   5.937 -0.2511  0.8979 -0.5657
14110TIP3    H163745   4.101   2.446   5.851  1.3683  1.8887 -0.4284
14110TIP3    H263746   4.088   2.473   5.999  0.5891  1.0356 -0.3311
14111TIP3   OH263747   6.584   3.478   1.598  0.4269  0.0277 -0.2776
14111TIP3    H163748   6.574   3.532   1.520  0.9144 -0.1573 -0.4755
14111TIP3    H263749   6.566   3.389   1.567  1.8396 -0.2093 -0.4697
14112TIP3   OH263750   5.437   1.763   3.488 -0.1613  0.0913  0.2798
14112TIP3    H163751   5.502   1.827   3.519 -0.2850 -0.1322  1.0135
14112TIP3    H263752   5.369   1.817   3.448 -0.1502  0.4108  0.6778
14113TIP3   OH263753   4.565   1.744  13.382  0.3741 -0.2777 -1.0264
14113TIP3    H163754   4.632   1.738  13.450 -0.4413 -1.9000 -0.3019
14113TIP3    H263755   4.602   1.805  13.318  3.0703 -1.9109 -1.2251
14114TIP3   OH263756   2.917   3.279  15.427  0.0129 -0.1615  0.6159
14114TIP3    H163757   2.850   3.326  15.477 -0.3176  1.1571 -0.9873
14114TIP3    H263758   2.883   3.277  15.338  1.1290 -1.3977  0.1933
14115TIP3   OH263759   4.437   4.461  12.510 -0.2006  0.4012  0.4384
14115TIP3    H163760   4.517   4.420  12.475 -1.6999 -0.9290 -1.6696
14115TIP3    H263761   4.450   4.555  12.494  0.7645  0.1677 -0.2642
14116TIP3   OH263762   6.685   1.283  16.402 -0.0774 -0.1770  0.2452
14116TIP3    H163763   6.776   1.254  16.392  0.0515  0.2471  0.1717
14116TIP3    H263764   6.673   1.292  16.496  0.7304  2.1531  0.1875
14117TIP3   OH263765   5.346   3.395  11.637  0.0138  0.2333  0.5688
14117TIP3    H163766   5.399   3.474  11.627 -0.6343  0.5972 -0.0788
14117TIP3    H263767   5.399   3.326  11.596  0.8266  0.2090  1.6297
14118TIP3   OH263768   0.096   2.165  12.031  0.0347  0.2562  0.7828
14118TIP3    H163769   0.119   2.075  12.051 -0.5533  0.3420  1.9131
14118TIP3    H263770   0.035   2.159  11.957  1.1960 -0.1597 -0.1616
14119TIP3   OH263771   0.954   2.144  14.814 -0.0724 -0.5179  0.1565
14119TIP3    H163772   1.010   2.109  14.884  0.5486 -0.7788 -0.4574
14119TIP3    H263773   0.899   2.070  14.788  1.1267 -1.0379 -1.0279
14120TIP3   OH263774   4.730   5.901  16.527 -0.2257  0.5798 -0.1823
14120TIP3    H163775   4.723   5.987  16.568 -0.5985  1.5312 -2.1049
14120TIP3    H263776   4.644   5.887  16.485 -0.3368 -0.9538  0.4648
14121TIP3   OH263777   0.744   5.644   2.880  0.2079 -0.1559 -0.0781
14121TIP3    H163778   0.750   5.564   2.829 -0.8406 -0.3637  0.1073
14121TIP3    H263779   0.777   5.712   2.822  0.6409 -0.6409 -0.4096
14122TIP3   OH263780   6.089   0.008  15.351 -0.2268 -0.9488 -0.4219
14122TIP3    H163781   6.098   0.074  15.283 -2.7377 -0.5906 -0.4984
14122TIP3    H263782   6.060  -0.071  15.305 -0.1817 -1.2333  0.0294
14123TIP3   OH263783   6.732   4.720   5.709 -0.0990 -0.0446 -0.1797
14123TIP3    H163784   6.784   4.697   5.786 -1.1950 -1.8501  0.0622
14123TIP3    H263785   6.669   4.785   5.741  1.1280  1.2047 -0.1950
14124TIP3   OH263786   5.889   2.360   3.949  0.2620  0.0955 -0.1575
14124TIP3    H163787   5.867   2.352   3.856  1.1018 -2.0423 -0.2302
14124TIP3    H263788   5.863   2.276   3.987  0.1049  0.8658  1.5146
14125TIP3   OH263789   1.089   0.886  11.567 -0.2328 -0.2808 -0.0578
14125TIP3    H163790   1.069   0.975  11.594  0.3533 -0.9022  2.7773
14125TIP3    H263791   1.016   0.860  11.511 -0.9652  1.5855 -0.0178
14126TIP3   OH263792   3.813   0.992  17.240 -0.3644  0.2213  0.4949
14126TIP3    H163793   3.790   1.070  17.190 -0.2183  0.5409  0.9191
14126TIP3    H263794   3.732   0.941  17.245 -1.2452  1.7076  2.6681
14127TIP3   OH263795   2.849   1.046   1.949 -0.0735  0.0903  0.0674
14127TIP3    H163796   2.814   0.968   1.907  0.5501 -0.2083  0.0971
14127TIP3    H263797   2.837   1.115   1.884 -0.6338 -0.0250  0.0446
14128TIP3   OH263798   3.742   1.303  12.830 -0.5884  0.4289 -0.2916
14128TIP3    H163799   3.678   1.275  12.897  0.2676 -1.9885 -0.3738
14128TIP3    H263800   3.764   1.393  12.854 -1.2453  0.0597  1.9557
14129TIP3   OH263801   2.036   0.754   0.087  0.0465 -0.6783  0.0071
14129TIP3    H163802   1.997   0.833   0.125  1.0138  0.2253 -0.8256
14129TIP3    H263803   2.014   0.685   0.149 -0.5861  0.2965  0.9056
14130TIP3   OH263804   2.880   1.458   3.859  0.1836 -0.5648  0.3938
14130TIP3    H163805   2.903   1.510   3.936  0.3908 -0.1397  0.0514
14130TIP3    H263806   2.816   1.511   3.812 -0.6624 -1.2472  0.7573
14131TIP3   OH263807   2.402   2.715   4.089  0.3191  0.3246 -0.3542
14131TIP3    H163808   2.334   2.658   4.125 -0.1148  1.4361  0.6840
14131TIP3    H263809   2.436   2.668   4.013 -0.8975 -0.7206 -0.2827
14132TIP3   OH263810   4.751   2.503  13.010 -0.1094  0.0041 -0.3366
14132TIP3    H163811   4.672   2.554  13.026 -0.0728 -0.5050  1.9586
14132TIP3    H263812   4.750   2.484  12.917 -2.3668  0.5445 -0.4722
14133TIP3   OH263813   3.906   0.117   1.769 -0.7164  0.2882  0.2045
14133TIP3    H163814   3.912   0.133   1.674 -0.1738  0.5111  0.2755
14133TIP3    H263815   3.901   0.022   1.776  0.9475  0.1624  0.0266
14134TIP3   OH263816   4.934   5.790  16.925 -0.0142 -0.6322 -0.0404
14134TIP3    H163817   5.016   5.800  16.973  0.0071 -1.4763  0.1062
14134TIP3    H263818   4.905   5.880  16.909 -0.2618 -0.2948  1.9856
14135TIP3   OH263819   1.961   0.942  13.060 -0.2668  0.3209 -0.2544
14135TIP3    H163820   1.922   0.997  12.993 -1.9989 -1.7959 -1.1325
14135TIP3    H263821   2.055   0.947  13.045 -0.4879  1.6736 -1.3457
14136TIP3   OH263822   3.618   0.099  12.377  0.0567  0.0559 -0.3805
14136TIP3    H163823   3.562   0.122  12.302  0.5872  0.3463 -0.6906
14136TIP3    H263824   3.580   0.146  12.451 -0.3082 -0.0132 -0.5232
14137TIP3   OH263825   0.398   1.347   4.296 -0.6162 -0.2482 -0.0279
14137TIP3    H163826   0.386   1.255   4.318  1.1201 -0.3791  0.5606
14137TIP3    H263827   0.372   1.354   4.204  0.1423 -1.5415 -0.3620
14138TIP3   OH263828   5.513   3.095   0.332  0.0321  0.9006  0.1883
14138TIP3    H163829   5.425   3.060   0.323  0.0644  0.8693 -0.0311
14138TIP3    H263830   5.544   3.105   0.241  0.2271  0.9753  0.2617
14139TIP3   OH263831   1.891   6.482  14.297  0.6307  0.1407 -0.3106
14139TIP3    H163832   1.801   6.510  14.281  0.1402 -1.1134  0.1224
14139TIP3    H263833   1.886   6.387  14.305  2.1488 -0.0480 -1.2206
14140TIP3   OH263834   0.928   3.795  12.955  0.1420  0.4191 -0.1678
14140TIP3    H163835   0.945   3.727  13.020  1.0248  0.7737 -0.0171
14140TIP3    H263836   0.993   3.780  12.887 -0.0406  0.7525 -0.4190
14141TIP3   OH263837   0.558   4.401   4.879 -0.4742  0.1512 -0.5215
14141TIP3    H163838   0.646   4.438   4.880  0.5381 -2.0726  1.1152
14141TIP3    H263839   0.539   4.387   4.786  1.4663 -0.5288 -0.8530
14142TIP3   OH263840   0.305   0.141  13.087 -0.3009  0.1236  0.0922
14142TIP3    H163841   0.300   0.126  12.992 -0.3099  2.0824 -0.2488
14142TIP3    H263842   0.351   0.224  13.096 -1.5849  0.7062  1.7403
14143TIP3   OH263843   5.273   5.867   4.092  0.3507  0.1055 -0.2622
14143TIP3    H163844   5.231   5.883   4.176 -1.3309  2.4695 -1.4235
14143TIP3    H263845   5.215   5.806   4.047 -0.8385  1.7346 -1.0539
14144TIP3   OH263846   0.862   2.352  11.751 -1.0858  0.1624 -0.0137
14144TIP3    H163847   0.913   2.311  11.681 -0.4120  0.6648  0.1779
14144TIP3    H263848   0.862   2.287  11.822  0.9936  0.9228  0.7497
14145TIP3   OH263849   0.579   1.427  15.086  0.5981  0.3671  0.4027
14145TIP3    H163850   0.500   1.475  15.110 -0.5633 -1.1855 -0.2047
14145TIP3    H263851   0.585   1.435  14.991  1.4283  0.8436  0.4871
14146TIP3   OH263852   1.567   3.184  11.837  0.3111  0.6111 -0.4381
14146TIP3    H163853   1.502   3.192  11.907 -0.2140 -0.1926 -0.8346
14146TIP3    H263854   1.546   3.256  11.777 -0.8769 -0.2655 -1.1003
14147TIP3   OH263855   0.523   3.773  11.559  0.4338  0.1903  0.0919
14147TIP3    H163856   0.448   3.738  11.511  0.5762  0.4795 -0.3495
14147TIP3    H263857   0.588   3.792  11.491  0.4882  0.9928  0.3572
14148TIP3   OH263858   3.607   1.983   3.545 -0.5813 -0.4713 -0.1543
14148TIP3    H163859   3.541   2.052   3.541 -1.8617 -1.5170  1.4517
14148TIP3    H263860   3.670   2.014   3.610  0.4739  0.4636 -1.5833
14149TIP3   OH263861   4.315   1.567   0.897 -0.4972  0.2517 -0.2619
14149TIP3    H163862   4.228   1.598   0.924 -0.5711 -0.7588  0.7318
14149TIP3    H263863   4.374   1.600   0.965 -0.5603 -1.5704  0.7511
14150TIP3   OH263864   3.227   4.537  15.725 -0.3849  0.0675 -0.7429
14150TIP3    H163865   3.316   4.536  15.689 -0.1313 -1.4720 -0.1640
14150TIP3    H263866   3.188   4.454  15.697 -1.5539  0.5986 -0.7548
14151TIP3   OH263867   3.767   3.949  14.667  0.3124  0.4526 -0.1401
14151TIP3    H163868   3.794   4.022  14.723 -2.4702  1.9366 -0.5464
14151TIP3    H263869   3.747   3.878  14.728 -1.1979  1.5380  0.6942
14152TIP3   OH263870   5.770   0.529   2.084  0.4087  0.4257 -0.2484
14152TIP3    H163871   5.757   0.623   2.096  0.9027  0.5226 -0.4258
14152TIP3    H263872   5.816   0.500   2.162 -1.0516  0.0336  0.5035
14153TIP3   OH263873   5.393   1.132  11.907 -0.6281 -0.5268  0.6886
14153TIP3    H163874   5.423   1.108  11.994 -0.8610 -0.8137  0.6958
14153TIP3    H263875   5.363   1.222  11.915  1.6011  0.2926  0.3229
14154TIP3   OH263876   3.533   3.212  16.687  0.4403 -0.8892  0.7908
14154TIP3    H163877   3.437   3.214  16.682  0.4875 -1.5471 -0.7867
14154TIP3    H263878   3.560   3.296  16.649  0.5213 -1.6019 -0.7975
14155TIP3   OH263879   3.938   2.054   2.601 -0.1665 -0.3618  0.4573
14155TIP3    H163880   3.984   1.992   2.657 -3.4920 -1.1455  2.5336
14155TIP3    H263881   3.962   2.027   2.512  1.4002 -2.1967  1.3536
14156TIP3   OH263882   0.158   0.458  12.381  0.3111  0.0037  0.1192
14156TIP3    H163883   0.133   0.551  12.373  1.5944  0.4107  0.6609
14156TIP3    H263884   0.078   0.411  12.357 -0.3430  1.2414 -0.2735
14157TIP3   OH263885   4.059   1.300   2.742  0.2435  0.1354 -0.3444
14157TIP3    H163886   3.973   1.302   2.701  0.6395  0.5932 -1.2081
14157TIP3    H263887   4.089   1.210   2.730  0.1437  0.1369 -0.6184
14158TIP3   OH263888   3.977   6.071  13.915 -0.2292 -0.0023  0.1746
14158TIP3    H163889   3.961   6.012  13.841 -2.7139  0.2834  0.3741
14158TIP3    H263890   4.011   6.151  13.875  2.0998 -1.1141 -0.2095
14159TIP3   OH263891   0.325   5.257  11.208 -0.0001  0.1092  0.3786
14159TIP3    H163892   0.417   5.230  11.204  0.2039  0.8969 -0.6226
14159TIP3    H263893   0.297   5.233  11.296  1.1794 -0.1056  0.7104
14160TIP3   OH263894   4.490   3.944  11.528  1.1900 -0.0984 -0.2082
14160TIP3    H163895   4.496   3.922  11.435  0.2004 -1.2285 -0.0201
14160TIP3    H263896   4.418   4.007  11.534  0.4662 -0.9349 -0.0606
14161TIP3   OH263897   4.056   5.098  16.541  0.2534  0.1460 -0.3709
14161TIP3    H163898   3.987   5.165  16.541  0.7502  0.6677 -0.3162
14161TIP3    H263899   4.063   5.072  16.633 -0.5016 -0.5745 -0.5131
14162TIP3   OH263900   0.170   1.768   3.897  0.1650  0.2680  0.1098
14162TIP3    H163901   0.083   1.730   3.908  1.1702 -1.7628  1.8091
14162TIP3    H263902   0.193   1.801   3.984 -0.1366  3.8192 -1.0237
14163TIP3   OH263903   1.030   0.443   1.066 -0.4235  0.3412 -0.0695
14163TIP3    H163904   1.031   0.407   1.155  3.0146  0.3772  0.0449
14163TIP3    H263905   1.070   0.374   1.012 -0.3896  1.1901 -1.1480
14164TIP3   OH263906   3.147   5.644   0.545  0.2422  0.5043 -0.0080
14164TIP3    H163907   3.172   5.598   0.625  0.7967 -0.1556 -0.5538
14164TIP3    H263908   3.200   5.724   0.546  2.4518 -0.8375 -1.1109
14165TIP3   OH263909   1.386   1.971  16.122 -0.4691  0.2958 -0.3263
14165TIP3    H163910   1.295   2.000  16.113 -0.4212  0.1108 -1.5044
14165TIP3    H263911   1.423   2.029  16.190 -2.0865 -1.1745  1.9625
14166TIP3   OH263912   2.396   5.203   1.589 -0.2554  0.0614 -0.0739
14166TIP3    H163913   2.468   5.152   1.551  0.8087 -1.1946  3.2331
14166TIP3    H263914   2.439   5.269   1.642 -1.6311  1.0827 -0.1799
14167TIP3   OH263915   3.554   2.148  14.168 -0.0202  0.0652  0.5431
14167TIP3    H163916   3.646   2.173  14.173  0.2448 -0.6843 -0.3974
14167TIP3    H263917   3.508   2.228  14.141  0.4076  0.3250  0.5816
14168TIP3   OH263918   4.400   3.126  13.919 -0.5638  0.7169  0.0588
14168TIP3    H163919   4.342   3.066  13.965  0.9495 -1.1509 -0.3162
14168TIP3    H263920   4.479   3.130  13.974  0.5166 -0.0366 -1.3740
14169TIP3   OH263921   0.136   3.764   4.904 -0.0504 -0.8556  0.7583
14169TIP3    H163922   0.120   3.836   4.844  0.9093 -0.1457  1.3198
14169TIP3    H263923   0.110   3.799   4.990 -1.8312 -2.0009  0.7409
14170TIP3   OH263924   2.441   5.383  15.197 -0.3554  0.6359 -0.0609
14170TIP3    H163925   2.517   5.351  15.246 -0.7938 -0.1303  0.1320
14170TIP3    H263926   2.391   5.434  15.262 -0.4906  0.3489  0.0611
14171TIP3   OH263927   1.322   4.272   2.848  0.5678  0.2789  0.2528
14171TIP3    H163928   1.410   4.241   2.827  1.0227  1.5680  0.1236
14171TIP3    H263929   1.334   4.366   2.866 -0.7353  0.4142  0.5156
14172TIP3   OH263930   3.220   5.514   1.038  0.1057 -0.7902  0.2314
14172TIP3    H163931   3.209   5.510   0.943  0.9861  1.8090 -0.0578
14172TIP3    H263932   3.306   5.555   1.050 -1.0409  1.3091  2.0799
14173TIP3   OH263933   4.370   4.205   1.722 -0.2955  0.1594  0.0881
14173TIP3    H163934   4.296   4.196   1.663 -0.4546 -0.3943  0.3703
14173TIP3    H263935   4.347   4.280   1.777 -0.8816 -0.3108  0.5038
14174TIP3   OH263936   6.693   6.217   1.639 -0.3439  0.0064  0.1568
14174TIP3    H163937   6.756   6.186   1.704  1.3927  2.9495  0.0547
14174TIP3    H263938   6.732   6.192   1.555 -1.5081 -1.8549  0.0973
14175TIP3   OH263939   2.733   6.685  17.089  0.3574 -0.8432  0.2045
14175TIP3    H163940   2.711   6.718  17.176 -0.2085  0.2223 -0.3162
14175TIP3    H263941   2.748   6.764  17.036  0.5263 -1.4612 -0.7057
14176TIP3   OH263942   2.134   4.800   0.238 -0.2025  0.4889  0.5660
14176TIP3    H163943   2.201   4.748   0.194 -1.2458 -0.2020 -0.2497
14176TIP3    H263944   2.154   4.792   0.331  1.2234  0.8436  0.3077
14177TIP3   OH263945   4.508   3.095  13.252  0.0559  0.0808 -0.0342
14177TIP3    H163946   4.420   3.057  13.254  0.0176  0.1225 -0.6701
14177TIP3    H263947   4.563   3.026  13.214 -0.2749  1.1322 -2.5937
14178TIP3   OH263948   6.496   5.691   2.724 -0.1597  0.1758 -0.6860
14178TIP3    H163949   6.531   5.611   2.764 -1.9616 -0.3943 -0.1430
14178TIP3    H263950   6.543   5.699   2.641  2.1673  0.2257  0.5813
14179TIP3   OH263951   6.081   0.527   1.404  0.1579 -0.1606 -0.3715
14179TIP3    H163952   6.122   0.502   1.322  2.5353  0.0858  0.6708
14179TIP3    H263953   6.038   0.611   1.386  1.1945  0.2039 -1.2048
14180TIP3   OH263954   6.613   2.639  16.608 -0.6545  0.1966  0.5010
14180TIP3    H163955   6.527   2.597  16.618 -0.6697  0.0124 -0.3424
14180TIP3    H263956   6.639   2.620  16.518  0.5532 -0.2683  0.9314
14181TIP3   OH263957   5.583   1.766  11.199  0.0192 -0.5440 -0.1651
14181TIP3    H163958   5.606   1.734  11.112 -0.3343  0.9409 -0.8479
14181TIP3    H263959   5.487   1.766  11.200  0.0212 -0.3929  0.1517
14182TIP3   OH263960   6.232   3.188   5.364 -0.3429 -0.2239 -0.4375
14182TIP3    H163961   6.266   3.181   5.453 -0.5500  0.2613 -0.3160
14182TIP3    H263962   6.152   3.240   5.373  0.0004  0.4200 -0.9960
14183TIP3   OH263963   6.716   3.690  15.601 -0.1460  0.1945 -0.3513
14183TIP3    H163964   6.735   3.597  15.590  1.4441  0.2970  1.1527
14183TIP3    H263965   6.740   3.729  15.517  0.9382 -0.5158 -0.3950
14184TIP3   OH263966   2.660   2.453   2.819 -0.2624  0.2627 -0.2485
14184TIP3    H163967   2.667   2.447   2.914  1.1056 -2.2174 -0.4253
14184TIP3    H263968   2.568   2.437   2.800 -0.3667 -0.1919  0.6223
14185TIP3   OH263969   1.179   6.681   1.291  0.0114 -0.6135  0.1372
14185TIP3    H163970   1.086   6.698   1.310  0.1478  2.0332 -1.1307
14185TIP3    H263971   1.213   6.765   1.260  2.5226 -1.8572 -0.7473
14186TIP3   OH263972   2.521   5.927  10.474 -0.3119 -0.2681 -0.2732
14186TIP3    H163973   2.504   6.021  10.486  1.1404  0.0061 -0.0938
14186TIP3    H263974   2.607   5.914  10.515 -1.3840 -2.0915  1.5475
14187TIP3   OH263975   5.244   3.065   0.240 -0.3377 -0.0228 -0.5279
14187TIP3    H163976   5.189   3.131   0.283 -1.7732 -1.9092  0.6684
14187TIP3    H263977   5.281   3.111   0.164 -0.5521  2.3904  0.7275
14188TIP3   OH263978   4.452   3.100  12.500 -0.3949  0.0381  0.8988
14188TIP3    H163979   4.393   3.139  12.564  0.8589  1.2184  1.4012
14188TIP3    H263980   4.523   3.164  12.491  0.9647 -1.4475  0.5765
14189TIP3   OH263981   1.678   4.294   5.614  0.8547 -0.0333  0.4527
14189TIP3    H163982   1.629   4.248   5.683 -1.0542  1.6831  0.3350
14189TIP3    H263983   1.621   4.289   5.537  1.6131  0.6208 -0.1588
14190TIP3   OH263984   5.272   1.191   0.224  0.9360 -0.0233 -0.1201
14190TIP3    H163985   5.330   1.266   0.211  1.2333 -0.3422 -0.6570
14190TIP3    H263986   5.329   1.115   0.213  0.6364 -0.3353  0.4261
14191TIP3   OH263987   6.548   5.825  16.074 -0.4147 -0.1986  0.3152
14191TIP3    H163988   6.601   5.851  15.999 -1.1014 -0.6750 -0.3545
14191TIP3    H263989   6.535   5.907  16.123  0.2184  0.0769  0.0360
14192TIP3   OH263990   5.780   6.588   2.850  0.0786  0.1177 -0.2199
14192TIP3    H163991   5.689   6.578   2.822 -0.1530  0.9726  0.2163
14192TIP3    H263992   5.821   6.637   2.780 -0.0423  0.6076  0.0500
14193TIP3   OH263993   4.986   2.471   5.132 -0.4128 -0.1462 -0.0456
14193TIP3    H163994   4.891   2.463   5.124 -0.3989  0.9554 -2.1290
14193TIP3    H263995   5.019   2.383   5.113 -0.9851 -0.2186 -0.7373
14194TIP3   OH263996   2.100   2.700  13.669  0.5385  0.3774 -0.6069
14194TIP3    H163997   2.115   2.644  13.745  1.2959  0.1282 -0.9385
14194TIP3    H263998   2.069   2.640  13.601 -0.7291  0.6857 -0.3356
14195TIP3   OH263999   0.066   6.067   0.336  0.5318 -0.1104 -0.0731
14195TIP3    H164000   0.115   6.042   0.413  0.7452  1.0206  0.1822
14195TIP3    H264001   0.079   6.162   0.329 -0.6643  0.0306 -0.6615
14196TIP3   OH264002   2.730   2.323   3.958 -0.0791 -0.0235 -1.0331
14196TIP3    H164003   2.655   2.316   3.898 -0.7218  0.0143 -0.2408
14196TIP3    H264004   2.747   2.417   3.965 -2.5822  0.3469  1.9414
14197TIP3   OH264005   4.536   1.375   4.343 -0.0377  0.0613  0.3954
14197TIP3    H164006   4.622   1.343   4.316  0.0556 -0.0926  0.8730
14197TIP3    H264007   4.474   1.315   4.301  0.0452  0.6335 -0.5946
14198TIP3   OH264008   2.991   2.255   1.523 -0.3198 -0.3562 -0.1816
14198TIP3    H164009   2.896   2.263   1.514 -0.3362 -0.6932 -0.2976
14198TIP3    H264010   3.004   2.182   1.582 -0.1795  0.9316  1.4624
14199TIP3   OH264011   3.869   1.245   2.133 -0.0357 -0.3999 -0.1747
14199TIP3    H164012   3.847   1.320   2.078  0.8261 -1.0895 -1.5092
14199TIP3    H264013   3.946   1.274   2.183 -0.1442 -0.1463 -0.1540
14200TIP3   OH264014   5.638   2.977  11.975  0.1407 -0.1181  0.0831
14200TIP3    H164015   5.625   2.940  12.063 -1.9962 -0.6751 -0.4121
14200TIP3    H264016   5.594   2.915  11.917 -0.6304  1.5101 -1.1268
14201TIP3   OH264017   5.398   5.195  12.908 -0.7460 -0.7777 -0.1483
14201TIP3    H164018   5.448   5.223  12.985  2.1690 -1.4288 -1.6698
14201TIP3    H264019   5.401   5.269  12.848 -0.4247 -1.2973 -0.7866
14202TIP3   OH264020   5.806   5.285   1.802 -0.2637  0.2849 -0.2537
14202TIP3    H164021   5.728   5.236   1.779 -0.9515  1.3428 -0.2132
14202TIP3    H264022   5.831   5.331   1.721  0.8554 -0.7328 -0.5245
14203TIP3   OH264023   0.113   0.012   2.047 -0.1839  0.8777  0.3455
14203TIP3    H164024   0.022  -0.003   2.074 -0.0691 -1.5634 -0.4460
14203TIP3    H264025   0.165  -0.041   2.107  0.5269  0.2833 -0.7713
14204TIP3   OH264026   5.223   5.229   5.824  0.6786  0.5808  0.7917
14204TIP3    H164027   5.160   5.295   5.856 -0.5396  0.8320 -1.8943
14204TIP3    H264028   5.291   5.280   5.781  0.8086  0.1455  0.4816
14205TIP3   OH264029   2.581   0.372  14.404 -0.0579  0.1690  0.5673
14205TIP3    H164030   2.651   0.307  14.406  0.5004  0.7342  0.1754
14205TIP3    H264031   2.524   0.349  14.477 -0.5255 -1.4488 -0.2731
14206TIP3   OH264032   0.840   6.157  16.071  0.1099  0.0119  0.6498
14206TIP3    H164033   0.842   6.162  15.976  0.7774 -1.6406  0.5458
14206TIP3    H264034   0.862   6.245  16.100 -1.8867  1.0316 -0.6828
14207TIP3   OH264035   3.193   5.616   6.129 -0.1141  0.2415  0.2494
14207TIP3    H164036   3.257   5.566   6.180 -0.5899 -0.2607  0.3656
14207TIP3    H264037   3.108   5.576   6.151 -0.1912 -1.1758 -2.2636
14208TIP3   OH264038   6.025   4.878   1.588  1.0687 -0.1786  0.9050
14208TIP3    H164039   6.071   4.924   1.658 -2.4235  0.2165  3.2280
14208TIP3    H264040   5.951   4.935   1.567 -1.2354 -2.8706  1.1078
14209TIP3   OH264041   4.436   0.876   1.673 -0.6167 -0.4637  0.2776
14209TIP3    H164042   4.361   0.934   1.665  1.6747  2.9688  1.1832
14209TIP3    H264043   4.401   0.796   1.710 -4.2425 -0.3180 -2.2663
14210TIP3   OH264044   0.218   5.323   5.449  0.1378 -0.6084 -0.0729
14210TIP3    H164045   0.268   5.393   5.407  0.5181 -0.8097  0.0505
14210TIP3    H264046   0.241   5.329   5.541  1.1652 -1.7211 -0.2357
14211TIP3   OH264047   4.693   3.795  11.325 -0.2985 -0.3914 -0.5497
14211TIP3    H164048   4.657   3.883  11.339 -0.9411 -0.4060 -1.9527
14211TIP3    H264049   4.659   3.743  11.399 -1.1840  0.1754 -0.5393
14212TIP3   OH264050   2.463   6.468  13.002 -0.0791 -1.0499  0.5061
14212TIP3    H164051   2.557   6.484  12.996 -0.3767  0.8438  0.5406
14212TIP3    H264052   2.443   6.476  13.095 -0.7848  2.0434  0.1915
14213TIP3   OH264053   5.775   1.204  13.452  0.5126 -0.6735 -0.3277
14213TIP3    H164054   5.685   1.183  13.476  0.3554  0.1653 -0.1423
14213TIP3    H264055   5.820   1.119  13.450  0.4685 -0.8867  2.7211
14214TIP3   OH264056   1.845   5.659  16.464 -0.1823 -0.2475 -0.2497
14214TIP3    H164057   1.906   5.731  16.449 -2.1617  1.2721 -1.7066
14214TIP3    H264058   1.893   5.580  16.439  1.1327  0.9066 -1.5414
14215TIP3   OH264059   5.437   4.645   3.217 -0.3620 -0.1083  0.4362
14215TIP3    H164060   5.429   4.553   3.190  0.7587 -0.3632  0.9126
14215TIP3    H264061   5.461   4.691   3.137  0.9849 -0.5464  0.5734
14216TIP3   OH264062   3.028   0.887  11.894  0.4787  0.2265 -0.5635
14216TIP3    H164063   3.047   0.897  11.801 -1.8585  1.3128 -1.0117
14216TIP3    H264064   2.951   0.942  11.909  1.3068  0.8199  2.2340
14217TIP3   OH264065   3.707   0.842  11.587 -0.6712  0.3954 -0.0742
14217TIP3    H164066   3.762   0.838  11.508 -1.9844 -0.5125 -0.9696
14217TIP3    H264067   3.726   0.761  11.633  0.4927  1.1640  0.8523
14218TIP3   OH264068   4.851   3.878   5.019 -0.5156  0.0326  0.1707
14218TIP3    H164069   4.918   3.941   5.046 -0.1636  0.4487 -1.5795
14218TIP3    H264070   4.855   3.810   5.086  0.4294  0.9187  1.0618
14219TIP3   OH264071   3.269   1.314   3.746 -0.4328  0.3031  0.3817
14219TIP3    H164072   3.206   1.370   3.700 -1.4936 -0.6688  0.5976
14219TIP3    H264073   3.241   1.317   3.837  0.9117  1.2448  0.7773
14220TIP3   OH264074   3.381   2.324  12.895  0.3124 -0.1603 -0.4832
14220TIP3    H164075   3.368   2.299  12.986 -0.0165  0.1948 -0.4286
14220TIP3    H264076   3.293   2.319  12.856 -0.3816  3.5994  0.2056
14221TIP3   OH264077   4.623   3.122   0.533 -0.0355 -0.5781 -0.8132
14221TIP3    H164078   4.635   3.159   0.446 -0.3150 -0.3562 -0.7571
14221TIP3    H264079   4.573   3.042   0.519  0.6977 -1.0232 -0.9503
14222TIP3   OH264080   0.696   2.173   1.726 -1.1319 -0.0633 -0.3379
14222TIP3    H164081   0.676   2.197   1.817 -0.4618  1.8743 -0.6512
14222TIP3    H264082   0.733   2.253   1.688  0.1458 -1.3059 -1.8565
14223TIP3   OH264083   1.268   2.528   5.128 -0.4890 -0.0561  0.2846
14223TIP3    H164084   1.214   2.605   5.146 -1.0114 -0.6377  1.2713
14223TIP3    H264085   1.296   2.498   5.214 -0.6296 -1.2163 -0.0663
14224TIP3   OH264086   1.812   0.625   3.019  0.0944  0.0693 -0.6761
14224TIP3    H164087   1.777   0.603   3.106  1.9787 -1.9815 -0.3336
14224TIP3    H264088   1.879   0.691   3.036  0.7011 -0.5796 -0.4905
14225TIP3   OH264089   6.639   3.498   0.172  0.1286  0.0719 -0.1034
14225TIP3    H164090   6.613   3.586   0.197  0.2217 -0.0176  0.3058
14225TIP3    H264091   6.732   3.492   0.194  1.1977  1.1772 -3.6725
14226TIP3   OH264092   5.887   0.842   5.553  0.0620  0.1639 -0.6304
14226TIP3    H164093   5.807   0.791   5.541  0.2038 -0.2472  0.1208
14226TIP3    H264094   5.895   0.894   5.473 -0.3151 -0.6754 -1.2252
14227TIP3   OH264095   2.672   6.517   1.175  0.1557  0.2497 -0.0901
14227TIP3    H164096   2.617   6.447   1.141 -0.5181  1.1300 -0.8742
14227TIP3    H264097   2.611   6.588   1.194  0.8200  0.6050  0.7664
14228TIP3   OH264098   5.480   5.559   1.241 -0.1255  0.2685 -0.0531
14228TIP3    H164099   5.427   5.610   1.302  0.3076 -0.0019  0.5632
14228TIP3    H264100   5.570   5.573   1.271 -0.0536 -1.8627  0.9382
14229TIP3   OH264101   2.803   1.762   3.582 -0.1457  0.5866  0.4023
14229TIP3    H164102   2.894   1.740   3.600 -0.4713 -0.0864  1.3053
14229TIP3    H264103   2.758   1.750   3.666 -1.2639 -0.1486 -0.2687
14230TIP3   OH264104   1.609   0.295  14.436 -1.2135  0.0194  0.0034
14230TIP3    H164105   1.518   0.322  14.421 -1.3557 -1.4553 -2.1890
14230TIP3    H264106   1.640   0.264  14.351  1.0139 -0.5622  0.9386
14231TIP3   OH264107   6.077   5.893   5.710  0.0166  0.3552 -0.2360
14231TIP3    H164108   5.983   5.883   5.698 -0.0706  2.0215 -1.2099
14231TIP3    H264109   6.105   5.951   5.640  1.6218  0.6654  0.5967
14232TIP3   OH264110   0.915   4.090  16.782  0.3752 -0.1192  0.7812
14232TIP3    H164111   0.834   4.106  16.733  1.4923 -0.6612 -1.3667
14232TIP3    H264112   0.902   4.137  16.864 -2.7920 -1.5883  1.2893
14233TIP3   OH264113   2.356   4.707  17.075  0.1577  0.5216  0.4532
14233TIP3    H164114   2.269   4.745  17.087 -0.4119 -0.4055 -0.5315
14233TIP3    H264115   2.358   4.680  16.983 -0.1078 -3.2595  1.3979
14234TIP3   OH264116   0.699   2.250  15.435  0.1656 -0.2164  0.3423
14234TIP3    H164117   0.759   2.287  15.370 -0.4436 -0.6957 -0.5205
14234TIP3    H264118   0.644   2.190  15.385 -0.0098 -0.9653  1.3997
14235TIP3   OH264119   6.329   4.754   4.606  0.3818  0.2387  0.1924
14235TIP3    H164120   6.312   4.698   4.530  0.8201  0.7546 -0.3012
14235TIP3    H264121   6.424   4.765   4.606  0.4398 -0.1954  1.1432
14236TIP3   OH264122   5.898   0.440  12.711  0.5925 -0.1859  0.4542
14236TIP3    H164123   5.920   0.532  12.692 -1.9259  1.5324  4.4244
14236TIP3    H264124   5.828   0.419  12.649 -0.8864  1.7757  1.3252
14237TIP3   OH264125   0.730   2.435   0.311 -0.1195  0.6647 -0.4593
14237TIP3    H164126   0.702   2.520   0.278 -0.4192  0.7113 -0.0996
14237TIP3    H264127   0.718   2.375   0.238  1.3494  1.1637 -1.1390
14238TIP3   OH264128   2.277   1.365   5.303 -0.6548 -0.1678 -0.4604
14238TIP3    H164129   2.370   1.387   5.309 -0.8198  0.2509  1.1482
14238TIP3    H264130   2.275   1.270   5.316 -0.2714 -0.6498 -3.3290
14239TIP3   OH264131   0.789   5.649  16.701 -0.0141 -0.0733 -0.1923
14239TIP3    H164132   0.773   5.723  16.760  2.6141 -0.1466  0.7338
14239TIP3    H264133   0.727   5.582  16.729  0.4218  0.2908  1.7922
14240TIP3   OH264134   3.534   5.535   6.095 -0.0162 -0.1362  0.3419
14240TIP3    H164135   3.461   5.508   6.150 -0.3810 -4.6759 -1.8365
14240TIP3    H264136   3.501   5.524   6.005  1.9857  2.1838 -0.7862
14241TIP3   OH264137   5.614   1.637  13.437  0.1212 -0.0146 -0.2794
14241TIP3    H164138   5.556   1.646  13.513 -0.3510  0.7657 -0.7170
14241TIP3    H264139   5.693   1.595  13.472  0.1394  0.8451  0.7687
14242TIP3   OH264140   3.792   1.491   0.960 -0.2282  1.2649  0.7901
14242TIP3    H164141   3.837   1.477   1.043 -0.5429 -1.4096  0.5841
14242TIP3    H264142   3.860   1.526   0.901  0.9176 -0.1659  1.2185
14243TIP3   OH264143   2.901   0.693  14.797 -0.4618 -0.1545 -0.0220
14243TIP3    H164144   2.952   0.656  14.869  0.1622  0.7100 -0.0055
14243TIP3    H264145   2.818   0.719  14.838  0.6266  2.1750  0.8803
14244TIP3   OH264146   0.472   3.586   3.367 -0.4128 -0.2120  0.2392
14244TIP3    H164147   0.447   3.663   3.418 -1.2647  0.0307 -0.5215
14244TIP3    H264148   0.534   3.619   3.303 -0.7882 -0.1444 -0.0955
14245TIP3   OH264149   6.254   5.636  11.716 -0.3851  0.4180  0.4552
14245TIP3    H164150   6.339   5.615  11.677 -0.7303 -0.7620  0.2966
14245TIP3    H264151   6.234   5.724  11.684  0.0105  0.0491 -0.8553
14246TIP3   OH264152   0.307   0.128   3.062  0.1211  0.1081 -0.4175
14246TIP3    H164153   0.371   0.083   3.007 -0.3839  0.8858 -1.6922
14246TIP3    H264154   0.255   0.180   3.000 -0.9795  0.4013  0.7177
14247TIP3   OH264155   2.523   4.621  12.325 -0.6163  0.0632  0.1936
14247TIP3    H164156   2.438   4.596  12.289 -0.7403  0.4590  0.2041
14247TIP3    H264157   2.535   4.564  12.401 -1.2994  0.6274  0.7389
14248TIP3   OH264158   1.595   5.480   5.898 -0.5178 -0.0231  0.3689
14248TIP3    H164159   1.617   5.475   5.991 -0.0264  0.1466  0.2618
14248TIP3    H264160   1.654   5.417   5.856 -0.7030 -0.0613  0.1612
14249TIP3   OH264161   3.236   0.544   6.275 -0.2791 -0.3665  0.0534
14249TIP3    H164162   3.195   0.615   6.325  0.6661  0.1750  0.0879
14249TIP3    H264163   3.165   0.507   6.224 -0.5437  1.5914 -1.1072
14250TIP3   OH264164   0.489   0.675   2.337  0.2106  0.3338 -0.0530
14250TIP3    H164165   0.540   0.750   2.306  0.0328  0.5018  0.0613
14250TIP3    H264166   0.473   0.693   2.430  1.7691 -0.7411  0.4545
14251TIP3   OH264167   3.287   3.295  15.434 -0.1236 -0.4589  0.4503
14251TIP3    H164168   3.262   3.293  15.527 -0.5070 -2.1293  0.3420
14251TIP3    H264169   3.252   3.378  15.402 -1.0915 -0.4272  1.5049
14252TIP3   OH264170   0.649   5.157  15.172  0.4589 -0.0012  0.3658
14252TIP3    H164171   0.607   5.163  15.086 -2.1317 -0.3343  1.4991
14252TIP3    H264172   0.651   5.063  15.191 -0.2126  0.1429  1.2042
14253TIP3   OH264173   1.637   1.542   3.965 -0.0897  0.5388  0.0326
14253TIP3    H164174   1.609   1.455   3.995 -0.3950  1.6265  3.1935
14253TIP3    H264175   1.658   1.529   3.872 -2.4631 -2.3529 -0.2634
14254TIP3   OH264176   4.162   4.674   1.782  0.1092  0.0161 -0.2216
14254TIP3    H164177   4.094   4.700   1.844 -0.2200  0.0019 -0.5745
14254TIP3    H264178   4.213   4.754   1.767 -0.1870  0.1717 -0.4041
14255TIP3   OH264179   5.633   2.604  11.358  0.9094 -0.2330  0.0305
14255TIP3    H164180   5.660   2.695  11.376  1.3703 -0.5762  1.1446
14255TIP3    H264181   5.681   2.581  11.278  3.8297 -0.7205  1.7846
14256TIP3   OH264182   3.511   4.313   4.703 -0.4486  0.6074 -0.1423
14256TIP3    H164183   3.467   4.239   4.744  0.9017 -0.1984 -0.0905
14256TIP3    H264184   3.476   4.390   4.748 -0.2944 -0.1402  1.2861
14257TIP3   OH264185   3.874   3.517   0.137 -0.1670 -0.4948  0.1994
14257TIP3    H164186   3.953   3.554   0.097  0.5038 -1.7011  0.3591
14257TIP3    H264187   3.905   3.443   0.188 -1.4883 -1.4741 -0.3539
14258TIP3   OH264188   2.297   0.786  16.774  0.1601 -0.2220 -0.3218
14258TIP3    H164189   2.226   0.849  16.760 -0.5038 -0.7439  0.5723
14258TIP3    H264190   2.272   0.710  16.721 -0.7061 -0.9462  1.0395
14259TIP3   OH264191   2.891   3.160   5.328 -0.1888 -0.0203 -0.0545
14259TIP3    H164192   2.984   3.162   5.351 -0.2752 -0.3764  0.3342
14259TIP3    H264193   2.877   3.074   5.288 -0.2879  0.1515 -0.3992
14260TIP3   OH264194   2.865   1.985  14.797  0.3154 -0.2267 -0.0646
14260TIP3    H164195   2.894   1.983  14.706 -0.3723  1.9617 -0.3815
14260TIP3    H264196   2.941   1.956  14.847  1.6394  1.1670 -1.1750
14261TIP3   OH264197   6.002   4.821   4.882 -0.0996 -0.5272 -0.1787
14261TIP3    H164198   6.038   4.909   4.871 -1.6674 -0.0882 -2.2544
14261TIP3    H264199   5.911   4.834   4.907 -0.3852 -1.5560 -0.6163
14262TIP3   OH264200   3.068   4.257  14.504 -0.4814  0.4663 -0.4895
14262TIP3    H164201   3.017   4.301  14.572  0.2387 -1.4760  1.4435
14262TIP3    H264202   3.151   4.304  14.500 -0.6955  0.8547 -0.3518
14263TIP3   OH264203   0.825   6.464   5.949  0.0357 -0.1919  0.0566
14263TIP3    H164204   0.730   6.467   5.957  0.0724  0.8339  0.2492
14263TIP3    H264205   0.852   6.555   5.948  1.1024 -0.4649  1.1017
14264TIP3   OH264206   2.556   3.354   3.263  0.7131  0.2126  0.1467
14264TIP3    H164207   2.491   3.418   3.232 -0.7615 -1.1959  0.2143
14264TIP3    H264208   2.574   3.299   3.186  2.9729  1.4107 -0.2953
14265TIP3   OH264209   1.657   0.523   5.597 -0.3978  0.3407  0.2454
14265TIP3    H164210   1.648   0.545   5.690  1.0838 -0.8137  0.6863
14265TIP3    H264211   1.748   0.543   5.576  1.3306 -5.2200  0.7922
14266TIP3   OH264212   0.248   4.648  13.994 -0.1435 -0.4821 -0.1729
14266TIP3    H164213   0.264   4.565  13.950  0.8342  0.3851 -1.5392
14266TIP3    H264214   0.213   4.705  13.927  1.1145  0.7959  0.1956
14267TIP3   OH264215   0.156   2.889  10.906 -0.2532 -0.2746 -0.2715
14267TIP3    H164216   0.194   2.831  10.972 -0.7178 -0.5064 -0.2090
14267TIP3    H264217   0.182   2.851  10.822  0.7399  0.2821 -0.2302
14268TIP3   OH264218   3.395   0.685   5.854 -0.2927 -0.0069  0.1832
14268TIP3    H164219   3.382   0.616   5.790 -0.1666 -1.1208  1.3118
14268TIP3    H264220   3.456   0.648   5.918 -0.7121  0.9019  1.1495
14269TIP3   OH264221   6.145   0.067  12.805 -0.3427  0.0494  0.3086
14269TIP3    H164222   6.172   0.056  12.714 -0.2461  1.5833  0.1305
14269TIP3    H264223   6.053   0.093  12.801 -2.0870 -4.9843  0.9138
14270TIP3   OH264224   4.585   2.270  15.728 -0.1265  0.2550 -0.8113
14270TIP3    H164225   4.556   2.361  15.723 -2.0330 -0.1123  1.6881
14270TIP3    H264226   4.512   2.219  15.692  0.1493 -0.3529 -0.5306
14271TIP3   OH264227   3.203   4.652  13.156 -0.2271 -0.4519  0.0224
14271TIP3    H164228   3.175   4.725  13.101 -0.8008  0.0904  1.0089
14271TIP3    H264229   3.194   4.575  13.100 -0.2868  0.1497 -0.8085
14272TIP3   OH264230   0.355   5.224   3.747 -0.0838 -0.0400  0.1630
14272TIP3    H164231   0.447   5.197   3.758  0.5644  2.1646  0.7057
14272TIP3    H264232   0.346   5.241   3.654 -0.2658 -1.2673 -0.0545
14273TIP3   OH264233   4.900   3.042  15.886 -0.0885  0.0222 -0.5306
14273TIP3    H164234   4.897   3.120  15.942 -0.1933 -0.2065 -0.2160
14273TIP3    H264235   4.938   3.074  15.804  1.4341  0.0707  0.1548
14274TIP3   OH264236   4.064   1.061   3.278 -0.6455 -0.1641 -0.0483
14274TIP3    H164237   4.090   1.103   3.196  2.1479 -0.9668  0.2959
14274TIP3    H264238   4.090   1.124   3.346 -1.8629  0.0027  0.2792
14275TIP3   OH264239   5.322   3.387  16.234 -0.5889  0.2787  0.0223
14275TIP3    H164240   5.283   3.300  16.220 -2.9667  1.2538  0.0943
14275TIP3    H264241   5.328   3.426  16.147  0.9547 -0.0942 -0.0702
14276TIP3   OH264242   3.232   5.423  14.900 -0.5447 -0.6999 -0.4377
14276TIP3    H164243   3.311   5.401  14.850 -0.6956  0.1967 -1.0992
14276TIP3    H264244   3.205   5.340  14.940 -0.2669 -1.3854 -1.6280
14277TIP3   OH264245   2.266   4.717  14.740 -0.2005  0.1417  0.0883
14277TIP3    H164246   2.325   4.691  14.811  1.2049 -1.5260 -1.5686
14277TIP3    H264247   2.181   4.679  14.764 -0.5008  1.9290  2.1420
14278TIP3   OH264248   5.004   2.827  14.446 -0.3529 -0.0264  0.3100
14278TIP3    H164249   4.964   2.895  14.391  1.2322 -0.7371 -1.8499
14278TIP3    H264250   4.950   2.749  14.429 -0.3801 -0.0365  0.4443
14279TIP3   OH264251   4.141   2.668   5.482  0.1300  0.0971  0.3485
14279TIP3    H164252   4.115   2.731   5.549 -0.0973 -0.0262  0.3749
14279TIP3    H264253   4.135   2.717   5.400  2.1866  0.8258  0.5600
14280TIP3   OH264254   4.335   0.799   2.844  0.5468 -0.3206 -0.6014
14280TIP3    H164255   4.256   0.852   2.841  1.5657  1.4116  0.8707
14280TIP3    H264256   4.370   0.802   2.755  1.4793  3.0587 -0.2627
14281TIP3   OH264257   4.482   0.295  12.713  0.5116 -0.0584 -0.4304
14281TIP3    H164258   4.409   0.356  12.707  1.0487  0.4817 -1.6057
14281TIP3    H264259   4.514   0.305  12.803 -0.0903  0.5847 -0.2815
14282TIP3   OH264260   5.646   2.268   2.057 -0.1445 -0.8895 -0.0049
14282TIP3    H164261   5.612   2.228   2.137 -1.9322 -1.4005 -0.9678
14282TIP3    H264262   5.741   2.266   2.068 -0.3109 -1.8666  1.6566
14283TIP3   OH264263   5.033   5.530   2.704 -0.7406 -0.4823 -0.4618
14283TIP3    H164264   4.982   5.462   2.748  1.6114 -1.0230  1.6489
14283TIP3    H264265   5.118   5.529   2.748  0.5458  1.5237 -2.6556
14284TIP3   OH264266   0.090   0.873  12.990  0.2645 -0.1135 -0.0642
14284TIP3    H164267   0.073   0.891  12.897  0.9766 -2.5293 -0.7441
14284TIP3    H264268   0.185   0.858  12.995  0.0754 -1.1395  0.8152
14285TIP3   OH264269   6.200   4.433   2.114  0.1108  0.1361 -0.3389
14285TIP3    H164270   6.134   4.486   2.158 -1.2192 -0.9390 -0.9363
14285TIP3    H264271   6.195   4.459   2.022  0.3911 -0.0727 -0.4162
14286TIP3   OH264272   0.116   1.666   4.522 -0.0372  0.1825 -0.9501
14286TIP3    H164273   0.118   1.752   4.564 -0.3514  0.1907 -0.9543
14286TIP3    H264274   0.024   1.640   4.523  0.2322 -0.8492  0.4555
14287TIP3   OH264275   0.045   0.624  16.419  0.6270  0.2283  0.4673
14287TIP3    H164276   0.016   0.624  16.510  3.9255 -0.0613  1.6805
14287TIP3    H264277   0.052   0.532  16.395  1.2675  0.2515  0.5260
14288TIP3   OH264278   4.533   2.869  11.051  0.1380 -1.1626 -0.3773
14288TIP3    H164279   4.556   2.944  11.107 -0.0951 -1.0684 -0.4053
14288TIP3    H264280   4.437   2.871  11.048  0.1791 -0.5756 -1.5915
14289TIP3   OH264281   4.428   1.454  16.851 -0.5457  0.1443 -0.2856
14289TIP3    H164282   4.521   1.463  16.828 -0.8739 -0.6657 -2.0412
14289TIP3    H264283   4.393   1.390  16.789 -1.9891 -0.6389  1.2374
14290TIP3   OH264284   5.310   4.596   6.576  0.1504 -0.2659 -0.3972
14290TIP3    H164285   5.391   4.547   6.565  1.8271  2.3122 -0.3573
14290TIP3    H264286   5.305   4.652   6.499 -1.0768  0.3441  0.1029
14291TIP3   OH264287   4.756   3.401  11.466  0.0002 -0.0041 -0.0437
14291TIP3    H164288   4.678   3.349  11.486  0.3177 -1.1755 -1.6342
14291TIP3    H264289   4.806   3.402  11.547 -0.6914 -1.0184  0.4130
14292TIP3   OH264290   5.990   0.716  12.703 -0.2265  0.5808  0.4022
14292TIP3    H164291   6.034   0.755  12.628 -0.5263  0.9726  0.4296
14292TIP3    H264292   5.999   0.780  12.773 -1.3498  0.9256  0.2406
14293TIP3   OH264293   6.632   5.037  13.924  0.2135  0.2384 -0.1438
14293TIP3    H164294   6.698   5.105  13.916  0.3426  0.0530 -0.7591
14293TIP3    H264295   6.557   5.080  13.965  0.2080  0.8069 -0.7374
14294TIP3   OH264296   4.695   2.277  16.627  0.2306 -0.3383  0.1042
14294TIP3    H164297   4.754   2.350  16.645  1.7293 -1.6982  0.9594
14294TIP3    H264298   4.608   2.312  16.646  0.9334  1.1333  0.8147
14295TIP3   OH264299   0.198   3.181  13.040 -0.1439 -1.0102  1.2185
14295TIP3    H164300   0.264   3.140  13.095  1.6154  0.8833  0.6795
14295TIP3    H264301   0.166   3.255  13.092  0.9577  0.3190  0.0880
14296TIP3   OH264302   5.468   2.016  14.079  0.4285  0.6101 -0.4537
14296TIP3    H164303   5.434   2.101  14.107 -0.1370  0.4841 -0.7405
14296TIP3    H264304   5.399   1.954  14.103  0.6984  0.2749 -0.5403
14297TIP3   OH264305   1.735   1.795  13.113 -0.0914 -0.2523 -0.8209
14297TIP3    H164306   1.712   1.713  13.156 -0.5334  0.1719 -0.2327
14297TIP3    H264307   1.663   1.855  13.136  0.5570  0.4881 -0.6932
14298TIP3   OH264308   3.007   1.796  15.231  0.6421 -0.1256  0.2859
14298TIP3    H164309   3.024   1.704  15.252  0.6990 -0.5380 -1.3985
14298TIP3    H264310   2.915   1.798  15.205  0.1329  0.6595  2.0158
14299TIP3   OH264311   3.591   1.196   2.266 -0.5326 -0.0815 -0.2915
14299TIP3    H164312   3.657   1.265   2.271 -1.6733  1.1875 -1.7238
14299TIP3    H264313   3.510   1.237   2.297 -0.9189 -1.2421  0.2884
14300TIP3   OH264314   5.097   0.100   1.478 -0.2811 -0.6495 -0.2865
14300TIP3    H164315   5.191   0.102   1.495  0.0403 -0.9236 -1.9165
14300TIP3    H264316   5.061   0.046   1.549  0.8770 -1.1785 -0.0768
14301TIP3   OH264317   5.020   0.729  17.192 -0.2603  0.3166 -0.3106
14301TIP3    H164318   4.967   0.758  17.266 -2.3024 -3.6402  0.0126
14301TIP3    H264319   5.100   0.693  17.231  0.8112  2.3300 -0.4978
14302TIP3   OH264320   3.247   2.831  15.260  0.2659  0.1541  0.2177
14302TIP3    H164321   3.253   2.917  15.301  1.3540 -0.2301  0.9051
14302TIP3    H264322   3.192   2.780  15.319 -0.0978  0.2695 -0.0160
14303TIP3   OH264323   5.413   3.500   0.410  0.4943  0.1444 -0.7531
14303TIP3    H164324   5.499   3.465   0.386  1.1102  0.2393  1.1763
14303TIP3    H264325   5.358   3.479   0.334  1.6797 -1.8642 -1.1596
14304TIP3   OH264326   3.011   3.851   2.543 -0.3043 -0.0436 -0.1689
14304TIP3    H164327   2.931   3.898   2.522 -0.7679 -0.7390  0.0036
14304TIP3    H264328   2.999   3.765   2.503 -0.3339 -0.7016  1.2176
14305TIP3   OH264329   0.192   0.815  16.606  0.0935 -0.0619 -0.9532
14305TIP3    H164330   0.286   0.813  16.622  0.0668  0.1789 -0.7597
14305TIP3    H264331   0.183   0.792  16.513  0.3631  0.1596 -1.0364
14306TIP3   OH264332   0.369   2.310  12.296 -0.1620  0.1231  0.6152
14306TIP3    H164333   0.395   2.402  12.295 -0.2737  0.1531 -0.1663
14306TIP3    H264334   0.286   2.310  12.345 -1.0497  0.7004 -0.8232
14307TIP3   OH264335   1.229   0.306  12.285 -0.0824 -0.3091 -0.1114
14307TIP3    H164336   1.269   0.265  12.361 -1.4357  0.2300  0.9167
14307TIP3    H264337   1.151   0.350  12.318 -0.7185 -0.0616 -1.8100
14308TIP3   OH264338   2.149   0.857  14.634 -0.1830 -0.3645  0.3007
14308TIP3    H164339   2.077   0.889  14.689  0.6783  1.5512  0.3861
14308TIP3    H264340   2.201   0.802  14.693 -1.7142 -2.0745  0.1466
14309TIP3   OH264341   0.675   1.487  11.837  0.1622 -0.3215  0.3237
14309TIP3    H164342   0.749   1.506  11.896 -0.0868  2.8200 -0.2233
14309TIP3    H264343   0.656   1.394  11.853  2.9638 -0.7539  1.8843
14310TIP3   OH264344   5.596   1.934   0.587 -0.1528  0.3285  0.0460
14310TIP3    H164345   5.661   1.942   0.658 -1.1411  1.1445  0.8801
14310TIP3    H264346   5.548   2.016   0.588 -0.1863  0.3695 -1.6100
14311TIP3   OH264347   5.663   0.915   0.752 -0.1724 -0.4975 -0.0550
14311TIP3    H164348   5.712   0.833   0.757 -0.2024 -0.5882 -1.0580
14311TIP3    H264349   5.731   0.983   0.751 -0.1464 -0.5018  0.7274
14312TIP3   OH264350   5.799   0.347  14.126 -0.0737 -0.1679 -0.1809
14312TIP3    H164351   5.750   0.366  14.047 -0.0628 -0.7616 -0.3369
14312TIP3    H264352   5.800   0.429  14.175 -0.3336  0.1184 -0.6576
14313TIP3   OH264353   2.275   2.156  12.187  0.2405 -0.0781 -0.0636
14313TIP3    H164354   2.234   2.242  12.180 -0.7905 -0.6400 -1.1820
14313TIP3    H264355   2.227   2.111  12.257 -1.6429 -1.0073 -1.8660
14314TIP3   OH264356   2.335   3.775  15.284  0.2551 -0.0120 -0.2624
14314TIP3    H164357   2.427   3.787  15.259  0.6197 -0.2133  0.8913
14314TIP3    H264358   2.290   3.851  15.248  0.7279 -0.2891 -1.4934
14315TIP3   OH264359   0.934   3.776   5.403  0.7925 -0.4654 -0.0214
14315TIP3    H164360   0.959   3.762   5.495  2.2853 -2.1688 -0.6348
14315TIP3    H264361   0.874   3.704   5.384 -1.0315  0.9414  0.0805
14316TIP3   OH264362   5.088   1.365  14.937  0.4864 -0.1140 -0.3644
14316TIP3    H164363   5.148   1.314  14.991 -0.2903 -0.8475 -0.1656
14316TIP3    H264364   5.084   1.318  14.854  0.0324 -0.1888 -0.3020
14317TIP3   OH264365   5.851   1.978  17.214  0.6849 -0.2918  0.1053
14317TIP3    H164366   5.891   1.910  17.268  1.0682 -1.0015 -1.0356
14317TIP3    H264367   5.761   1.948  17.201  0.4601  0.1037  0.6964
14318TIP3   OH264368   3.473   6.677  15.250 -0.1275 -0.1127 -0.4623
14318TIP3    H164369   3.391   6.674  15.299  0.0448 -0.7487 -0.2143
14318TIP3    H264370   3.505   6.587  15.249 -0.3106 -0.1868 -2.0587
14319TIP3   OH264371   0.599   4.036   3.855  0.3086 -0.0262 -0.5602
14319TIP3    H164372   0.510   4.017   3.881  0.6087 -1.2473 -0.3978
14319TIP3    H264373   0.628   3.958   3.808  0.8218  0.9112 -1.8498
14320TIP3   OH264374   3.993   6.138   0.102  0.5234 -0.0455  0.6882
14320TIP3    H164375   3.953   6.194   0.036 -0.9330 -0.2420  1.3608
14320TIP3    H264376   4.063   6.191   0.140  0.1919  0.7201  0.2487
14321TIP3   OH264377   4.850   3.847   6.702  0.0777 -0.3694 -0.5686
14321TIP3    H164378   4.945   3.842   6.691  0.3066  1.7515  0.0290
14321TIP3    H264379   4.817   3.765   6.666  2.1269 -1.1157 -0.8490
14322TIP3   OH264380   6.169   5.794  11.315  0.0789  0.0216  0.1901
14322TIP3    H164381   6.149   5.712  11.360 -2.3386  0.7749  0.6238
14322TIP3    H264382   6.252   5.822  11.352  0.8978 -2.1310  0.1358
14323TIP3   OH264383   1.180   3.559   1.649  0.1599  0.2377  0.3389
14323TIP3    H164384   1.227   3.479   1.672 -0.4756 -0.3973 -0.5153
14323TIP3    H264385   1.096   3.528   1.616  0.2029  1.2265 -0.7261
14324TIP3   OH264386   2.607   2.991  14.261 -0.2773 -0.4998 -0.3027
14324TIP3    H164387   2.579   3.073  14.221 -0.2281 -1.1409 -1.7247
14324TIP3    H264388   2.632   2.935  14.187 -2.0352 -2.4569  0.4705
14325TIP3   OH264389   0.293   6.733   0.319 -0.2007  0.2721  0.5669
14325TIP3    H164390   0.382   6.706   0.340 -1.1252 -4.6922 -0.6102
14325TIP3    H264391   0.297   6.762   0.228  0.2663  0.0600  0.5171
14326TIP3   OH264392   0.460   0.014   1.936 -0.6998  0.1264 -0.1868
14326TIP3    H164393   0.469  -0.036   2.018 -0.7212 -0.1744 -0.3681
14326TIP3    H264394   0.537  -0.010   1.885 -0.9045 -0.0103 -0.4314
14327TIP3   OH264395   6.601   4.888   3.306  0.1311  0.0078 -0.6724
14327TIP3    H164396   6.562   4.802   3.289 -1.4866  1.0189 -2.4785
14327TIP3    H264397   6.648   4.877   3.389 -1.2182 -2.2208 -0.1159
14328TIP3   OH264398   3.697   2.522   0.880  0.2316  0.1204 -0.1253
14328TIP3    H164399   3.703   2.547   0.788 -1.0270  0.4935 -0.1234
14328TIP3    H264400   3.704   2.605   0.928 -1.9625  0.3010 -0.0308
14329TIP3   OH264401   4.824   2.226  11.807 -0.3593 -0.3803 -0.8373
14329TIP3    H164402   4.836   2.187  11.720 -2.2521 -1.0624 -0.8489
14329TIP3    H264403   4.748   2.180  11.843 -1.2478  1.6882  0.1002
14330TIP3   OH264404   6.515   4.878  11.284 -0.0228 -0.2718  0.0308
14330TIP3    H164405   6.453   4.820  11.330 -0.3492  0.8323  1.0355
14330TIP3    H264406   6.490   4.871  11.192 -1.3341 -0.2267  0.3600
14331TIP3   OH264407   2.251   3.166  15.546 -0.0771  0.0564 -0.4611
14331TIP3    H164408   2.199   3.178  15.467 -1.4404  0.3863  0.4371
14331TIP3    H264409   2.197   3.109  15.601  0.5817  0.2848  0.4410
14332TIP3   OH264410   3.366   4.450   1.789  0.3197  0.1072 -0.4515
14332TIP3    H164411   3.455   4.422   1.808  0.1361 -0.7618 -0.8368
14332TIP3    H264412   3.319   4.370   1.768 -1.1694  0.2296  2.0280
14333TIP3   OH264413   5.511   3.123   1.462  0.0376 -0.6534 -0.3573
14333TIP3    H164414   5.516   3.036   1.420 -0.9789 -0.9738  0.1739
14333TIP3    H264415   5.568   3.115   1.538  0.6801 -0.5497 -0.8138
14334TIP3   OH264416   0.455   2.675  12.571  0.0205  0.1558  0.6089
14334TIP3    H164417   0.537   2.724  12.579  0.5189 -0.6659  0.7549
14334TIP3    H264418   0.476   2.589  12.608 -0.4418 -0.5942 -0.7989
14335TIP3   OH264419   3.612   5.553  16.872 -0.4140 -0.4905  0.8110
14335TIP3    H164420   3.677   5.623  16.866 -0.2589 -0.7054 -0.3030
14335TIP3    H264421   3.547   5.575  16.805  1.1892 -2.9242 -1.7900
14336TIP3   OH264422   1.992   0.416  16.176 -0.1872 -0.0043 -0.0068
14336TIP3    H164423   1.992   0.500  16.222 -0.1224  0.2431 -0.4413
14336TIP3    H264424   1.905   0.409  16.138 -0.5355 -0.6289  0.8871
14337TIP3   OH264425   4.020   2.511   4.914 -0.1692 -0.2226 -0.1394
14337TIP3    H164426   4.088   2.564   4.956 -0.0911  1.1299 -1.8216
14337TIP3    H264427   4.019   2.429   4.963 -0.3851  1.3453  2.7211
14338TIP3   OH264428   4.628   1.857  11.037 -0.3699 -0.1822 -0.3554
14338TIP3    H164429   4.577   1.847  10.957 -0.2061  1.6255 -0.7223
14338TIP3    H264430   4.687   1.930  11.019 -0.8394  0.7574  1.6575
14339TIP3   OH264431   5.931   0.412   4.280 -0.0776  0.0697  0.1109
14339TIP3    H164432   5.988   0.431   4.205 -1.2589 -0.0093 -0.8415
14339TIP3    H264433   5.870   0.485   4.283 -1.7898 -1.2502 -0.7678
14340TIP3   OH264434   2.103   3.462  10.495 -0.2028  0.0807 -0.4597
14340TIP3    H164435   2.040   3.468  10.424 -0.5421  0.6324 -0.1188
14340TIP3    H264436   2.076   3.385  10.545 -0.5149  0.2232 -0.4060
14341TIP3   OH264437   4.806   1.833   6.365 -0.3316 -0.0378  0.3838
14341TIP3    H164438   4.846   1.896   6.425  1.1509  1.1761 -1.7361
14341TIP3    H264439   4.810   1.750   6.412  1.8732  0.6319  1.5486
14342TIP3   OH264440   3.345   0.141   5.914  0.3634  0.3077 -0.4050
14342TIP3    H164441   3.404   0.105   5.848  0.0301  0.3952 -0.7510
14342TIP3    H264442   3.393   0.131   5.997  1.2880  1.2870 -0.7958
14343TIP3   OH264443   1.352   6.128  15.232 -0.2345  0.4018 -0.2632
14343TIP3    H164444   1.413   6.127  15.158  0.8170  2.3569  0.5151
14343TIP3    H264445   1.268   6.151  15.193 -0.2118 -0.9263 -1.1549
14344TIP3   OH264446   2.224   4.459   4.876  0.5359  0.0955  0.4520
14344TIP3    H164447   2.162   4.400   4.918 -0.0625  0.7929  0.5678
14344TIP3    H264448   2.288   4.479   4.945  0.4380  0.0032  0.5697
14345TIP3   OH264449   6.370   4.699  12.571  0.9831 -0.1729 -0.0690
14345TIP3    H164450   6.432   4.770  12.562  0.7563 -0.1372 -1.7433
14345TIP3    H264451   6.303   4.732  12.632  1.8843  0.2761  0.7002
14346TIP3   OH264452   1.345   2.525  10.412 -0.1636  0.6294 -0.0964
14346TIP3    H164453   1.295   2.448  10.385 -0.9582  1.2574 -0.4325
14346TIP3    H264454   1.288   2.571  10.474  0.5577  0.6342  0.5938
14347TIP3   OH264455   4.009   2.447  13.320  0.2091 -0.5909 -0.7089
14347TIP3    H164456   4.037   2.364  13.358  0.5284 -0.0925  0.1623
14347TIP3    H264457   3.986   2.425  13.229  1.8757 -1.3127 -0.9861
14348TIP3   OH264458   5.537   0.583  12.971 -0.3194  0.0487  0.1966
14348TIP3    H164459   5.535   0.581  12.876  0.2144  0.6634  0.1695
14348TIP3    H264460   5.605   0.647  12.993 -0.1969 -0.3424  0.9900
14349TIP3   OH264461   3.817   3.188   5.645  1.0501  0.1521 -0.2306
14349TIP3    H164462   3.892   3.235   5.682  0.6220  0.9072 -0.2903
14349TIP3    H264463   3.768   3.255   5.598  0.3355 -0.3292 -0.1889
14350TIP3   OH264464   3.759   3.950  15.332  0.2696  0.1458 -0.0305
14350TIP3    H164465   3.741   3.951  15.426  1.9426  1.6781  0.3546
14350TIP3    H264466   3.774   3.858  15.311  0.1854 -0.1872  1.2868
14351TIP3   OH264467   1.867   4.622  14.034  0.5331  0.7629 -0.2316
14351TIP3    H164468   1.831   4.709  14.050 -1.3265 -0.0715  0.4101
14351TIP3    H264469   1.889   4.589  14.122 -0.0137  0.1038 -0.3293
14352TIP3   OH264470   5.770   5.436  16.530  0.3472  0.0605  0.5772
14352TIP3    H164471   5.777   5.387  16.612  0.9649 -0.0687  0.4532
14352TIP3    H264472   5.697   5.395  16.484  0.2894 -0.1650  0.8628
14353TIP3   OH264473   1.726   2.170   0.071  0.3350 -0.1995  0.7014
14353TIP3    H164474   1.631   2.157   0.077 -0.1580  1.2556 -2.0202
14353TIP3    H264475   1.750   2.133  -0.013  1.9360  0.6445  0.7491
14354TIP3   OH264476   4.212   2.367  14.801 -0.7460  0.1996  0.2129
14354TIP3    H164477   4.251   2.444  14.842 -0.5219  1.0771 -1.5469
14354TIP3    H264478   4.156   2.402  14.732 -0.5073 -1.2118 -0.7519
14355TIP3   OH264479   0.601   1.826  16.328  0.1413  0.2439 -0.0252
14355TIP3    H164480   0.625   1.794  16.241  1.4209 -0.3112  0.5048
14355TIP3    H264481   0.509   1.802  16.337  0.5135 -1.5384 -0.4584
14356TIP3   OH264482   0.665   2.858  15.889 -0.3172  0.4584 -0.0051
14356TIP3    H164483   0.581   2.900  15.907 -0.1093  1.1846 -0.6619
14356TIP3    H264484   0.655   2.768  15.921 -1.5067  0.3911 -0.5259
14357TIP3   OH264485   1.260   3.599  14.534  0.3097  0.4999 -0.0418
14357TIP3    H164486   1.286   3.544  14.461  1.1203  0.8532 -0.0264
14357TIP3    H264487   1.297   3.556  14.611 -0.2652  0.3063  0.1372
14358TIP3   OH264488   2.776   0.754   3.497 -0.5426  0.5845 -0.4032
14358TIP3    H164489   2.702   0.723   3.550  1.5917  0.6239  2.9531
14358TIP3    H264490   2.751   0.735   3.407 -4.2600 -0.0953  0.5955
14359TIP3   OH264491   5.673   1.522   3.649 -0.2052 -0.3289  0.0483
14359TIP3    H164492   5.613   1.459   3.611 -1.0621  0.8990 -0.6897
14359TIP3    H264493   5.722   1.557   3.574 -0.2998  0.4412  0.3311
14360TIP3   OH264494   5.091   6.125  12.800  0.5720 -0.3836 -0.9440
14360TIP3    H164495   5.141   6.069  12.860 -0.1604 -1.8004 -1.6027
14360TIP3    H264496   5.023   6.163  12.855  0.0895 -1.4342 -0.7782
14361TIP3   OH264497   6.632   3.108   1.046 -0.1487  0.1332 -0.3380
14361TIP3    H164498   6.569   3.056   0.997 -0.5706  1.5822 -1.4030
14361TIP3    H264499   6.712   3.055   1.046 -0.3668 -0.2491 -1.9768
14362TIP3   OH264500   1.341   4.318  15.882 -0.3008  0.0244 -0.2498
14362TIP3    H164501   1.363   4.226  15.872  1.5185  0.5642 -1.7906
14362TIP3    H264502   1.422   4.359  15.911 -1.2222  1.0799  0.9139
14363TIP3   OH264503   3.513   1.348   1.725 -0.2343 -0.0705  0.1410
14363TIP3    H164504   3.534   1.320   1.815 -1.3187  1.3159  0.8738
14363TIP3    H264505   3.436   1.405   1.735 -1.0114 -0.7062 -1.8014
14364TIP3   OH264506   4.147   4.883   0.678 -0.3319  0.8528 -0.1644
14364TIP3    H164507   4.155   4.887   0.774  2.4566  3.3690 -0.3494
14364TIP3    H264508   4.092   4.958   0.656 -1.4986 -0.0926 -0.5393
14365TIP3   OH264509   2.119   1.992   0.561 -0.7152 -0.2529 -0.0679
14365TIP3    H164510   2.040   1.993   0.507 -0.6701  0.5845 -0.1343
14365TIP3    H264511   2.187   1.955   0.505 -1.0465 -0.9687 -0.0145
14366TIP3   OH264512   1.777   1.615  15.659  0.5757 -0.0571  0.1632
14366TIP3    H164513   1.858   1.599  15.708  0.3299  2.6510  1.6553
14366TIP3    H264514   1.709   1.573  15.710  0.9262 -2.0371 -0.9071
14367TIP3   OH264515   1.895   1.790   3.163 -0.0800 -0.3416  0.7594
14367TIP3    H164516   1.814   1.815   3.118  1.5994  2.4244 -1.1011
14367TIP3    H264517   1.881   1.814   3.254 -0.9596  1.3567  0.2144
14368TIP3   OH264518   6.264   1.164  10.694  0.6403 -1.0991  0.4019
14368TIP3    H164519   6.263   1.254  10.660 -0.9085 -0.5673  1.7258
14368TIP3    H264520   6.312   1.114  10.628  1.4667  0.6787 -0.4062
14369TIP3   OH264521   6.011   0.154   1.412  0.5200 -0.2894 -0.5579
14369TIP3    H164522   5.997   0.194   1.498 -2.5675 -0.0102 -1.0779
14369TIP3    H264523   6.104   0.129   1.412  0.7139  0.0028  2.6897
14370TIP3   OH264524   1.334   2.175   5.367  0.0234  0.1746  0.5074
14370TIP3    H164525   1.342   2.093   5.317 -0.3782 -0.7413  1.9001
14370TIP3    H264526   1.393   2.164   5.441  0.4252  1.4193  0.3920
14371TIP3   OH264527   6.032   5.435   3.578  1.0427  0.3008 -0.0724
14371TIP3    H164528   6.032   5.530   3.574 -1.8976  0.4554  1.0277
14371TIP3    H264529   6.052   5.414   3.670  0.9727 -0.0956 -0.1433
14372TIP3   OH264530   5.079   1.824   2.700 -0.4046 -0.2357 -0.6822
14372TIP3    H164531   5.111   1.913   2.685 -1.3173  0.5401  1.6107
14372TIP3    H264532   5.150   1.781   2.749 -0.1944 -0.6376 -1.3150
14373TIP3   OH264533   1.766   1.668  13.574  0.2535 -0.3178  0.3410
14373TIP3    H164534   1.777   1.722  13.652 -0.3966 -1.2800  1.1223
14373TIP3    H264535   1.707   1.598  13.601 -1.2489  0.1739 -1.4363
14374TIP3   OH264536   6.716   2.676  15.645  0.0217  0.3128  0.3108
14374TIP3    H164537   6.684   2.672  15.735 -1.6927 -0.5914 -0.3040
14374TIP3    H264538   6.806   2.644  15.651  1.3882  3.9641  2.2566
14375TIP3   OH264539   5.879   2.227   1.753  0.3625 -0.4238  0.6239
14375TIP3    H164540   5.959   2.268   1.786  0.8986 -0.3873 -0.6618
14375TIP3    H264541   5.820   2.301   1.738  0.6823 -0.2869  0.0149
14376TIP3   OH264542   5.803   2.595  15.996  0.4488 -0.2135 -0.7613
14376TIP3    H164543   5.716   2.588  15.957  0.4609 -0.5310 -0.7296
14376TIP3    H264544   5.789   2.644  16.077 -0.0034 -1.9340  0.2311
14377TIP3   OH264545   3.472   6.240  12.545  0.0449 -0.0186  0.2403
14377TIP3    H164546   3.499   6.330  12.561  0.1814 -0.2379  1.3055
14377TIP3    H264547   3.531   6.209  12.477 -0.4212  0.8900 -0.6103
14378TIP3   OH264548   5.198   1.630  15.924  0.3306  0.3935  0.0286
14378TIP3    H164549   5.174   1.538  15.940 -0.5092  0.1128 -2.3686
14378TIP3    H264550   5.131   1.661  15.863  1.2723  2.2710 -0.1031
14379TIP3   OH264551   3.542   0.244  16.571  0.1610 -0.0814  0.1041
14379TIP3    H164552   3.611   0.179  16.558  1.2961  0.6766  1.9921
14379TIP3    H264553   3.515   0.268  16.482  2.5695 -0.1358 -0.7023
14380TIP3   OH264554   1.160   6.189   1.104 -0.1613 -0.3046 -0.1948
14380TIP3    H164555   1.205   6.253   1.049  1.3792  0.1335  1.4944
14380TIP3    H264556   1.220   6.116   1.111  0.3070  0.2247  1.9762
14381TIP3   OH264557   4.089   1.684   0.956  0.2063  0.0781 -0.1805
14381TIP3    H164558   4.027   1.660   1.025 -0.0571  1.6271  0.1545
14381TIP3    H264559   4.044   1.662   0.875 -0.2687  0.0103  0.0958
14382TIP3   OH264560   3.753   1.263  13.541  0.5760 -0.2118  0.4761
14382TIP3    H164561   3.828   1.266  13.483 -0.1977  3.6907 -0.6215
14382TIP3    H264562   3.733   1.170  13.550  2.3584 -1.1625 -3.3392
14383TIP3   OH264563   2.622   5.951   4.400 -0.6718 -0.0047  0.2230
14383TIP3    H164564   2.595   6.033   4.358 -1.1896 -0.0987  0.3730
14383TIP3    H264565   2.541   5.905   4.420 -0.3620 -1.4007 -1.4965
14384TIP3   OH264566   1.839   4.429   3.682  0.4489  0.1055 -0.4478
14384TIP3    H164567   1.860   4.441   3.775  0.1713  0.6328 -0.4459
14384TIP3    H264568   1.866   4.511   3.641 -0.8815  0.5179 -0.5694
14385TIP3   OH264569   2.420   4.761   4.880  0.7470  0.0708  0.0998
14385TIP3    H164570   2.361   4.792   4.812  1.5465 -0.0681 -0.6760
14385TIP3    H264571   2.392   4.670   4.896  1.4290 -0.3546 -1.0462
14386TIP3   OH264572   4.474   3.613  14.185 -0.6216 -0.3785 -0.3806
14386TIP3    H164573   4.551   3.636  14.236  0.4241 -2.2102 -1.0534
14386TIP3    H264574   4.400   3.638  14.241  0.4635 -2.0193  1.9515
14387TIP3   OH264575   0.242   2.614  14.800 -0.2786  0.5958  0.5221
14387TIP3    H164576   0.256   2.706  14.826  0.2311  0.6290  0.1499
14387TIP3    H264577   0.322   2.569  14.829 -0.3505  0.3468  0.3324
14388TIP3   OH264578   4.033   2.470   2.326 -0.1491  0.0407 -0.1668
14388TIP3    H164579   4.123   2.439   2.334  0.1759  0.9496 -0.1562
14388TIP3    H264580   4.026   2.499   2.235 -0.5170 -0.2897 -0.2441
14389TIP3   OH264581   5.501   4.606  11.683  0.2020 -0.2305  0.1823
14389TIP3    H164582   5.432   4.655  11.638  1.2150  0.0249 -1.1740
14389TIP3    H264583   5.484   4.514  11.661  1.6426 -0.0166 -2.3024
14390TIP3   OH264584   1.961   4.623  13.595  0.4453 -0.3786 -0.1583
14390TIP3    H164585   1.965   4.673  13.513  1.1587 -0.0587  0.0613
14390TIP3    H264586   1.984   4.534  13.570 -3.5427 -1.3721 -1.0747
14391TIP3   OH264587   3.522   3.588  11.680 -0.5623 -0.3184 -0.0815
14391TIP3    H164588   3.516   3.498  11.711  0.3859 -0.3692 -0.0105
14391TIP3    H264589   3.457   3.636  11.730 -1.4368 -1.0631 -0.4882
14392TIP3   OH264590   2.104   0.230   4.685  0.5744 -0.8817  0.4071
14392TIP3    H164591   2.165   0.292   4.724  0.9623 -0.0932 -1.3938
14392TIP3    H264592   2.018   0.265   4.706  0.7856 -0.0203 -0.1508
14393TIP3   OH264593   2.737   5.141  11.384 -0.2937  0.6049 -0.2963
14393TIP3    H164594   2.828   5.159  11.408 -0.7158  3.0593 -0.2955
14393TIP3    H264595   2.742   5.113  11.292  0.5587 -0.7871  0.1407
14394TIP3   OH264596   1.662   6.307   3.601  0.0325  0.1681  0.5059
14394TIP3    H164597   1.692   6.290   3.690  2.3533 -0.5202 -0.3277
14394TIP3    H264598   1.726   6.367   3.565 -2.0055  2.0974 -0.1278
14395TIP3   OH264599   4.922   1.411  10.368 -0.0876  0.1226  0.2332
14395TIP3    H164600   4.950   1.502  10.358 -1.2690  0.2564 -2.7383
14395TIP3    H264601   4.869   1.411  10.448 -0.9478  2.2678 -0.2815
14396TIP3   OH264602   6.275   6.426  16.453 -0.2904  0.9395  0.3988
14396TIP3    H164603   6.192   6.380  16.440  0.6502 -0.6734 -0.1629
14396TIP3    H264604   6.285   6.431  16.548 -1.1830  1.4735  0.4754
14397TIP3   OH264605   0.409   0.353   6.301  0.1684  0.6383 -0.3506
14397TIP3    H164606   0.411   0.439   6.259  0.1195  0.5007 -0.6325
14397TIP3    H264607   0.410   0.373   6.395 -0.2324  0.9588 -0.4079
14398TIP3   OH264608   0.971   0.970   0.955 -0.0610 -0.1230  0.2213
14398TIP3    H164609   1.065   0.975   0.969 -0.3211  1.1458  1.9454
14398TIP3    H264610   0.949   0.878   0.965  0.9728 -0.4052 -0.0682
14399TIP3   OH264611   5.938   5.281  11.560  0.2048 -0.3834  0.1339
14399TIP3    H164612   5.899   5.357  11.604  0.3263  0.0234 -0.4363
14399TIP3    H264613   5.923   5.298  11.467 -0.1486 -1.2833  0.0206
14400TIP3   OH264614   2.121   6.563  15.523 -0.0068 -0.6766 -0.3613
14400TIP3    H164615   2.049   6.517  15.566 -0.2985 -1.0851 -1.2560
14400TIP3    H264616   2.083   6.645  15.493  0.5234  0.2112  1.2664
14401TIP3   OH264617   6.207   0.624   4.160 -0.4291 -0.0966 -0.2928
14401TIP3    H164618   6.117   0.650   4.142 -0.1783 -0.1799 -1.7295
14401TIP3    H264619   6.249   0.617   4.074  1.3057  1.1690  0.3910
14402TIP3   OH264620   0.041   0.808   2.493 -0.3960  0.8402 -0.3872
14402TIP3    H164621   0.015   0.759   2.415  1.0607 -1.1243  0.2975
14402TIP3    H264622   0.055   0.898   2.461 -0.3815  0.2093 -2.2729
14403TIP3   OH264623   3.777   6.349   1.744 -0.0045  0.0731  0.3752
14403TIP3    H164624   3.827   6.371   1.822  2.5576 -1.5794 -0.6696
14403TIP3    H264625   3.817   6.268   1.712 -2.3043 -0.4106 -1.5218
14404TIP3   OH264626   5.747   1.339  17.198 -0.3480 -0.5089  0.2642
14404TIP3    H164627   5.771   1.415  17.251 -0.9120  0.1372 -0.3959
14404TIP3    H264628   5.657   1.319  17.224 -1.3978  1.1066 -1.8911
14405TIP3   OH264629   6.117   3.309  13.651 -0.3341  0.1405  0.3358
14405TIP3    H164630   6.133   3.266  13.567 -2.0000  0.9847 -0.4671
14405TIP3    H264631   6.188   3.279  13.707  0.2965 -1.1925 -1.0913
14406TIP3   OH264632   2.036   5.907  11.921 -0.0057  0.2408 -0.5971
14406TIP3    H164633   1.997   5.852  11.853 -0.3267 -2.4263  1.5363
14406TIP3    H264634   2.126   5.873  11.930 -0.5670 -0.8282  1.5346
14407TIP3   OH264635   5.086   4.796  13.152 -0.7709  0.3658  0.7518
14407TIP3    H164636   5.094   4.793  13.057 -0.4380  1.5757  0.7248
14407TIP3    H264637   5.162   4.846  13.181 -0.1716 -1.0794  1.7726
14408TIP3   OH264638   1.659   3.122  12.415 -0.0202 -0.3672 -0.5192
14408TIP3    H164639   1.656   3.218  12.414  4.0895  0.0293  1.7732
14408TIP3    H264640   1.674   3.098  12.323  1.7455  1.4783 -0.7908
14409TIP3   OH264641   0.603   0.773   3.638  0.1186 -0.4541  0.1473
14409TIP3    H164642   0.605   0.686   3.599 -0.4152 -0.2311 -0.3871
14409TIP3    H264643   0.692   0.807   3.625 -0.3715  0.1055 -2.0296
14410TIP3   OH264644   6.094   6.171   3.615 -0.8975 -0.2650  0.3368
14410TIP3    H164645   6.035   6.245   3.599  1.6873  1.4398 -2.4290
14410TIP3    H264646   6.148   6.199   3.690 -0.5825  0.2843 -0.0800
14411TIP3   OH264647   1.366   5.134   0.361 -0.0810  0.3389 -0.1779
14411TIP3    H164648   1.396   5.064   0.420 -1.4566  0.4022  0.6458
14411TIP3    H264649   1.398   5.214   0.401  0.2798  0.2826 -0.3492
14412TIP3   OH264650   0.531   0.894  13.562 -0.1793 -0.1224  0.0707
14412TIP3    H164651   0.599   0.836  13.597  1.0757  1.2500  0.0546
14412TIP3    H264652   0.481   0.839  13.502  1.9408 -0.8400 -1.1705
14413TIP3   OH264653   0.562   1.540  12.108  0.0899  0.2602 -0.3883
14413TIP3    H164654   0.588   1.542  12.016  0.4766  2.5814 -0.2910
14413TIP3    H264655   0.469   1.562  12.107 -0.4483 -1.7474 -0.2961
14414TIP3   OH264656   4.708   3.114   1.541 -0.0248 -0.2936 -0.2154
14414TIP3    H164657   4.718   3.208   1.522  0.4952 -0.4831 -0.9175
14414TIP3    H264658   4.618   3.105   1.572 -0.1343  0.4128 -0.3165
14415TIP3   OH264659   5.771   5.537  13.511  0.1457 -0.7834  0.1233
14415TIP3    H164660   5.856   5.568  13.480 -0.2336  0.4482  0.2700
14415TIP3    H264661   5.739   5.607  13.567 -0.0875 -2.1105  1.7033
14416TIP3   OH264662   4.837   2.715   1.019  0.4183 -0.2486  0.0883
14416TIP3    H164663   4.927   2.702   0.990 -0.1539 -1.8364 -1.1265
14416TIP3    H264664   4.806   2.791   0.971  1.0222  0.1500  0.3231
14417TIP3   OH264665   4.622   2.646  12.271  0.4045 -0.2951 -0.3018
14417TIP3    H164666   4.631   2.565  12.220  0.5092 -0.2219 -0.4000
14417TIP3    H264667   4.556   2.696  12.224  0.1169 -0.4535 -0.0724
14418TIP3   OH264668   0.994   3.336   5.317 -0.2777 -0.2684  0.0346
14418TIP3    H164669   0.959   3.258   5.273  0.0119 -1.0510  1.1386
14418TIP3    H264670   0.936   3.407   5.290  0.3527 -0.5525 -2.2004
14419TIP3   OH264671   0.650   2.409   0.600  0.6475  0.3083 -0.2297
14419TIP3    H164672   0.586   2.475   0.627 -0.8025 -0.8496 -0.6608
14419TIP3    H264673   0.657   2.421   0.505 -0.7237 -1.0379 -0.5312
14420TIP3   OH264674   0.967   4.218   0.038  0.5411  0.6394 -0.3318
14420TIP3    H164675   1.049   4.237   0.085 -0.0823  0.9006  0.6762
14420TIP3    H264676   0.901   4.211   0.106 -0.0488 -0.9567 -1.0117
14421TIP3   OH264677   6.575   2.083  16.131 -0.5304  0.4186 -0.4906
14421TIP3    H164678   6.493   2.092  16.082 -2.0937 -1.4330  1.6025
14421TIP3    H264679   6.548   2.076  16.222  2.0963  1.1141  0.4264
14422TIP3   OH264680   0.055   0.627  16.018  0.2340 -0.0083 -0.3734
14422TIP3    H164681  -0.020   0.611  16.076  0.3092  0.5341 -0.1198
14422TIP3    H264682   0.131   0.603  16.071  0.2001 -1.4435 -0.9470
14423TIP3   OH264683   2.515   4.032   3.108 -0.1153 -0.0730 -0.0778
14423TIP3    H164684   2.564   3.972   3.164  0.4197 -0.2693 -0.7400
14423TIP3    H264685   2.489   3.979   3.033 -2.8676 -0.4441  1.0197
14424TIP3   OH264686   4.403   3.720  16.311  0.0888  0.4723  0.0651
14424TIP3    H164687   4.381   3.661  16.383  0.6831  0.3276  0.1318
14424TIP3    H264688   4.497   3.709  16.299  0.1330  1.1068 -0.1926
14425TIP3   OH264689   0.931   4.341  15.999  0.3990 -0.6074 -0.1563
14425TIP3    H164690   0.935   4.431  16.030  0.4551 -1.0260  1.1227
14425TIP3    H264691   0.960   4.345  15.908 -0.4724  0.7747 -0.3896
14426TIP3   OH264692   4.513   3.121   5.754 -0.1398  0.3022  0.3375
14426TIP3    H164693   4.437   3.157   5.799 -1.0519  0.4202 -1.2327
14426TIP3    H264694   4.541   3.190   5.694 -0.7117 -0.8007 -1.2962
14427TIP3   OH264695   0.818   3.906  15.154  0.1432 -0.0926 -0.6247
14427TIP3    H164696   0.763   3.977  15.187 -0.2169  0.2722 -1.9623
14427TIP3    H264697   0.767   3.827  15.171  0.4871 -0.0505  0.7513
14428TIP3   OH264698   4.061   0.876  15.612 -0.0402  0.4377  0.3761
14428TIP3    H164699   4.053   0.972  15.613  0.9902  0.5419  0.2006
14428TIP3    H264700   4.153   0.860  15.633 -0.5646 -0.5936  1.9850
14429TIP3   OH264701   3.202   3.662   4.081  0.7076 -0.0913 -0.2193
14429TIP3    H164702   3.150   3.594   4.125 -2.1813  1.5806 -0.7988
14429TIP3    H264703   3.226   3.622   3.997 -0.0392 -0.7959 -0.1155
14430TIP3   OH264704   2.544   6.349  12.461 -0.0641 -0.5715 -0.0935
14430TIP3    H164705   2.491   6.404  12.518  2.3720  1.3480  0.5064
14430TIP3    H264706   2.496   6.266  12.456 -1.9996  0.3026  2.0792
14431TIP3   OH264707   5.173   0.816   1.954  0.1633  0.3027  0.1407
14431TIP3    H164708   5.232   0.888   1.979 -0.1946  0.3443  0.9188
14431TIP3    H264709   5.186   0.805   1.860  0.9312  0.7451  0.1854
14432TIP3   OH264710   3.592   3.114  11.569 -0.1192 -0.4432 -0.2706
14432TIP3    H164711   3.644   3.087  11.492 -1.2641 -0.2534 -1.1352
14432TIP3    H264712   3.504   3.128  11.534 -0.1944  1.7468  0.6751
14433TIP3   OH264713   3.724   1.876  16.770  0.3065  0.2065  0.0010
14433TIP3    H164714   3.666   1.892  16.696 -0.1045  1.8995  0.6428
14433TIP3    H264715   3.669   1.834  16.836 -0.2452  1.8783  0.6364
14434TIP3   OH264716   5.769   3.752  14.054 -0.1838 -0.3214  0.1856
14434TIP3    H164717   5.762   3.758  14.149  0.7983  1.2299  0.1983
14434TIP3    H264718   5.838   3.815  14.031 -1.5091  0.5576 -1.6716
14435TIP3   OH264719   4.215   6.416  14.669  0.0898  0.9387  0.0104
14435TIP3    H164720   4.297   6.463  14.649  1.1510 -0.2066  1.4481
14435TIP3    H264721   4.193   6.444  14.758  0.0984 -0.3780  0.4443
14436TIP3   OH264722   0.899   2.459   3.600  0.1356  0.3345 -0.0109
14436TIP3    H164723   0.976   2.437   3.547 -1.2189 -1.3047 -1.4207
14436TIP3    H264724   0.878   2.549   3.576  0.3334  0.0533 -1.2810
14437TIP3   OH264725   5.317   2.344  17.173 -0.2902  0.3124 -0.2035
14437TIP3    H164726   5.303   2.410  17.241  1.1161 -0.8314  1.2943
14437TIP3    H264727   5.235   2.344  17.123 -1.1818  1.5927  1.1496
14438TIP3   OH264728   2.353   6.599   5.852  0.0874 -0.4467  0.4786
14438TIP3    H164729   2.442   6.576   5.878  0.2783  0.1747  0.3808
14438TIP3    H264730   2.334   6.542   5.778 -0.3469 -2.0284  1.7301
14439TIP3   OH264731   5.042   4.171   5.573 -0.0375  0.1124  0.3841
14439TIP3    H164732   5.129   4.132   5.560  0.3233  1.0208  0.0412
14439TIP3    H264733   4.983   4.096   5.575  0.7339 -0.5093  0.4814
14440TIP3   OH264734   5.231   5.071  14.707 -0.2041  0.2153  0.2445
14440TIP3    H164735   5.325   5.083  14.701 -0.2889  1.2268  0.7856
14440TIP3    H264736   5.217   4.979  14.683  0.8542  0.1948 -0.3701
14441TIP3   OH264737   5.048   1.215  13.168  0.0648  0.3446  0.3904
14441TIP3    H164738   5.097   1.133  13.175 -0.3265  0.1053  0.4073
14441TIP3    H264739   4.962   1.194  13.205 -0.3175  0.5279 -0.3627
14442TIP3   OH264740   3.314   6.071   3.390 -0.2528  0.4269 -0.6220
14442TIP3    H164741   3.271   6.120   3.459 -0.6661  2.4025 -2.1909
14442TIP3    H264742   3.400   6.112   3.380  0.3081 -0.6531 -0.4857
14443TIP3   OH264743   5.997   5.238   2.499 -0.4983  0.1015  0.1151
14443TIP3    H164744   6.076   5.285   2.471  0.5083 -0.0558  2.4362
14443TIP3    H264745   5.954   5.298   2.560 -2.0418  0.0601 -0.8979
14444TIP3   OH264746   0.135   6.674  15.379  0.0145 -0.3704  0.5112
14444TIP3    H164747   0.203   6.686  15.313  0.0282 -0.8582  0.4325
14444TIP3    H264748   0.122   6.579  15.383 -0.0589 -0.3395  1.1330
14445TIP3   OH264749   5.622   2.753  13.752  0.0336  0.0495 -0.2903
14445TIP3    H164750   5.663   2.839  13.740 -0.0929  0.1629  0.0850
14445TIP3    H264751   5.583   2.757  13.839 -2.1002  0.5157 -1.1828
14446TIP3   OH264752   4.636   0.726   1.385 -0.4116  0.8915  0.3142
14446TIP3    H164753   4.689   0.666   1.332  0.9302  1.4845  0.9482
14446TIP3    H264754   4.568   0.670   1.422  0.1995 -0.0528  0.0588
14447TIP3   OH264755   2.525   1.863  11.140  0.1438  0.4044  0.0330
14447TIP3    H164756   2.444   1.828  11.174  0.2950 -0.1029 -0.1196
14447TIP3    H264757   2.544   1.809  11.063  1.6866 -0.8484  1.2251
14448TIP3   OH264758   1.589   4.550  16.824  0.4292  0.2225  0.8241
14448TIP3    H164759   1.501   4.522  16.803  0.3508 -0.6231  2.1420
14448TIP3    H264760   1.581   4.645  16.839 -0.5759 -0.0704  2.3613
14449TIP3   OH264761   3.153   1.798  12.225  0.2315 -0.1591  0.1035
14449TIP3    H164762   3.090   1.839  12.284 -0.4167 -0.2002 -0.5475
14449TIP3    H264763   3.108   1.794  12.141  1.4813  0.7923 -0.6507
14450TIP3   OH264764   1.322   0.527   4.156 -0.2796  0.0217  0.1747
14450TIP3    H164765   1.384   0.525   4.228  1.3315  1.1077 -1.1076
14450TIP3    H264766   1.319   0.436   4.124  2.8831  0.3669 -1.4702
14451TIP3   OH264767   4.291   3.584   5.061  0.6166  0.0886  0.5888
14451TIP3    H164768   4.262   3.661   5.013 -1.6226  0.5029  2.4229
14451TIP3    H264769   4.215   3.525   5.059  1.2797 -0.8367  1.5906
14452TIP3   OH264770   4.279   3.182   0.973 -0.1783  0.4864 -0.3113
14452TIP3    H164771   4.263   3.231   0.893 -0.9553 -0.5087 -0.7834
14452TIP3    H264772   4.322   3.101   0.943 -0.2045  0.2390  0.3062
14453TIP3   OH264773   3.582   5.095  13.148  0.4623 -0.4931 -0.2899
14453TIP3    H164774   3.663   5.143  13.131  1.0438 -2.1909 -2.8879
14453TIP3    H264775   3.521   5.127  13.081 -0.8824  0.3265  1.2585
14454TIP3   OH264776   1.188   2.677  11.206 -0.2262 -0.0888  0.0787
14454TIP3    H164777   1.246   2.714  11.140 -1.3029  0.9313 -0.3366
14454TIP3    H264778   1.112   2.646  11.157 -0.2898 -0.8757  0.6664
14455TIP3   OH264779   4.890   3.968  15.710  0.3898 -0.3047  0.3899
14455TIP3    H164780   4.831   4.026  15.662 -0.5951 -0.4893  1.3327
14455TIP3    H264781   4.937   4.026  15.770 -0.9791 -0.5086  1.7095
14456TIP3   OH264782   5.625   3.813  16.350  0.3266 -0.5033 -0.2110
14456TIP3    H164783   5.547   3.821  16.294 -0.2082 -1.5365  0.3464
14456TIP3    H264784   5.623   3.722  16.379 -0.2568  0.3625  2.7067
14457TIP3   OH264785   5.484   5.547   5.327  0.1862 -0.0807  0.1054
14457TIP3    H164786   5.545   5.611   5.363  0.0317  0.5534 -0.7299
14457TIP3    H264787   5.533   5.465   5.324  0.7883  0.2799  0.0298
14458TIP3   OH264788   0.507   1.215   4.620  0.0036  0.0871 -0.0914
14458TIP3    H164789   0.444   1.217   4.691  0.1611  1.5089  0.0541
14458TIP3    H264790   0.592   1.227   4.662  0.2365 -0.4558 -0.3994
14459TIP3   OH264791   0.390   0.272   5.967  0.0922  0.4465 -0.3354
14459TIP3    H164792   0.311   0.224   5.992 -0.1297  0.3322 -1.2392
14459TIP3    H264793   0.366   0.364   5.974  0.8032  0.5145  2.3479
14460TIP3   OH264794   2.292   4.238  13.003  0.1944  0.1207  0.2525
14460TIP3    H164795   2.291   4.174  13.073 -0.2677 -0.4884 -0.2953
14460TIP3    H264796   2.372   4.288  13.017  0.3454 -0.3000  0.9326
14461TIP3   OH264797   3.845   2.530   3.761  0.0352 -0.1526  0.4372
14461TIP3    H164798   3.759   2.567   3.743  0.6405  2.0892  1.7725
14461TIP3    H264799   3.905   2.580   3.705  0.6130 -0.9546  0.3167
14462TIP3   OH264800   3.112   6.213   2.860 -0.3939 -0.3171  0.0657
14462TIP3    H164801   3.042   6.159   2.898  0.2101 -1.6186 -0.5814
14462TIP3    H264802   3.103   6.298   2.902 -0.9828 -1.1201  1.6338
14463TIP3   OH264803   6.589   6.453   4.150  0.3846  0.2445  0.0735
14463TIP3    H164804   6.619   6.533   4.108  0.9860 -0.2793 -0.5163
14463TIP3    H264805   6.610   6.466   4.243 -1.2394  1.5349  0.3245
14464TIP3   OH264806   2.294   2.367   6.161  0.1400  0.3993 -0.0084
14464TIP3    H164807   2.212   2.362   6.211  0.0979  1.6117  0.0564
14464TIP3    H264808   2.315   2.275   6.142  0.2569 -0.1672  2.4011
14465TIP3   OH264809   3.590   4.736   4.872 -0.0978 -0.6255 -0.5157
14465TIP3    H164810   3.558   4.645   4.873 -1.1618 -0.3014  2.0945
14465TIP3    H264811   3.516   4.788   4.903  1.3004  0.8011  0.6087
14466TIP3   OH264812   2.729   5.073   3.047 -0.1819 -0.1179  0.1625
14466TIP3    H164813   2.668   5.114   3.109  1.3819  1.7716  0.5469
14466TIP3    H264814   2.777   5.146   3.009  0.3182 -1.4009 -1.8014
14467TIP3   OH264815   0.241   3.718   3.209 -1.0358  0.1998  0.1655
14467TIP3    H164816   0.259   3.812   3.214 -1.0870  0.2191  0.0066
14467TIP3    H264817   0.323   3.676   3.234 -1.3958  0.2781  1.5633
14468TIP3   OH264818   3.109   1.870   6.445  0.7561  0.2357  0.2202
14468TIP3    H164819   3.040   1.806   6.462  0.8915 -0.3763 -1.3320
14468TIP3    H264820   3.188   1.817   6.433  1.0677  0.7723 -0.1033
14469TIP3   OH264821   2.171   0.329  16.735  0.0396 -0.3615 -0.2928
14469TIP3    H164822   2.097   0.284  16.695  0.4800 -0.1631 -1.3636
14469TIP3    H264823   2.248   0.286  16.699  0.4606  0.7737 -0.7887
14470TIP3   OH264824   0.435   6.432   2.353  0.2397  0.1751  0.0107
14470TIP3    H164825   0.512   6.465   2.399  0.8988 -1.2244 -0.0302
14470TIP3    H264826   0.425   6.342   2.385 -0.8150  0.0208 -0.6977
14471TIP3   OH264827   0.536   1.758   4.900 -0.2285 -0.1466  0.0556
14471TIP3    H164828   0.620   1.738   4.858 -0.8976  0.4762 -1.6551
14471TIP3    H264829   0.473   1.699   4.858 -1.0421  0.9500 -0.3126
14472TIP3   OH264830   5.928   5.245  12.579 -0.0059  0.3667  0.3931
14472TIP3    H164831   5.902   5.276  12.492  1.6760 -2.0250 -1.1041
14472TIP3    H264832   5.973   5.320  12.619 -0.4576  1.3906 -0.9353
14473TIP3   OH264833   0.498   1.208  15.856  0.0664  0.0310  0.1592
14473TIP3    H164834   0.415   1.173  15.823  0.1210 -1.3073  1.3736
14473TIP3    H264835   0.565   1.153  15.817  0.6239  2.2410 -2.3299
14474TIP3   OH264836   3.775   6.733   4.587 -0.1655 -0.4286  0.3392
14474TIP3    H164837   3.699   6.676   4.592 -0.3247 -0.1599  1.2240
14474TIP3    H264838   3.762   6.797   4.657  0.3782  0.2359 -0.1470
14475TIP3   OH264839   5.303   1.753   1.934 -0.2731  1.0309  0.3971
14475TIP3    H164840   5.377   1.767   1.993  1.4182 -1.8694 -0.8342
14475TIP3    H264841   5.255   1.680   1.974 -0.4076  0.5461 -0.6264
14476TIP3   OH264842   1.580   1.612  14.824 -0.4140 -0.2674 -0.1892
14476TIP3    H164843   1.589   1.702  14.793  0.9293 -0.3924 -0.2178
14476TIP3    H264844   1.575   1.620  14.919  0.5741 -0.2130 -0.1366
14477TIP3   OH264845   4.943   0.207   1.279 -0.5325  0.2282  0.6904
14477TIP3    H164846   5.014   0.177   1.336 -0.0968  0.4622  0.2765
14477TIP3    H264847   4.975   0.290   1.243 -0.4311 -0.3348 -0.5711
14478TIP3   OH264848   5.729   0.966   3.751 -0.5239 -0.0575  0.2672
14478TIP3    H164849   5.822   0.983   3.734 -0.6123 -0.7410 -0.9821
14478TIP3    H264850   5.703   1.036   3.812  0.7489  0.2583  0.4809
14479TIP3   OH264851   4.420   5.781   1.767  0.6208  0.3546  0.6189
14479TIP3    H164852   4.411   5.862   1.818 -1.1306  0.7324 -0.2208
14479TIP3    H264853   4.481   5.803   1.697 -0.4367  1.2314 -0.0632
14480TIP3   OH264854   5.749   3.912   2.292  0.0970 -0.2410  0.4736
14480TIP3    H164855   5.756   3.820   2.317 -1.0153 -0.6892 -0.7262
14480TIP3    H264856   5.826   3.927   2.237  0.9353 -0.0899  1.6585
14481TIP3   OH264857   6.267   6.160  13.765  0.3785  0.2554  0.0552
14481TIP3    H164858   6.261   6.079  13.816 -0.5144  0.3277  0.0937
14481TIP3    H264859   6.211   6.144  13.689 -0.5467  1.1471  0.5187
14482TIP3   OH264860   3.875   0.875  14.377 -0.2202 -0.1034  0.0984
14482TIP3    H164861   3.792   0.873  14.426 -0.6773 -2.3425 -0.6631
14482TIP3    H264862   3.934   0.818  14.427  0.1365 -0.3255 -0.5582
14483TIP3   OH264863   6.735   0.275  11.573  0.0906  0.3603  0.3361
14483TIP3    H164864   6.647   0.295  11.540  1.0067  1.0189 -1.8938
14483TIP3    H264865   6.722   0.202  11.633 -2.0561  0.8619  0.5540
14484TIP3   OH264866   3.279   2.015  13.998 -0.0392 -0.5038 -0.4058
14484TIP3    H164867   3.210   2.082  14.003 -0.9431 -1.3804 -0.6901
14484TIP3    H264868   3.233   1.933  14.015  1.2782 -0.9451  1.2786
14485TIP3   OH264869   1.650   3.103   2.368 -0.1113 -0.0486 -0.1578
14485TIP3    H164870   1.711   3.078   2.437 -0.0179 -0.5596 -0.4237
14485TIP3    H264871   1.564   3.099   2.409 -0.6274 -4.7674 -1.1291
14486TIP3   OH264872   3.067   0.269  14.726  0.1411 -0.3360  0.3990
14486TIP3    H164873   3.152   0.226  14.729  0.7062  0.6145 -0.8528
14486TIP3    H264874   3.069   0.333  14.798  1.6010  1.5578 -1.2214
14487TIP3   OH264875   4.890   3.072  11.522  0.6244  0.3322 -0.8327
14487TIP3    H164876   4.899   3.095  11.429 -0.4187  0.6300 -0.8798
14487TIP3    H264877   4.798   3.090  11.541  0.3107 -1.6352 -0.2832
14488TIP3   OH264878   2.801   1.407  15.193  0.0282  0.4306 -0.2872
14488TIP3    H164879   2.744   1.355  15.250  0.6548  1.6766  1.5578
14488TIP3    H264880   2.742   1.468  15.149 -0.4106 -0.2934 -0.7337
14489TIP3   OH264881   5.977   2.315  11.887 -0.1910 -0.4885  0.1491
14489TIP3    H164882   6.055   2.285  11.934 -0.1435  1.4122  1.4243
14489TIP3    H264883   5.999   2.404  11.859 -1.3110 -0.5276 -0.9597
14490TIP3   OH264884   1.508   3.282  16.676  0.5869 -0.4557 -0.3679
14490TIP3    H164885   1.539   3.320  16.758  1.9234  0.2245 -1.1654
14490TIP3    H264886   1.538   3.191  16.678  1.6477 -0.1288 -0.5905
14491TIP3   OH264887   0.244   6.566   2.242  0.1249 -0.6916  0.0855
14491TIP3    H164888   0.208   6.594   2.326 -1.1091 -1.2322 -0.2395
14491TIP3    H264889   0.310   6.501   2.265 -1.6496 -2.4150  0.6203
14492TIP3   OH264890   3.485   5.212   3.209  0.0290 -0.2122  0.0876
14492TIP3    H164891   3.439   5.134   3.178  1.3273 -1.2870  0.7581
14492TIP3    H264892   3.440   5.236   3.289 -0.1175 -0.5436  0.1070
14493TIP3   OH264893   2.247   4.789  12.209 -0.2165  0.1792 -0.1197
14493TIP3    H164894   2.258   4.880  12.234 -1.1502  0.4648 -0.6986
14493TIP3    H264895   2.227   4.744  12.291  0.3175  0.4785  0.1762
14494TIP3   OH264896   4.347   6.012  13.464  0.2418  0.2023  0.2666
14494TIP3    H164897   4.395   5.938  13.428  2.3225  0.9668  1.3333
14494TIP3    H264898   4.260   6.006  13.423  1.6351 -0.3941 -2.9355
14495TIP3   OH264899   2.064   5.498   6.312  0.4799 -0.0069  0.4208
14495TIP3    H164900   2.132   5.482   6.378  0.1944  1.9720  1.2763
14495TIP3    H264901   2.112   5.510   6.230  1.3121  2.1592  1.1518
14496TIP3   OH264902   2.423   2.248   0.604  0.7152  0.0816  0.4527
14496TIP3    H164903   2.388   2.232   0.516  1.0513 -1.8550  0.6215
14496TIP3    H264904   2.371   2.192   0.662  2.8117 -1.5196  0.9424
14497TIP3   OH264905   0.708   5.476  16.405 -0.2227  0.3552 -0.2258
14497TIP3    H164906   0.674   5.558  16.440 -3.0620 -0.6725 -0.3313
14497TIP3    H264907   0.763   5.441  16.475 -1.0103  1.1336  0.8114
14498TIP3   OH264908   5.513   1.178  16.454 -0.4367 -0.4086  0.2110
14498TIP3    H164909   5.486   1.264  16.422 -1.0493  0.0246  1.7877
14498TIP3    H264910   5.432   1.136  16.482 -0.1268 -1.4527 -0.4237
14499TIP3   OH264911   1.417   1.590  15.791  0.3278  0.1808  0.0822
14499TIP3    H164912   1.354   1.539  15.741  0.7185 -0.4291  0.2126
14499TIP3    H264913   1.441   1.662  15.733  0.4119 -0.2482 -0.4162
14500TIP3   OH264914   5.392   5.820  16.462  0.0804  0.0001  0.3303
14500TIP3    H164915   5.400   5.907  16.501  1.5056 -0.0935  0.2963
14500TIP3    H264916   5.352   5.767  16.531  1.8335  0.0303  1.4509
14501TIP3   OH264917   1.357   6.324  13.767 -0.0422  0.1724 -0.6930
14501TIP3    H164918   1.308   6.407  13.773  0.0078  0.1580  0.0560
14501TIP3    H264919   1.402   6.317  13.851 -1.7875 -1.6851  0.1843
14502TIP3   OH264920   2.352   5.331  16.720  0.4568  0.5562  0.2378
14502TIP3    H164921   2.323   5.246  16.753  1.2134 -0.0224 -0.5513
14502TIP3    H264922   2.292   5.350  16.648  1.5969 -0.3650 -1.0112
14503TIP3   OH264923   6.516   4.522  15.007  0.8321 -0.2570  0.1634
14503TIP3    H164924   6.567   4.495  15.083  0.9439 -2.2806 -0.5623
14503TIP3    H264925   6.431   4.548  15.043  0.1988 -2.9962  0.9176
14504TIP3   OH264926   5.999   0.303   0.596  0.4688  0.2125 -0.2617
14504TIP3    H164927   6.074   0.244   0.588  1.7571  1.2877  2.6061
14504TIP3    H264928   5.993   0.322   0.689 -3.9548 -0.4610 -0.1909
14505TIP3   OH264929   6.202   3.774   5.699 -0.5101  0.3205 -0.2019
14505TIP3    H164930   6.291   3.767   5.664 -0.9775 -0.6511 -1.2555
14505TIP3    H264931   6.191   3.866   5.720  0.5695  0.5356 -0.5326
14506TIP3   OH264932   6.770   2.049   2.853  0.1707  0.7030 -0.0878
14506TIP3    H164933   6.804   2.025   2.767  0.6261 -1.8664  0.7029
14506TIP3    H264934   6.680   2.016   2.853  1.1042 -2.2052  1.3653
14507TIP3   OH264935   6.273   2.620  13.707 -0.2667 -0.2711 -0.2491
14507TIP3    H164936   6.297   2.531  13.733  1.5786  0.1931 -0.2145
14507TIP3    H264937   6.354   2.670  13.715 -0.9188  1.0992 -1.6594
14508TIP3   OH264938   6.425   6.549  15.329 -0.2167  0.0516  0.3748
14508TIP3    H164939   6.458   6.616  15.388 -2.8634  1.3601  0.5174
14508TIP3    H264940   6.395   6.597  15.252 -1.2750 -1.0373  0.0637
14509TIP3   OH264941   2.572   6.449   5.923 -0.3386  0.2596  0.5542
14509TIP3    H164942   2.662   6.448   5.955 -0.1599  0.4540  0.0672
14509TIP3    H264943   2.579   6.428   5.830 -0.8803 -0.6358  0.7006
14510TIP3   OH264944   1.205   5.240  11.319 -0.0219 -0.0757 -0.4055
14510TIP3    H164945   1.126   5.230  11.267  0.4263 -0.2311 -1.0797
14510TIP3    H264946   1.252   5.157  11.308 -0.4232 -0.5322  1.1392
14511TIP3   OH264947   5.078   0.213  12.310  0.1179 -0.2870  0.0825
14511TIP3    H164948   5.030   0.231  12.391 -0.6437 -0.8831 -0.2240
14511TIP3    H264949   5.015   0.167  12.254  0.5416  0.3631 -0.9639
14512TIP3   OH264950   1.637   5.847   3.826  0.0050  0.3467 -0.2167
14512TIP3    H164951   1.716   5.894   3.850 -1.3363  3.7219 -1.8234
14512TIP3    H264952   1.584   5.847   3.906  0.3188  0.9339 -0.0045
14513TIP3   OH264953   2.032   4.219  14.159 -0.5987 -1.0839 -0.5714
14513TIP3    H164954   1.969   4.190  14.226 -1.2202 -0.5927 -0.9269
14513TIP3    H264955   1.978   4.240  14.083 -0.0265 -0.4427 -0.8147
14514TIP3   OH264956   2.969   1.326  15.523  0.6666 -0.0894 -0.3848
14514TIP3    H164957   3.050   1.374  15.505  0.4689 -0.0697 -1.3098
14514TIP3    H264958   2.960   1.329  15.618  1.9583 -0.4371 -0.2284
14515TIP3   OH264959   2.407   2.384  17.224  0.1802 -0.2676 -0.6744
14515TIP3    H164960   2.431   2.422  17.308 -1.6657 -0.3996 -0.0374
14515TIP3    H264961   2.461   2.430  17.160  2.4395 -0.9313  0.6376
14516TIP3   OH264962   0.873   2.486  12.480  0.1603  0.5629  0.2154
14516TIP3    H164963   0.928   2.460  12.406 -1.4938  1.2056 -1.2935
14516TIP3    H264964   0.864   2.581  12.472  0.3854  0.7302  1.5845
14517TIP3   OH264965   1.320   6.471   1.327  0.4243  0.5814 -0.4626
14517TIP3    H164966   1.276   6.553   1.306  0.1593  0.3339 -0.8757
14517TIP3    H264967   1.344   6.434   1.242 -0.6497 -0.4264 -0.3404
14518TIP3   OH264968   4.601   0.979  11.857 -1.1830 -0.0741 -0.1741
14518TIP3    H164969   4.695   0.990  11.848 -1.0183 -2.0215 -1.7000
14518TIP3    H264970   4.567   1.067  11.875  0.7660  0.9201 -1.1056
14519TIP3   OH264971   3.312   2.338   2.558  0.5674  0.4774  0.3579
14519TIP3    H164972   3.234   2.382   2.524  0.0405  0.4101  1.4196
14519TIP3    H264973   3.317   2.367   2.649  1.5069  0.0873  0.4406
14520TIP3   OH264974   3.408   5.564   3.300 -0.8034 -0.2408 -0.2272
14520TIP3    H164975   3.314   5.547   3.287 -1.0800  1.1538 -0.2744
14520TIP3    H264976   3.410   5.643   3.354  0.3602 -1.2429  1.2855
14521TIP3   OH264977   5.726   3.526  13.884 -0.5528  0.6062  0.5261
14521TIP3    H164978   5.709   3.617  13.908 -0.2244  0.4428  1.4243
14521TIP3    H264979   5.803   3.501  13.936  1.0010  0.5931 -1.6392
14522TIP3   OH264980   1.407   4.684  17.196 -0.2545  0.3802 -0.2087
14522TIP3    H164981   1.376   4.733  17.119  1.4848  0.3482 -0.9912
14522TIP3    H264982   1.434   4.752  17.258  2.5030  0.5679 -1.4388
14523TIP3   OH264983   1.038   6.331  16.169 -0.1839  0.1114 -0.8539
14523TIP3    H164984   1.018   6.293  16.254 -1.6675 -1.6018 -1.8871
14523TIP3    H264985   1.019   6.425  16.179 -1.7998 -0.2939  0.3091
14524TIP3   OH264986   0.023   5.420  10.815  0.3265  0.3157 -0.5802
14524TIP3    H164987   0.065   5.355  10.872 -0.3974  1.4534  1.3670
14524TIP3    H264988  -0.030   5.369  10.755  0.8006 -0.9514  0.0483
14525TIP3   OH264989   1.640   0.405   3.939  0.3183  0.9297  0.6255
14525TIP3    H164990   1.623   0.492   3.977 -0.4810  1.3443 -0.6251
14525TIP3    H264991   1.558   0.381   3.897  1.8054  1.6824 -3.1061
14526TIP3   OH264992   2.986   6.645  13.631 -0.1470 -0.0920  0.3350
14526TIP3    H164993   3.080   6.641  13.614 -0.0058  1.8712  0.4152
14526TIP3    H264994   2.945   6.625  13.547  0.3491 -0.3390  0.1484
14527TIP3   OH264995   3.173   0.221   3.310  0.3222  0.0934 -0.2643
14527TIP3    H164996   3.111   0.292   3.292  0.6342 -0.2650 -3.4734
14527TIP3    H264997   3.223   0.251   3.386 -0.6503  2.5549 -0.5063
14528TIP3   OH264998   6.195   2.343  16.878 -0.2461 -0.0939  0.1932
14528TIP3    H164999   6.185   2.423  16.930  0.8061 -0.6734  1.3319
14528TIP3    H265000   6.278   2.355  16.832 -1.3025  0.5403 -1.6521
14529TIP3   OH265001   3.341   0.166   0.474  0.4661 -0.1347  0.4951
14529TIP3    H165002   3.266   0.115   0.504  0.4078 -1.5315 -1.7778
14529TIP3    H265003   3.414   0.104   0.476  0.8045  0.2107 -0.5178
14530TIP3   OH265004   3.646   3.655  16.912  0.3110 -0.0482  0.3635
14530TIP3    H165005   3.585   3.623  16.979 -0.7919  0.0211 -0.5812
14530TIP3    H265006   3.720   3.594  16.917  0.7749  0.5999  2.3849
14531TIP3   OH265007   3.778   2.553  16.217 -0.9351 -0.2989  0.4021
14531TIP3    H165008   3.684   2.549  16.237 -0.7606 -1.8415  1.0282
14531TIP3    H265009   3.820   2.560  16.302 -0.4861  2.0139  0.0683
14532TIP3   OH265010   4.564   1.779   2.231  0.0110  0.6462 -0.2350
14532TIP3    H165011   4.504   1.852   2.237 -1.2860 -0.3107 -0.9980
14532TIP3    H265012   4.556   1.748   2.140  0.8474 -0.1620 -0.0536
14533TIP3   OH265013   5.193   0.076   3.559 -0.3252 -0.3292  0.1208
14533TIP3    H165014   5.213   0.014   3.489 -1.8326  0.5676 -1.1619
14533TIP3    H265015   5.206   0.162   3.519 -0.5777  0.2013  1.1491
14534TIP3   OH265016   0.457   6.035   5.464 -0.1905 -0.3902  0.3104
14534TIP3    H165017   0.402   6.068   5.535 -1.1825 -0.8716 -0.2268
14534TIP3    H265018   0.464   6.109   5.404  0.7241  0.0480  0.9277
14535TIP3   OH265019   3.535   4.417   5.988 -0.2435 -0.6387 -0.3425
14535TIP3    H165020   3.461   4.410   6.048  0.1693 -0.1797  0.2361
14535TIP3    H265021   3.530   4.339   5.934 -0.2283 -1.4158  0.7479
14536TIP3   OH265022   5.332   2.377   5.502  0.2956 -0.0043 -0.0844
14536TIP3    H165023   5.312   2.469   5.520 -1.0020  0.1310 -1.9167
14536TIP3    H265024   5.265   2.329   5.551 -0.0401  0.1146 -0.4205
14537TIP3   OH265025   3.799   3.766  11.450  0.1837 -0.0674 -0.4066
14537TIP3    H165026   3.864   3.836  11.457 -0.1911  0.2829 -0.3557
14537TIP3    H265027   3.752   3.785  11.369 -1.7885  1.3876  0.9828
14538TIP3   OH265028   1.471   1.317   4.689  0.4142  0.2448 -0.1680
14538TIP3    H165029   1.536   1.325   4.620  0.5192  2.7310  0.1366
14538TIP3    H265030   1.517   1.342   4.769 -0.4737  0.3304  0.3316
14539TIP3   OH265031   5.754   1.918   1.679 -0.1810 -0.1708 -0.1526
14539TIP3    H165032   5.718   1.970   1.751 -0.7811 -0.3976 -0.2808
14539TIP3    H265033   5.849   1.927   1.688 -0.2648  0.8259 -0.0859
14540TIP3   OH265034   1.086   5.689  14.987 -0.8335  0.0961 -0.0133
14540TIP3    H165035   1.177   5.660  14.984 -0.2437  1.4780  1.9392
14540TIP3    H265036   1.044   5.631  15.051 -0.6815  0.9267  0.8665
14541TIP3   OH265037   2.157   0.837   0.957 -0.0028 -0.8138 -0.0674
14541TIP3    H165038   2.115   0.792   0.883 -1.2188  0.8562 -0.4534
14541TIP3    H265039   2.116   0.799   1.034 -0.3945 -0.9896 -0.3555
14542TIP3   OH265040   5.371   5.477   2.409  0.4288 -0.4097  0.8582
14542TIP3    H165041   5.312   5.438   2.473  0.6335 -1.2643  0.5436
14542TIP3    H265042   5.396   5.561   2.447 -0.6681 -0.2097  1.1758
14543TIP3   OH265043   2.028   2.912  13.196  0.3820 -0.2338 -0.0759
14543TIP3    H165044   2.000   2.885  13.283  2.3470 -1.6155  0.2053
14543TIP3    H265045   2.103   2.855  13.176 -0.5395 -0.6241 -3.0538
14544TIP3   OH265046   2.602   3.947  17.188  0.3967  0.0269  0.0445
14544TIP3    H165047   2.618   3.886  17.260  0.6665  1.3346  1.1258
14544TIP3    H265048   2.535   3.904  17.134 -1.1058 -0.2601  2.0275
14545TIP3   OH265049   6.300   1.363   1.960 -0.2280  0.4050  0.4903
14545TIP3    H165050   6.334   1.423   1.893 -0.3246  0.3835  0.4214
14545TIP3    H265051   6.378   1.332   2.006 -0.1653  0.4644  0.4248
14546TIP3   OH265052   4.040   3.009  13.593 -0.5394 -0.0689  0.2594
14546TIP3    H165053   3.995   2.936  13.636  1.1072 -1.2794  0.0296
14546TIP3    H265054   4.110   2.967  13.541 -1.1379  1.4805 -1.9589
14547TIP3   OH265055   5.703   0.145  16.324 -0.6505 -0.2548  0.3129
14547TIP3    H165056   5.730   0.053  16.330 -2.6909 -0.8689  0.5702
14547TIP3    H265057   5.786   0.194  16.329  0.5406 -2.0689 -0.4192
14548TIP3   OH265058   1.016   6.780   3.100  0.6457 -0.4775  0.0860
14548TIP3    H165059   1.037   6.715   3.033 -0.7267 -1.9962  1.0482
14548TIP3    H265060   0.944   6.740   3.150  1.0702  0.9460  1.9310
14549TIP3   OH265061   6.360   0.149  14.497 -0.6661 -0.0961  0.2402
14549TIP3    H165062   6.394   0.082  14.437  1.3792  2.8075 -2.2082
14549TIP3    H265063   6.265   0.147  14.485 -0.4573 -0.9810 -1.6255
14550TIP3   OH265064   3.451   0.453  13.784  0.0311 -0.8971 -0.6478
14550TIP3    H165065   3.522   0.515  13.799  0.9471 -2.3243  1.3831
14550TIP3    H265066   3.480   0.401  13.708  0.8099 -0.9539 -0.3229
14551TIP3   OH265067   6.169   3.968  16.486 -0.3428  0.1432  0.3711
14551TIP3    H165068   6.090   3.917  16.506  0.4116 -1.0070  0.5469
14551TIP3    H265069   6.225   3.954  16.562  0.3543  0.2737 -0.1144
14552TIP3   OH265070   1.265   6.151  16.109 -0.4311 -0.4411  0.2812
14552TIP3    H165071   1.184   6.203  16.113 -0.2414 -0.1100 -0.0884
14552TIP3    H265072   1.290   6.139  16.200 -1.1964 -1.0166  0.4221
14553TIP3   OH265073   4.529   4.985   1.608 -0.3959  0.6508  0.0394
14553TIP3    H165074   4.613   4.975   1.653 -0.0468 -0.3562 -0.7926
14553TIP3    H265075   4.552   5.015   1.520 -0.9567  0.9709 -0.0027
14554TIP3   OH265076   2.983   4.578   1.112 -0.2596 -0.3031  0.3930
14554TIP3    H165077   3.054   4.636   1.141 -0.1973  0.3301 -0.9518
14554TIP3    H265078   2.935   4.557   1.192  1.7472 -1.1781  1.4254
14555TIP3   OH265079   1.071   6.116  16.850 -0.1525 -0.2261  0.1383
14555TIP3    H165080   1.133   6.165  16.904 -1.3387 -0.1608  1.4970
14555TIP3    H265081   0.987   6.158  16.866 -0.4807  0.1798 -2.2756
14556TIP3   OH265082   6.330   5.002   2.628 -0.1845  0.2186  0.5404
14556TIP3    H165083   6.277   5.066   2.581 -0.5399 -0.9459 -0.7255
14556TIP3    H265084   6.286   4.918   2.612  1.4022 -0.6240  0.3942
14557TIP3   OH265085   3.665   2.663   3.156  0.1172  0.3062  0.0252
14557TIP3    H165086   3.584   2.616   3.173  0.6625 -1.3923 -1.6235
14557TIP3    H265087   3.668   2.732   3.222 -1.8356 -0.6131  1.1599
14558TIP3   OH265088   5.366   5.431  15.701  0.3516 -0.2323 -0.1331
14558TIP3    H165089   5.292   5.488  15.679  0.7432 -0.2072 -1.4831
14558TIP3    H265090   5.405   5.470  15.779 -0.8944 -0.0996  0.4532
14559TIP3   OH265091   1.012   4.858  13.285 -0.2673 -0.3463 -0.1985
14559TIP3    H165092   0.990   4.921  13.217  0.2114 -0.1432 -0.1670
14559TIP3    H265093   1.046   4.911  13.357 -0.3054 -0.5992  0.0086
14560TIP3   OH265094   2.269   5.254  15.520  0.2109  0.5261  0.4976
14560TIP3    H165095   2.175   5.239  15.512  0.6280 -1.3896 -3.2643
14560TIP3    H265096   2.292   5.223  15.607 -2.4469 -0.2390  1.0075
14561TIP3   OH265097   2.809   2.818   3.940  0.4218  0.0448 -0.0653
14561TIP3    H165098   2.760   2.743   3.909  0.5227  0.4828 -1.3477
14561TIP3    H265099   2.868   2.783   4.007 -1.5787 -0.4909  1.5003
14562TIP3   OH265100   5.149   4.552  14.032  0.3087  0.2284 -0.4029
14562TIP3    H165101   5.117   4.553  13.942 -0.0245 -0.1878 -0.2940
14562TIP3    H265102   5.183   4.463  14.045  0.7360  0.4110 -0.2475
14563TIP3   OH265103   0.459   1.155   3.018 -0.0834  0.3415  0.5565
14563TIP3    H165104   0.535   1.138   2.962  0.2709  0.7176  0.9172
14563TIP3    H265105   0.407   1.076   3.012  0.2113  0.1775  0.1018
14564TIP3   OH265106   5.174   4.538  13.624 -0.1574  0.1312  0.2781
14564TIP3    H165107   5.186   4.464  13.684 -1.5699  0.9670  1.6719
14564TIP3    H265108   5.100   4.513  13.569 -1.5427  1.0040  1.6671
14565TIP3   OH265109   2.043   5.841  16.427 -0.2409  0.2698 -0.3646
14565TIP3    H165110   2.045   5.937  16.418  1.7426  0.3895  0.5868
14565TIP3    H265111   2.085   5.809  16.347 -2.9945 -0.0177 -1.8172
14566TIP3   OH265112   1.996   5.783  10.955  0.1877  0.3913  0.6167
14566TIP3    H165113   1.907   5.780  10.920  0.0957  1.0888  0.7775
14566TIP3    H265114   1.991   5.844  11.029  0.5058 -0.6029  1.4807
14567TIP3   OH265115   6.385   1.795  16.922 -0.4281  0.2347 -0.1358
14567TIP3    H165116   6.373   1.768  17.013  2.0178 -2.7888 -0.5198
14567TIP3    H265117   6.467   1.844  16.922  0.1372 -0.6793 -0.8209
14568TIP3   OH265118   5.290   5.476  16.056  0.2771  0.0140 -0.0255
14568TIP3    H165119   5.335   5.406  16.008 -0.2930 -1.4648  1.4718
14568TIP3    H265120   5.333   5.477  16.141  0.6025  1.8874 -0.1761
14569TIP3   OH265121   5.863   1.001   2.026  0.1841  0.0462 -0.5073
14569TIP3    H165122   5.951   1.034   2.047 -0.1539  0.7367 -0.1440
14569TIP3    H265123   5.856   1.010   1.931  1.4109 -2.3133 -0.8927
14570TIP3   OH265124   6.306   3.866   3.357  0.1379 -0.1890 -0.0730
14570TIP3    H165125   6.212   3.854   3.340  0.2977 -0.1350 -1.0575
14570TIP3    H265126   6.320   3.826   3.443 -0.4819 -1.7731 -0.6594
14571TIP3   OH265127   0.001   6.432  10.878 -0.0616 -0.0518  0.8411
14571TIP3    H165128   0.088   6.400  10.854  0.1885  1.7850 -0.9797
14571TIP3    H265129  -0.060   6.368  10.841  0.4676  0.5584 -1.2217
14572TIP3   OH265130   4.265   2.853  12.997  0.0882  0.3353  0.0019
14572TIP3    H165131   4.186   2.900  12.970  0.0816  0.9104  0.9784
14572TIP3    H265132   4.324   2.860  12.923 -0.9455 -0.5171 -0.9481
14573TIP3   OH265133   5.461   4.195   5.702  0.5353  0.1804 -0.5271
14573TIP3    H165134   5.382   4.150   5.670  1.0885 -0.7013 -0.6837
14573TIP3    H265135   5.449   4.198   5.797  0.8433 -1.0444 -0.4244
14574TIP3   OH265136   0.524   1.191  12.807  0.5791 -0.4936  0.4515
14574TIP3    H165137   0.467   1.145  12.869  0.3823 -0.5978  0.1986
14574TIP3    H265138   0.543   1.125  12.740  1.2442 -0.5523  0.6873
14575TIP3   OH265139   4.923   2.637   2.250 -0.3203 -0.5563 -0.0072
14575TIP3    H165140   4.934   2.543   2.239  1.3636 -0.4285  0.3045
14575TIP3    H265141   4.929   2.672   2.161 -1.0653 -0.7482 -0.1353
14576TIP3   OH265142   0.089   3.936  10.665  0.1226 -0.0984  0.2682
14576TIP3    H165143   0.164   3.877  10.675 -1.4945 -2.3916 -0.3758
14576TIP3    H265144   0.070   3.966  10.753  1.0819 -0.4153  0.5968
14577TIP3   OH265145   4.175   0.250   5.112  0.3576 -0.1852  0.4357
14577TIP3    H165146   4.230   0.177   5.139  0.7629 -0.2792 -0.5912
14577TIP3    H265147   4.233   0.326   5.118  0.2420 -0.1029  0.5061
14578TIP3   OH265148   6.692   1.373  12.111 -0.5640 -0.3449 -0.0221
14578TIP3    H165149   6.632   1.419  12.052 -1.7491 -0.2146  1.2406
14578TIP3    H265150   6.712   1.436  12.180 -0.3377 -0.9555  0.4837
14579TIP3   OH265151   6.197   0.523  15.898  0.2398  0.5415  0.0302
14579TIP3    H165152   6.242   0.593  15.943 -1.6933  0.4737  2.2638
14579TIP3    H265153   6.266   0.462  15.871  1.7080  2.0327  0.3252
14580TIP3   OH265154   6.448   0.300  13.417  0.4000  0.3352  0.0164
14580TIP3    H165155   6.399   0.277  13.496  1.9741 -2.2644  0.3667
14580TIP3    H265156   6.428   0.231  13.354  1.5996  0.6172 -0.7192
14581TIP3   OH265157   4.761   5.906  11.779  0.4266  0.5629 -0.4427
14581TIP3    H165158   4.717   5.982  11.816 -0.4211 -0.6833  1.2463
14581TIP3    H265159   4.712   5.831  11.813  1.6004 -0.7590 -1.5511
14582TIP3   OH265160   1.800   2.721  14.296 -0.0613  0.1307 -0.1204
14582TIP3    H165161   1.719   2.684  14.332 -0.4774 -1.0499 -2.1433
14582TIP3    H265162   1.770   2.788  14.234  0.5472  0.2601 -0.2809
14583TIP3   OH265163   4.289   3.339  15.669  0.4771  0.1944  0.2140
14583TIP3    H165164   4.302   3.426  15.707 -0.3110  0.2094  0.4818
14583TIP3    H265165   4.216   3.350  15.608  0.9330 -0.0999 -0.4016
14584TIP3   OH265166   5.227   3.839  16.336 -0.2517 -0.0088 -0.1674
14584TIP3    H165167   5.243   3.932  16.316  1.4127  0.1292  1.5285
14584TIP3    H265168   5.283   3.791  16.275 -0.3112  0.1385 -0.3383
14585TIP3   OH265169   6.094   0.791  14.365  0.0358 -0.1574  0.5142
14585TIP3    H165170   6.159   0.734  14.405  1.1134  0.5374 -0.1803
14585TIP3    H265171   6.139   0.830  14.290 -0.9880  0.8135  0.3704
14586TIP3   OH265172   1.772   2.161   0.608  0.3880  0.0104 -0.9525
14586TIP3    H165173   1.821   2.169   0.690 -1.7134 -2.0202  0.6067
14586TIP3    H265174   1.819   2.219   0.547  3.0995  0.2028  1.1232
14587TIP3   OH265175   0.787   3.764  14.377  0.1212 -0.3991  0.1571
14587TIP3    H165176   0.788   3.672  14.401 -0.5305 -0.1662  1.1035
14587TIP3    H265177   0.763   3.764  14.284  0.3621 -1.1903  0.0902
14588TIP3   OH265178   2.660   2.300  13.460 -0.4451 -0.7882 -0.2581
14588TIP3    H165179   2.674   2.348  13.542 -0.6038  0.4999 -0.9538
14588TIP3    H265180   2.565   2.294  13.451 -0.5744  1.9715 -1.8907
14589TIP3   OH265181   4.404   6.655  17.245 -0.4047 -0.2616  0.2796
14589TIP3    H165182   4.481   6.706  17.219 -0.7854  0.0003 -0.3624
14589TIP3    H265183   4.406   6.577  17.189  0.1260 -0.9244  1.1962
14590TIP3   OH265184   0.318   2.214   1.106  0.2902 -0.1339  0.0607
14590TIP3    H165185   0.303   2.302   1.073 -1.7699 -1.0413 -1.6883
14590TIP3    H265186   0.413   2.207   1.113  0.5621  1.8334 -0.8478
14591TIP3   OH265187   6.383   5.569  13.026 -0.3498  0.5625 -0.6679
14591TIP3    H165188   6.294   5.556  13.060  0.6227 -0.4678  1.6893
14591TIP3    H265189   6.436   5.502  13.070  1.5125  0.7905 -2.4353
14592TIP3   OH265190   2.598   2.920   0.741  0.3900 -0.5799  0.0742
14592TIP3    H165191   2.633   2.922   0.830 -0.9461  0.3879  0.6214
14592TIP3    H265192   2.614   3.008   0.708 -1.5223 -0.0582  0.3890
14593TIP3   OH265193   2.828   4.025  16.457 -0.2635  0.6412 -0.1704
14593TIP3    H165194   2.792   4.107  16.423  1.4952  0.9632 -1.4019
14593TIP3    H265195   2.757   3.961  16.446 -1.2789  1.7560 -0.2367
14594TIP3   OH265196   1.514   4.466   2.289  0.1017 -0.7684  0.1900
14594TIP3    H165197   1.454   4.522   2.239 -0.1208 -1.5977 -0.4985
14594TIP3    H265198   1.568   4.424   2.222  1.2018 -0.3340  0.7833
14595TIP3   OH265199   2.262   6.596  14.048 -0.1697 -0.5005  0.1771
14595TIP3    H165200   2.280   6.603  14.142  1.1830 -2.4016  0.1168
14595TIP3    H265201   2.168   6.610  14.040 -0.0786  1.3084  1.5985
14596TIP3   OH265202   1.676   0.260   6.813  0.4812 -0.3954  0.1095
14596TIP3    H165203   1.712   0.330   6.869  0.2529 -0.7521  0.7160
14596TIP3    H265204   1.751   0.203   6.795  0.5716 -0.2396 -0.0163
14597TIP3   OH265205   6.055   2.459   4.130 -0.2711  0.0910 -0.1781
14597TIP3    H165206   6.030   2.552   4.127  3.6236  1.3554  0.5069
14597TIP3    H265207   6.004   2.418   4.060 -2.2487  2.6527 -0.4177
14598TIP3   OH265208   6.493   2.789   1.630 -0.3969  0.2533 -0.4930
14598TIP3    H165209   6.578   2.822   1.658 -1.1203  2.2609 -0.4832
14598TIP3    H265210   6.487   2.814   1.538 -1.2305  0.7249 -0.3207
14599TIP3   OH265211   1.861   3.680  11.192 -0.2364  0.3185 -0.7308
14599TIP3    H165212   1.798   3.752  11.182  0.9022  1.2537 -1.4100
14599TIP3    H265213   1.839   3.619  11.122  0.7302  1.5387 -2.1668
14600TIP3   OH265214   5.832   2.988  16.731  0.0237  0.1822 -0.3228
14600TIP3    H165215   5.908   2.934  16.711 -0.4935 -1.3571  1.5001
14600TIP3    H265216   5.836   3.000  16.826 -2.1918 -0.2808 -0.1127
14601TIP3   OH265217   4.386   3.720   3.772 -0.6234  0.5862 -0.0058
14601TIP3    H165218   4.416   3.754   3.688 -0.5869 -0.8327 -0.5956
14601TIP3    H265219   4.304   3.766   3.789 -0.3762  1.2466 -0.5598
14602TIP3   OH265220   2.937   2.232  13.800  0.0079  0.3818  0.6418
14602TIP3    H165221   2.903   2.163  13.856  1.0615  1.1465  2.3189
14602TIP3    H265222   2.882   2.308  13.819  1.0994  0.9676  1.5764
14603TIP3   OH265223   3.346   4.770  16.328 -0.3899  0.7500 -0.0819
14603TIP3    H165224   3.285   4.706  16.365 -0.4419  0.6405 -0.3541
14603TIP3    H265225   3.319   4.779  16.237 -1.0618  1.9834  0.2230
14604TIP3   OH265226   2.868   2.202   3.221  0.3131  0.2165  0.3562
14604TIP3    H165227   2.816   2.128   3.189 -0.9782  1.0136  0.5478
14604TIP3    H265228   2.824   2.229   3.302  0.8349  1.1178  0.3486
14605TIP3   OH265229   2.932   2.788  12.277 -0.0035 -0.5438 -0.0077
14605TIP3    H165230   2.841   2.793  12.308 -0.1723  0.0523 -0.5612
14605TIP3    H265231   2.926   2.741  12.193  0.2498 -0.8397  0.1402
14606TIP3   OH265232   6.539   5.503  16.997 -0.3407  0.2963  0.0591
14606TIP3    H165233   6.603   5.433  16.988  0.9928  1.5000 -0.3506
14606TIP3    H265234   6.489   5.501  16.915  1.7516  1.7021 -1.3564
14607TIP3   OH265235   2.361   6.783   5.224 -0.6918 -0.1658 -0.2117
14607TIP3    H165236   2.370   6.848   5.154  2.5313  1.4359  1.4613
14607TIP3    H265237   2.344   6.834   5.303  0.4877 -1.4232  0.9206
14608TIP3   OH265238   2.142   1.645  14.408  0.7901  0.1270 -0.2840
14608TIP3    H165239   2.121   1.645  14.314 -1.6053 -2.2503  0.1400
14608TIP3    H265240   2.227   1.601  14.414  0.6283 -0.3544 -1.3006
14609TIP3   OH265241   1.081   2.742  13.324 -0.0786  0.0577 -0.6906
14609TIP3    H165242   1.102   2.651  13.346  1.9193  0.3557 -1.2141
14609TIP3    H265243   1.166   2.785  13.314 -0.9659  1.6381 -1.9288
14610TIP3   OH265244   6.075   5.495  16.008 -0.1339  0.1716  0.1399
14610TIP3    H165245   6.110   5.584  15.997 -0.0107  0.2158  0.8535
14610TIP3    H265246   6.144   5.448  16.056 -0.7702  0.0802  0.9912
14611TIP3   OH265247   1.194   3.631  15.965  0.2208  0.5477 -0.0479
14611TIP3    H165248   1.184   3.636  15.870 -0.1036  1.1443  0.0088
14611TIP3    H265249   1.282   3.596  15.979  0.7499  1.6180 -0.5676
14612TIP3   OH265250   3.754   6.585   0.032 -0.2057  0.2390 -0.2555
14612TIP3    H165251   3.788   6.672   0.010  0.1492  1.2310  3.6208
14612TIP3    H265252   3.681   6.573  -0.028  0.0885  2.9621 -1.3039
14613TIP3   OH265253   4.539   2.769   0.648  0.2345  0.3524 -0.5030
14613TIP3    H165254   4.477   2.721   0.593  1.0570 -0.0262 -1.1266
14613TIP3    H265255   4.624   2.726   0.632  0.3893 -0.2522  1.6212
14614TIP3   OH265256   5.018   0.348  15.339  0.1395 -0.5460  0.1480
14614TIP3    H165257   4.945   0.323  15.396 -0.2784  0.3284  0.0174
14614TIP3    H265258   5.080   0.391  15.397 -0.8915  1.5808 -0.2133
14615TIP3   OH265259   6.299   1.859   5.270 -0.6511 -0.0027 -0.2024
14615TIP3    H165260   6.268   1.771   5.291 -4.2751  0.7951 -1.5269
14615TIP3    H265261   6.271   1.913   5.344 -1.5801  0.5868 -0.9704
14616TIP3   OH265262   0.950   1.252   0.336  0.1042  0.3990 -0.3203
14616TIP3    H165263   0.961   1.315   0.408 -2.9951 -0.2495  0.8511
14616TIP3    H265264   1.011   1.182   0.358  0.0939  0.7726  1.0276
14617TIP3   OH265265   5.035   5.763  12.729 -0.1957  0.3556  0.2856
14617TIP3    H165266   4.995   5.680  12.703  1.2646 -0.0484 -0.7475
14617TIP3    H265267   4.970   5.829  12.704  0.5941 -0.0706 -3.5720
14618TIP3   OH265268   2.461   4.752   1.457  0.4674  0.6704  0.2642
14618TIP3    H165269   2.523   4.735   1.386  0.2349 -0.2603  0.2645
14618TIP3    H265270   2.379   4.712   1.427 -0.0567  1.6139  0.4001
14619TIP3   OH265271   5.295   1.841   0.085 -0.3744 -0.1919  0.7243
14619TIP3    H165272   5.212   1.830   0.132 -1.1188 -0.4987 -0.6051
14619TIP3    H265273   5.278   1.913   0.024  0.3512 -0.2291  0.4692
14620TIP3   OH265274   3.969   3.867  11.180  0.1309  0.6620 -0.4175
14620TIP3    H165275   3.890   3.898  11.136 -0.5727  0.4119  0.6354
14620TIP3    H265276   4.025   3.835  11.109 -1.5231 -0.9832 -1.0493
14621TIP3   OH265277   4.865   5.042   0.171  0.2981  0.2688 -0.2632
14621TIP3    H165278   4.878   5.131   0.203  0.7034 -0.7111  2.5198
14621TIP3    H265279   4.779   5.017   0.205  1.5294 -1.4482  1.8085
14622TIP3   OH265280   3.245   1.277  16.805 -0.0707  0.4024 -0.1854
14622TIP3    H165281   3.226   1.246  16.894 -1.5826  2.4711  0.2816
14622TIP3    H265282   3.288   1.203  16.763  0.2109 -0.8282  2.0967
14623TIP3   OH265283   3.277   5.434   3.583  0.6154  0.5996 -0.1860
14623TIP3    H165284   3.204   5.373   3.566  1.1319 -0.0640 -0.0764
14623TIP3    H265285   3.255   5.512   3.532 -0.1572  0.3945 -0.1814
14624TIP3   OH265286   5.137   4.267   0.158 -0.0711  0.1994  0.4895
14624TIP3    H165287   5.141   4.249   0.252 -0.6826 -1.1325  0.2741
14624TIP3    H265288   5.225   4.249   0.126 -0.0011  0.1248  0.7234
14625TIP3   OH265289   6.731   2.193  15.406 -0.0126  0.4931  0.0854
14625TIP3    H165290   6.726   2.186  15.501 -0.9269 -1.4259 -0.0644
14625TIP3    H265291   6.711   2.285  15.388  0.1533  0.8807  1.7318
14626TIP3   OH265292   4.287   0.228   0.299  0.1229 -0.5178 -0.0241
14626TIP3    H165293   4.219   0.295   0.288 -1.2347 -1.7776  0.2907
14626TIP3    H265294   4.247   0.164   0.358  0.5690 -2.6439 -1.9218
14627TIP3   OH265295   1.436   5.169  14.398  0.0503 -0.3697 -0.3213
14627TIP3    H165296   1.429   5.075  14.383 -0.8856 -0.3265 -0.2509
14627TIP3    H265297   1.375   5.185  14.470  0.5545  0.2184 -0.0238
14628TIP3   OH265298   2.408   1.903  17.016  0.1958 -0.2722 -0.2016
14628TIP3    H165299   2.468   1.970  17.051 -2.3465  1.2849  1.5811
14628TIP3    H265300   2.378   1.939  16.933 -0.3484  0.3737  0.2525
14629TIP3   OH265301   0.689   6.695   5.164  0.2350 -0.0129 -0.3745
14629TIP3    H165302   0.742   6.737   5.097  0.9143  1.5426  1.0763
14629TIP3    H265303   0.752   6.662   5.228 -0.4300  1.7748  1.3218
14630TIP3   OH265304   0.775   1.827   0.935  0.0818  0.3938 -0.2665
14630TIP3    H165305   0.831   1.878   0.877 -0.1182  0.0776 -0.7371
14630TIP3    H265306   0.832   1.804   1.009  0.1882  1.2440 -0.0770
14631TIP3   OH265307   4.445   2.539  11.813 -0.4664  0.2538 -0.4784
14631TIP3    H165308   4.479   2.625  11.840  0.2554 -0.0769 -0.3162
14631TIP3    H265309   4.360   2.559  11.774 -0.5693  0.9770  0.0892
14632TIP3   OH265310   4.385   6.358  12.622  0.1482  0.0024  0.2117
14632TIP3    H165311   4.459   6.354  12.561 -1.7858 -2.6881 -2.2411
14632TIP3    H265312   4.351   6.447  12.614  1.5059  0.4705 -0.6695
14633TIP3   OH265313   3.928   0.949   0.494 -0.3031  0.4078 -0.0201
14633TIP3    H165314   3.884   1.020   0.542 -0.1052  0.5884 -0.0995
14633TIP3    H265315   3.890   0.952   0.407 -0.3940  0.3258  0.0168
14634TIP3   OH265316   1.241   1.780  12.962  0.0914 -0.2044 -0.5611
14634TIP3    H165317   1.331   1.768  12.934  0.0128  2.6552 -2.4503
14634TIP3    H265318   1.248   1.819  13.049  0.4636 -3.2452  0.9270
14635TIP3   OH265319   6.762   2.215   5.801  0.3104 -0.2031  0.2102
14635TIP3    H165320   6.838   2.201   5.858  0.5852 -1.3108 -0.3940
14635TIP3    H265321   6.765   2.307   5.778  0.9717 -0.0436  0.8953
14636TIP3   OH265322   5.708   2.087   2.259 -0.0875 -0.2045  0.0577
14636TIP3    H165323   5.777   2.068   2.195 -0.8202 -0.9396 -0.5399
14636TIP3    H265324   5.754   2.092   2.343  0.5527 -1.8656 -0.1466
14637TIP3   OH265325   6.648   1.854  13.881 -0.6637  0.9410 -0.1466
14637TIP3    H165326   6.716   1.833  13.944 -3.5579 -0.9421  2.6402
14637TIP3    H265327   6.625   1.946  13.900 -1.1808  0.5352  1.3445
14638TIP3   OH265328   2.856   6.346   2.386  0.0977  0.7977  0.9788
14638TIP3    H165329   2.786   6.281   2.373  0.8530 -0.0433  0.9936
14638TIP3    H265330   2.935   6.293   2.398  0.6262  1.7149  1.6496
14639TIP3   OH265331   1.475   0.513   3.441 -0.5194  0.5296  0.3050
14639TIP3    H165332   1.388   0.481   3.464 -0.3906  0.6855  1.0123
14639TIP3    H265333   1.493   0.473   3.356 -2.3347  2.4595 -1.1084
14640TIP3   OH265334   2.173   3.158   5.767 -0.4420  0.2782 -0.1002
14640TIP3    H165335   2.200   3.242   5.729 -1.2480  1.1244  1.1468
14640TIP3    H265336   2.140   3.180   5.854 -0.2777 -1.3975  0.4178
14641TIP3   OH265337   4.595   6.362   1.426  0.1005  0.1714  0.8585
14641TIP3    H165338   4.591   6.384   1.333  0.9907 -2.8097 -0.0057
14641TIP3    H265339   4.513   6.394   1.462 -0.1206  1.7013 -0.8651
14642TIP3   OH265340   4.752   1.976   6.145  0.3454  0.4092  0.0975
14642TIP3    H165341   4.762   1.904   6.207 -0.8027  0.0899 -0.0639
14642TIP3    H265342   4.828   2.033   6.161  1.1163 -0.6745  0.4239
14643TIP3   OH265343   5.089   3.630  11.786  0.0865  0.1283 -0.6100
14643TIP3    H165344   5.174   3.627  11.830 -0.2898  0.5929  0.1664
14643TIP3    H265345   5.110   3.641  11.693  0.8647  0.9413 -0.3443
14644TIP3   OH265346   4.782   4.873  16.077 -0.4183 -0.8496  0.5103
14644TIP3    H165347   4.690   4.869  16.050  0.0736 -2.0861 -1.1528
14644TIP3    H265348   4.788   4.952  16.130 -2.3028 -0.3856  0.1082
14645TIP3   OH265349   5.594   1.573  14.127  0.5783 -0.1716 -0.5889
14645TIP3    H165350   5.523   1.624  14.167 -0.6336 -1.0907 -1.5273
14645TIP3    H265351   5.656   1.559  14.199 -1.0360 -0.8768  0.7332
14646TIP3   OH265352   1.213   0.808  16.314  0.3713 -0.1614  0.0545
14646TIP3    H165353   1.291   0.863  16.320 -0.4331  0.8953  1.5466
14646TIP3    H265354   1.143   0.863  16.349 -1.3033 -0.6397 -2.3531
14647TIP3   OH265355   4.526   5.061  14.133  0.4066  0.2847  0.1510
14647TIP3    H165356   4.550   5.015  14.213 -3.6741  0.4006  1.6903
14647TIP3    H265357   4.570   5.145  14.138  0.4112  0.1933  2.2098
14648TIP3   OH265358   3.417   2.427   1.880  0.1802 -0.3903 -0.2786
14648TIP3    H165359   3.345   2.401   1.938 -0.3591 -0.1986 -0.8570
14648TIP3    H265360   3.454   2.344   1.850  0.9970 -0.5126  0.9605
14649TIP3   OH265361   3.646   3.592  16.170  0.1880  0.5008 -0.0352
14649TIP3    H165362   3.734   3.582  16.133  0.3302 -2.8328  0.8565
14649TIP3    H265363   3.637   3.686  16.185  4.1242  0.8847  1.0665
14650TIP3   OH265364   5.933   6.698   4.505 -0.2354  0.2915  0.1133
14650TIP3    H165365   5.963   6.780   4.543 -1.3441  0.0541  1.5581
14650TIP3    H265366   5.838   6.703   4.508 -0.3194 -0.9000 -0.0943
14651TIP3   OH265367   2.066   2.679   0.416  0.0459  0.1890 -0.0581
14651TIP3    H165368   2.012   2.699   0.492  1.3868  1.0622  0.7121
14651TIP3    H265369   2.092   2.587   0.429 -2.0574 -0.5925 -0.9979
14652TIP3   OH265370   2.359   0.595   1.501 -0.6984  0.0608 -0.0241
14652TIP3    H165371   2.397   0.587   1.414 -1.3434  0.4356 -0.3448
14652TIP3    H265372   2.282   0.538   1.500 -1.0462  0.5220  0.1056
14653TIP3   OH265373   0.706   6.652   1.736  0.1877 -0.8192 -0.3713
14653TIP3    H165374   0.774   6.605   1.687 -1.5314 -1.8252 -1.9420
14653TIP3    H265375   0.631   6.653   1.677 -1.2302  0.1143  1.3550
14654TIP3   OH265376   2.036   5.876   6.361 -0.2138 -0.1974 -0.1168
14654TIP3    H165377   2.007   5.902   6.274 -0.7053  1.3465  0.4852
14654TIP3    H265378   1.959   5.886   6.417  0.6619  1.0765  0.9250
14655TIP3   OH265379   5.602   1.534   4.398 -0.4706  0.2501  0.0942
14655TIP3    H165380   5.639   1.591   4.464 -1.7191  0.8594  0.3013
14655TIP3    H265381   5.620   1.578   4.315 -0.8423  0.6256  0.2067
14656TIP3   OH265382   1.821   5.925  12.748 -0.1655 -0.3710  0.3616
14656TIP3    H165383   1.735   5.890  12.771 -0.4371  0.3437  0.4467
14656TIP3    H265384   1.882   5.872  12.799 -0.5759 -0.6437  0.5812
14657TIP3   OH265385   0.037   5.509  16.267  0.5449  0.0013 -0.7677
14657TIP3    H165386   0.122   5.474  16.242  0.9684 -0.0774  0.6962
14657TIP3    H265387   0.022   5.476  16.355 -0.7305  0.5045 -0.7743
14658TIP3   OH265388   1.423   3.186  13.042 -0.0454 -0.3064  0.0536
14658TIP3    H165389   1.397   3.107  13.089 -0.0213  0.2421  0.9989
14658TIP3    H265390   1.507   3.162  13.001  0.6861 -0.3407  1.5055
14659TIP3   OH265391   4.660   2.574  12.736  0.0658 -0.1635 -0.1871
14659TIP3    H165392   4.733   2.600  12.680  0.4052 -1.2063 -0.2368
14659TIP3    H265393   4.582   2.589  12.683  0.4773 -3.3835 -1.9208
14660TIP3   OH265394   5.003   3.277   1.107 -0.3826 -0.7389  0.0399
14660TIP3    H165395   5.010   3.212   1.037 -1.4930 -0.7708 -0.0650
14660TIP3    H265396   4.949   3.235   1.173  3.0242 -1.8782  2.3627
14661TIP3   OH265397   0.398   5.735  13.810  0.0687  0.4446 -0.0958
14661TIP3    H165398   0.358   5.815  13.776 -0.5527  0.1883  0.0284
14661TIP3    H265399   0.432   5.759  13.896 -1.3346  0.2277  0.5365
14662TIP3   OH265400   0.573   4.134   0.481  0.3580  0.1167 -0.0571
14662TIP3    H165401   0.590   4.118   0.574  0.7070  1.0094  0.0356
14662TIP3    H265402   0.657   4.122   0.438  0.5614  1.3191 -0.0301
14663TIP3   OH265403   0.849   3.931  13.163 -0.5822 -0.3018 -0.0272
14663TIP3    H165404   0.886   3.875  13.095  0.8145  1.1017 -0.4842
14663TIP3    H265405   0.876   3.890  13.245  1.6123  0.3817 -0.3489
14664TIP3   OH265406   6.351   6.666   1.354  0.1628  0.5118  0.0316
14664TIP3    H165407   6.290   6.740   1.349  0.4469  0.7279 -0.2961
14664TIP3    H265408   6.437   6.706   1.341  0.2095 -0.0785 -1.7271
14665TIP3   OH265409   5.460   0.501   0.426  0.0268 -0.3591 -0.9651
14665TIP3    H165410   5.527   0.500   0.495 -0.3380  1.4736 -0.5358
14665TIP3    H265411   5.377   0.491   0.472 -0.3457  2.2823 -0.8690
14666TIP3   OH265412   5.284   6.274   2.335 -0.0016  0.0218 -0.0768
14666TIP3    H165413   5.358   6.318   2.294 -0.1609  0.8907  0.5500
14666TIP3    H265414   5.322   6.194   2.372 -0.0015 -1.2208 -2.5670
14667TIP3   OH265415   4.094   4.367  15.720 -0.4795 -0.1314  0.1591
14667TIP3    H165416   4.038   4.289  15.720 -0.2492 -0.3283  1.5045
14667TIP3    H265417   4.179   4.336  15.752  0.4946  0.1312 -2.0307
14668TIP3   OH265418   4.599   6.173   6.400  0.4545  0.1983  0.2074
14668TIP3    H165419   4.630   6.261   6.418  0.9210 -0.0496  0.6334
14668TIP3    H265420   4.621   6.123   6.478 -0.8035 -0.0492  0.4375
14669TIP3   OH265421   1.598   0.460  15.567 -0.3198 -0.0490  0.3822
14669TIP3    H165422   1.588   0.368  15.591 -1.6665  0.2410  1.0112
14669TIP3    H265423   1.625   0.459  15.475  1.0952 -1.0864  0.7712
14670TIP3   OH265424   6.136   0.439   5.271 -0.2766 -0.1793  0.3000
14670TIP3    H165425   6.124   0.414   5.179 -1.1550 -2.2370  0.9088
14670TIP3    H265426   6.063   0.499   5.289 -0.9759 -0.9251  0.0183
14671TIP3   OH265427   3.168   2.642   3.578 -0.5341  0.1604 -0.8524
14671TIP3    H165428   3.130   2.705   3.640 -0.2840  0.4036 -0.9426
14671TIP3    H265429   3.152   2.682   3.492 -2.2278 -0.8844 -1.0675
14672TIP3   OH265430   0.736   0.574  16.887  0.5284 -0.4832  0.9124
14672TIP3    H165431   0.641   0.574  16.876  0.6297 -1.8757 -0.2569
14672TIP3    H265432   0.764   0.661  16.859  0.0270 -1.5199 -3.5696
14673TIP3   OH265433   4.489   5.504   0.547  0.3101  0.0786 -0.0285
14673TIP3    H165434   4.530   5.438   0.492  1.5506  1.1360 -0.4236
14673TIP3    H265435   4.396   5.502   0.523  0.6085 -0.4111 -1.1695
14674TIP3   OH265436   0.983   6.397  11.483 -0.0191 -0.0679 -0.2627
14674TIP3    H165437   0.936   6.432  11.559  0.5106 -0.3232  0.1848
14674TIP3    H265438   1.040   6.469  11.456  0.7124 -0.4035  0.3587
14675TIP3   OH265439   2.526   0.030   2.088  0.5430 -0.3702 -0.1147
14675TIP3    H165440   2.608   0.079   2.099 -0.1502  0.5439  1.2894
14675TIP3    H265441   2.525  -0.032   2.160  1.2450 -2.3328 -1.6914
14676TIP3   OH265442   0.783   1.139  13.296 -0.1452 -0.2151 -0.0412
14676TIP3    H165443   0.786   1.044  13.292 -0.8746 -0.2513  0.1020
14676TIP3    H265444   0.692   1.161  13.276 -0.2357  0.3876  0.9350
14677TIP3   OH265445   4.645   1.749   5.071  0.1124 -0.0680 -0.2200
14677TIP3    H165446   4.593   1.798   5.007  0.7913  0.9060 -0.0602
14677TIP3    H265447   4.606   1.662   5.073 -0.3569  0.0953 -1.4493
14678TIP3   OH265448   1.580   1.301  14.780 -0.3404 -0.2959  0.3502
14678TIP3    H165449   1.500   1.287  14.729 -0.5032 -1.2681  0.8537
14678TIP3    H265450   1.589   1.396  14.784 -0.1170 -0.1741 -1.8087
14679TIP3   OH265451   0.432   2.733   6.020  0.1968  0.3159  0.0989
14679TIP3    H165452   0.357   2.765   6.069  0.3800 -0.6990  1.0942
14679TIP3    H265453   0.501   2.797   6.037 -0.3091  1.0350 -0.4930
14680TIP3   OH265454   5.728   2.732   3.088 -0.3209 -0.2670  0.7099
14680TIP3    H165455   5.814   2.754   3.125 -0.4467 -0.4227  1.0935
14680TIP3    H265456   5.748   2.706   2.998 -0.1481  1.2308  0.2910
14681TIP3   OH265457   2.398   1.676   4.287 -0.2306 -0.4430  0.3115
14681TIP3    H165458   2.382   1.761   4.246  1.0327  0.1750  1.0642
14681TIP3    H265459   2.310   1.643   4.306 -0.7430  1.6722  1.9704
14682TIP3   OH265460   1.379   5.832  15.655  0.0436 -0.0096 -0.1476
14682TIP3    H165461   1.361   5.884  15.733  1.1146 -2.5948  1.9637
14682TIP3    H265462   1.293   5.799  15.628 -0.4152  1.4079 -0.4928
14683TIP3   OH265463   1.798   2.515  12.041 -0.3212  0.9851 -0.3028
14683TIP3    H165464   1.795   2.610  12.052  0.2704  1.1913 -1.7187
14683TIP3    H265465   1.720   2.494  11.989  0.0248  0.8326 -0.7727
14684TIP3   OH265466   0.810   2.851   5.802  0.2792 -0.6954 -0.3003
14684TIP3    H165467   0.905   2.860   5.800  0.2751 -0.6678 -0.3923
14684TIP3    H265468   0.794   2.776   5.859  0.3098 -0.0439  0.5844
14685TIP3   OH265469   0.106   6.067  11.648 -0.3324  0.3063  0.4822
14685TIP3    H165470   0.035   6.118  11.609  1.3837  1.7866 -0.8952
14685TIP3    H265471   0.130   6.004  11.581  1.6916  1.9268 -0.4524
14686TIP3   OH265472   1.514   3.873   2.596  0.2916  0.6961 -0.1934
14686TIP3    H165473   1.547   3.851   2.509 -1.3126  1.1711 -0.9577
14686TIP3    H265474   1.421   3.855   2.592  0.0307  1.5836  1.1501
14687TIP3   OH265475   1.334   4.367   3.656 -0.2862 -0.2308  0.6509
14687TIP3    H165476   1.412   4.406   3.696  0.3775 -1.6176  0.7556
14687TIP3    H265477   1.361   4.279   3.631 -1.4729 -0.3169 -0.4418
14688TIP3   OH265478   2.888   3.828  15.536  0.0148 -0.0559 -0.1930
14688TIP3    H165479   2.889   3.869  15.449 -1.1324  0.1839 -0.1054
14688TIP3    H265480   2.825   3.756  15.528 -0.0703 -0.0569  0.4307
14689TIP3   OH265481   1.041   0.426  12.701  0.7943  0.3587 -0.0446
14689TIP3    H165482   1.038   0.510  12.748  2.9582  1.5867 -1.8973
14689TIP3    H265483   1.009   0.447  12.613  0.7722 -0.9256 -0.3557
14690TIP3   OH265484   5.975   3.963  16.817 -0.7488 -0.8454 -0.0890
14690TIP3    H165485   5.986   3.900  16.746  0.1037 -1.2200  0.3622
14690TIP3    H265486   6.008   3.918  16.894 -0.0180  0.1863  0.2190
14691TIP3   OH265487   4.032   1.553   0.336  0.5806 -0.2437 -0.0949
14691TIP3    H165488   4.125   1.553   0.359  0.5773 -3.2916  0.2977
14691TIP3    H265489   4.027   1.504   0.253 -0.7277 -0.8442  0.3066
14692TIP3   OH265490   0.662   2.139   4.359  0.0749  1.0066 -0.1071
14692TIP3    H165491   0.595   2.130   4.426  0.3725  0.2369  0.1015
14692TIP3    H265492   0.738   2.173   4.405  0.7042 -0.7709  0.2529
14693TIP3   OH265493   4.391   1.486   4.569 -0.0859 -0.3090  0.5106
14693TIP3    H165494   4.335   1.434   4.511 -1.6892  2.6334 -0.7931
14693TIP3    H265495   4.459   1.522   4.511 -0.8802  1.5339  0.6521
14694TIP3   OH265496   3.036   3.348   3.616 -0.4734 -0.3402 -0.6796
14694TIP3    H165497   3.007   3.389   3.534 -0.7872 -0.3590 -0.5787
14694TIP3    H265498   3.084   3.270   3.588 -1.5293 -0.9522 -0.8153
14695TIP3   OH265499   1.906   4.932   5.662  0.3214 -0.3676  0.4677
14695TIP3    H165500   1.883   4.907   5.752 -1.4739 -0.1318  0.1134
14695TIP3    H265501   1.976   4.996   5.672 -1.4465  1.4830  1.8797
14696TIP3   OH265502   4.147   4.432   5.713  0.5640  0.2589 -0.7961
14696TIP3    H165503   4.178   4.493   5.646  0.4287  0.6363 -0.5126
14696TIP3    H265504   4.164   4.476   5.796  2.2632 -0.8688 -0.4724
14697TIP3   OH265505   6.418   4.152   4.381 -0.0505 -0.2269 -0.2771
14697TIP3    H165506   6.377   4.069   4.403  1.0958 -0.7151  0.0984
14697TIP3    H265507   6.418   4.154   4.285  1.2494 -1.3723 -0.3287
14698TIP3   OH265508   4.881   0.768   0.153  0.3510  0.0655  0.3060
14698TIP3    H165509   4.867   0.703   0.222 -0.5852  1.7138  1.7511
14698TIP3    H265510   4.889   0.851   0.199 -0.9020  1.3354 -1.5768
14699TIP3   OH265511   4.573   4.871   3.066 -0.2711 -0.2232  0.4796
14699TIP3    H165512   4.496   4.926   3.083 -0.0027  0.9581 -1.7207
14699TIP3    H265513   4.647   4.923   3.095 -0.1242 -0.1204 -0.0688
14700TIP3   OH265514   4.886   6.074   5.395 -0.7128  0.0394 -0.2709
14700TIP3    H165515   4.845   6.078   5.308  0.3119  1.7773 -0.7284
14700TIP3    H265516   4.937   5.993   5.394  0.9893  1.0407 -2.1480
14701TIP3   OH265517   0.813   1.849  12.248 -0.5095  0.2440  0.3971
14701TIP3    H165518   0.750   1.803  12.303  0.3361  2.2057  3.2640
14701TIP3    H265519   0.809   1.940  12.278  0.4794  1.3456 -2.4639
14702TIP3   OH265520   5.474   0.694  12.271 -0.0956 -0.5439 -0.1382
14702TIP3    H165521   5.536   0.751  12.227 -0.2536 -0.4197 -0.2017
14702TIP3    H265522   5.438   0.639  12.202 -0.2293 -0.4545 -0.1414
14703TIP3   OH265523   4.563   3.086  11.204  0.5809 -0.4197  0.2626
14703TIP3    H165524   4.554   3.178  11.180  1.8070 -0.5511 -0.7939
14703TIP3    H265525   4.649   3.080  11.247  0.6459 -1.1188  0.0574
14704TIP3   OH265526   2.627   6.330   6.558  0.2586 -0.4227  0.4760
14704TIP3    H165527   2.642   6.242   6.524 -2.5622 -1.3022  1.1934
14704TIP3    H265528   2.615   6.317   6.652  2.6876  1.2231  1.1144
14705TIP3   OH265529   4.081   5.731  12.670 -0.0299 -0.0725  0.0922
14705TIP3    H165530   4.008   5.786  12.696  0.2562 -0.4353  1.7843
14705TIP3    H265531   4.142   5.790  12.626 -0.9894  0.3715 -0.6832
14706TIP3   OH265532   3.837   0.208   0.017 -0.2016 -0.5422  0.1466
14706TIP3    H165533   3.771   0.140   0.001 -0.0943 -0.9130  1.2115
14706TIP3    H265534   3.801   0.286  -0.025 -1.5856 -0.6116  1.1342
14707TIP3   OH265535   1.207   0.517  11.477 -0.0211 -0.0907 -0.3339
14707TIP3    H165536   1.145   0.531  11.406  0.8410 -0.8486 -1.2646
14707TIP3    H265537   1.292   0.509  11.434  0.3814 -1.6902  0.6554
14708TIP3   OH265538   3.373   4.324  13.618 -0.7664  0.0347  0.2924
14708TIP3    H165539   3.354   4.301  13.709 -3.2630  0.2701 -0.0885
14708TIP3    H265540   3.396   4.241  13.577 -0.7052 -0.2576  0.9056
14709TIP3   OH265541   0.085   0.541   5.272 -0.1521  0.9826  0.1462
14709TIP3    H165542  -0.009   0.551   5.256 -0.3086  1.9542  1.4707
14709TIP3    H265543   0.108   0.459   5.229 -1.4014  1.2133 -1.0174
14710TIP3   OH265544   0.973   1.820   5.499  0.1208  0.0733 -0.2442
14710TIP3    H165545   1.055   1.820   5.451  0.5352  0.3315  0.4570
14710TIP3    H265546   0.924   1.895   5.464  0.7260  0.7057  0.2545
14711TIP3   OH265547   0.811   0.241   0.904 -0.1759 -0.2948 -0.1767
14711TIP3    H165548   0.760   0.161   0.897 -0.8544  0.2515 -1.9906
14711TIP3    H265549   0.824   0.253   0.998 -0.9793 -1.9423  0.1774
14712TIP3   OH265550   1.600   2.884   4.636 -0.7216  0.1816 -0.4510
14712TIP3    H165551   1.669   2.923   4.690  0.5623 -0.6599 -1.4343
14712TIP3    H265552   1.605   2.932   4.553 -3.0768  1.8778  0.2774
14713TIP3   OH265553   0.363   1.654  11.896  0.4382 -0.1363  0.3406
14713TIP3    H165554   0.365   1.579  11.836  0.0417  0.3145 -0.2410
14713TIP3    H265555   0.291   1.634  11.957  1.3500 -0.9736  1.1866
14714TIP3   OH265556   6.767   3.300   5.195 -0.1373 -0.0201 -0.5148
14714TIP3    H165557   6.707   3.318   5.122  1.2195  0.6271 -1.4967
14714TIP3    H265558   6.787   3.386   5.231  0.7593 -0.1650 -0.6589
14715TIP3   OH265559   5.419   6.599   0.288 -0.1637  0.0944  0.4376
14715TIP3    H165560   5.436   6.505   0.282  0.1394  0.2309 -1.5513
14715TIP3    H265561   5.505   6.640   0.279 -0.2616  0.5704  1.5469
14716TIP3   OH265562   5.314   0.571  15.719 -0.1176 -0.7189 -0.3384
14716TIP3    H165563   5.408   0.568  15.736  0.0490 -0.1846 -1.1191
14716TIP3    H265564   5.275   0.532  15.797  0.7438 -0.8661  0.0366
14717TIP3   OH265565   3.611   2.867  15.444  0.2041 -1.0859  0.3381
14717TIP3    H165566   3.704   2.858  15.466 -0.0260  0.8058  2.4003
14717TIP3    H265567   3.587   2.955  15.473 -2.7503 -2.2719  1.9407
14718TIP3   OH265568   1.285   3.448   1.061  0.1243 -0.0859  0.0740
14718TIP3    H165569   1.202   3.403   1.074  0.7573 -1.8388 -1.4825
14718TIP3    H265570   1.299   3.447   0.966  1.3002  1.3796  0.1812
14719TIP3   OH265571   3.723   5.357   0.019  0.2436 -0.4871 -0.4509
14719TIP3    H165572   3.744   5.445  -0.014  0.6936 -0.7533 -0.8827
14719TIP3    H265573   3.645   5.331  -0.031  1.6887 -1.4393 -2.3596
14720TIP3   OH265574   4.306   4.329   4.135  0.5748  0.2666 -0.3615
14720TIP3    H165575   4.381   4.389   4.131  1.6754 -1.1178 -2.0375
14720TIP3    H265576   4.234   4.383   4.168  2.2347  1.6947  1.1440
14721TIP3   OH265577   4.650   6.330   2.072  0.5832  0.3420  0.1543
14721TIP3    H165578   4.641   6.324   2.167  0.2588  0.4924  0.1355
14721TIP3    H265579   4.733   6.286   2.052  0.1530 -0.5975  0.4017
14722TIP3   OH265580   2.003   5.837  13.635 -0.0370  0.3596 -0.1608
14722TIP3    H165581   2.000   5.830  13.539  1.3549  0.6282 -0.2433
14722TIP3    H265582   2.078   5.785  13.660  0.2155  1.1191  0.6994
14723TIP3   OH265583   5.897   6.591   3.972 -0.0387  0.5955 -0.2044
14723TIP3    H165584   5.859   6.648   3.905  2.1312  0.6322 -1.4921
14723TIP3    H265585   5.945   6.650   4.029 -1.1355  0.4555  0.9141
14724TIP3   OH265586   6.625   0.141  15.474  0.0686 -0.4754 -0.3307
14724TIP3    H165587   6.549   0.083  15.480 -0.5077  0.3935  1.1420
14724TIP3    H265588   6.641   0.170  15.563  0.9647  0.8474 -0.8822
14725TIP3   OH265589   5.881   1.472   2.469 -0.3425 -0.0522  0.2542
14725TIP3    H165590   5.957   1.417   2.450 -0.4077 -1.3420  3.3043
14725TIP3    H265591   5.815   1.412   2.503 -2.1888  1.2878 -0.7564
14726TIP3   OH265592   2.477   0.010  14.433 -0.3935 -0.0541 -0.0757
14726TIP3    H165593   2.571   0.026  14.428  0.1904 -2.9595 -0.2107
14726TIP3    H265594   2.460  -0.006  14.526 -0.2664 -1.6790 -0.2967
14727TIP3   OH265595   1.851   3.084  15.151  0.1383 -0.4193  0.3140
14727TIP3    H165596   1.893   3.022  15.211 -1.7992  0.2841  2.5791
14727TIP3    H265597   1.836   3.162  15.205 -0.8990  0.5987 -1.3604
14728TIP3   OH265598   4.415   6.761  15.918 -0.0336 -0.7902  0.2487
14728TIP3    H165599   4.362   6.840  15.914  1.5807  0.3146  0.0922
14728TIP3    H265600   4.452   6.761  16.007  2.9773  0.7072 -0.9012
14729TIP3   OH265601   0.769   3.801  17.079 -0.6534 -0.5077  0.0847
14729TIP3    H165602   0.854   3.804  17.037 -1.4364 -2.1423 -1.7474
14729TIP3    H265603   0.765   3.714  17.119 -1.8946 -0.9139 -0.8753
14730TIP3   OH265604   0.694   6.747  15.243  0.4141 -0.3006  1.1843
14730TIP3    H165605   0.776   6.788  15.270  1.0730 -1.5498  1.1519
14730TIP3    H265606   0.708   6.723  15.152 -0.3613  0.3659  0.8796
14731TIP3   OH265607   5.118   1.663  15.300  0.2042 -0.2615 -0.4931
14731TIP3    H165608   5.037   1.637  15.344 -0.0497  0.0509 -0.7646
14731TIP3    H265609   5.112   1.759  15.294  0.4091 -0.2688 -0.8647
14732TIP3   OH265610   5.405   2.003   4.778 -0.1855  0.1849 -0.2875
14732TIP3    H165611   5.424   1.999   4.872  0.6267  0.5942 -0.4246
14732TIP3    H265612   5.463   2.071   4.745  2.0383 -2.2174 -1.6642
14733TIP3   OH265613   1.879   0.711  12.495  0.3706 -0.5118  0.3239
14733TIP3    H165614   1.913   0.704  12.406  1.9797  1.8217  0.6602
14733TIP3    H265615   1.953   0.687  12.551  1.1066  2.9403  1.0421
14734TIP3   OH265616   0.295   2.055   5.528  0.3567 -0.2458  1.1376
14734TIP3    H165617   0.384   2.087   5.513  1.1089 -2.2770  1.0482
14734TIP3    H265618   0.303   1.997   5.604 -0.8294 -0.7014  0.9323
14735TIP3   OH265619   4.969   5.802   2.786 -0.3200  0.1036 -0.0968
14735TIP3    H165620   4.995   5.712   2.766  1.6038  0.1459  1.8949
14735TIP3    H265621   5.049   5.844   2.818 -1.1122  2.6142 -1.1189
14736TIP3   OH265622   5.194   5.380  16.323  0.3417 -0.3500  0.0522
14736TIP3    H165623   5.281   5.379  16.363  0.5946  0.4800 -0.4381
14736TIP3    H265624   5.147   5.308  16.364  1.8484 -1.9853 -0.9724
14737TIP3   OH265625   4.784   2.840   3.806  0.2091  0.3050 -0.0834
14737TIP3    H165626   4.718   2.774   3.784  1.7025 -0.6582 -1.9024
14737TIP3    H265627   4.852   2.791   3.852  1.8137  0.3059 -2.3454
14738TIP3   OH265628   6.691   3.809  15.888  0.0647 -0.0867 -0.6623
14738TIP3    H165629   6.666   3.870  15.819 -1.4230 -0.6354 -0.6538
14738TIP3    H265630   6.661   3.852  15.969 -1.4844 -1.0295 -0.7021
14739TIP3   OH265631   3.864   6.616   1.082  0.3792  0.2828 -0.0606
14739TIP3    H165632   3.844   6.626   0.989  2.3320 -1.0876 -0.7127
14739TIP3    H265633   3.809   6.543   1.111 -0.4370  0.8955 -0.0581
14740TIP3   OH265634   1.732   4.279  14.586 -0.1559  0.0941  0.2400
14740TIP3    H165635   1.713   4.373  14.580  1.6277  0.6021  1.6243
14740TIP3    H265636   1.776   4.258  14.503  1.6067  1.0894  0.8696
14741TIP3   OH265637   1.101   3.046  11.572  0.3516  0.4193  0.7725
14741TIP3    H165638   1.182   3.055  11.522 -0.8441 -1.4227 -1.7175
14741TIP3    H265639   1.057   3.131  11.563  1.4424  1.0399  1.1476
14742TIP3   OH265640   2.724   0.421  15.731  0.2977 -0.1696 -0.2665
14742TIP3    H165641   2.766   0.419  15.645 -0.1527  2.8742 -0.6917
14742TIP3    H265642   2.788   0.464  15.788 -0.8386  1.3746 -0.0856
14743TIP3   OH265643   3.564   2.386   0.226 -0.0714  0.6303  0.1822
14743TIP3    H165644   3.517   2.332   0.289 -0.0997  2.0696  1.4707
14743TIP3    H265645   3.496   2.437   0.183  0.0314  0.3155 -0.3596
14744TIP3   OH265646   1.730   0.241   4.513 -0.1664 -0.0573 -0.0895
14744TIP3    H165647   1.733   0.188   4.593 -2.3895  1.4519  1.1156
14744TIP3    H265648   1.786   0.316   4.532  1.4156 -0.9436 -1.0389
14745TIP3   OH265649   4.699   2.105   3.092 -0.5087 -0.4953  0.1155
14745TIP3    H165650   4.667   2.116   3.002 -1.4035 -1.7720  0.2472
14745TIP3    H265651   4.789   2.074   3.082 -0.0950  0.7935 -0.3036
14746TIP3   OH265652   4.026   5.419  11.565  0.2819  0.1241  0.1585
14746TIP3    H165653   4.105   5.449  11.610 -0.3811 -0.2780  1.6432
14746TIP3    H265654   3.968   5.388  11.635 -1.9477  2.0618 -0.6966
14747TIP3   OH265655   0.656   0.132   3.662 -0.3711 -0.0775 -0.0154
14747TIP3    H165656   0.684   0.219   3.691 -1.0757 -0.0902  0.7470
14747TIP3    H265657   0.702   0.118   3.579 -0.2176  0.9954 -0.1236
14748TIP3   OH265658   3.164   0.104  11.873  0.2814 -0.1205  0.4102
14748TIP3    H165659   3.222   0.123  11.799  0.6473 -1.8567  0.1941
14748TIP3    H265660   3.218   0.051  11.932 -0.7638 -0.9148  0.6817
14749TIP3   OH265661   6.194   5.382   2.352 -0.3789 -0.1913  0.0230
14749TIP3    H165662   6.254   5.448   2.387 -0.8190 -0.1364  0.6750
14749TIP3    H265663   6.251   5.319   2.308  0.0497  0.6024 -0.5868
14750TIP3   OH265664   5.868   2.830   0.374  0.1099  0.2994 -0.0892
14750TIP3    H165665   5.784   2.787   0.386 -1.0850  2.6844  0.7483
14750TIP3    H265666   5.861   2.911   0.425  3.5725 -0.2147  1.4819
14751TIP3   OH265667   0.619   4.210  17.235 -0.2901  0.2026 -0.2322
14751TIP3    H165668   0.694   4.242  17.185 -0.8025  0.1958 -1.0196
14751TIP3    H265669   0.561   4.286  17.244 -0.5051  0.0411 -0.2317
14752TIP3   OH265670   5.283   0.452  13.405 -0.4807  0.2350  0.6002
14752TIP3    H165671   5.278   0.382  13.340 -1.2665 -0.2174  1.1400
14752TIP3    H265672   5.287   0.532  13.352  1.2592 -0.2143 -0.0437
14753TIP3   OH265673   2.442   2.266  14.615  0.3867 -0.1139  0.0301
14753TIP3    H165674   2.488   2.280  14.532  1.9142  2.3190  1.1518
14753TIP3    H265675   2.511   2.273  14.681 -0.9979 -0.6604  1.5880
14754TIP3   OH265676   1.757   3.494  13.272  0.3401 -0.0492  0.4887
14754TIP3    H165677   1.664   3.470  13.266 -0.3911  2.4230  1.1084
14754TIP3    H265678   1.779   3.525  13.184  0.6146 -0.6783  0.3293
14755TIP3   OH265679   2.456   0.406   5.674 -0.6514  0.4957  0.3929
14755TIP3    H165680   2.454   0.347   5.750  2.3240  0.0993  0.2956
14755TIP3    H265681   2.365   0.435   5.664 -1.6348 -1.4868  2.4669
14756TIP3   OH265682   6.207   4.905   3.285 -0.3282 -0.2042 -0.0495
14756TIP3    H165683   6.211   4.814   3.257  2.1378 -0.3489  0.5061
14756TIP3    H265684   6.244   4.904   3.374  0.0369  1.3586 -0.1565
14757TIP3   OH265685   5.663   0.761   5.094  0.1545  0.2772 -0.4952
14757TIP3    H165686   5.632   0.838   5.045  0.1355 -0.8606 -2.3976
14757TIP3    H265687   5.665   0.790   5.185 -2.4296  1.7199 -0.7939
14758TIP3   OH265688   3.847   5.990   4.019  0.0890 -0.3597  0.1286
14758TIP3    H165689   3.920   5.960   3.964  0.4348  0.7881 -0.0645
14758TIP3    H265690   3.856   5.940   4.100  0.6616 -0.7523 -0.1674
14759TIP3   OH265691   6.338   3.723   2.460 -0.2047  0.7784  0.9491
14759TIP3    H165692   6.368   3.647   2.510  1.8227  1.7197  1.2756
14759TIP3    H265693   6.334   3.692   2.370 -1.4978 -0.2697  1.3382
14760TIP3   OH265694   6.696   0.275   1.611 -0.2387  0.6343 -0.1425
14760TIP3    H165695   6.652   0.253   1.528 -0.3979  0.3419  0.0182
14760TIP3    H265696   6.644   0.346   1.647 -0.0385  0.9145 -0.4019
14761TIP3   OH265697   2.771   6.437   2.951 -0.0255  0.1142 -0.0454
14761TIP3    H165698   2.757   6.504   2.884  1.2822  1.2561  0.7788
14761TIP3    H265699   2.866   6.421   2.950 -0.2926 -1.7107 -0.1793
14762TIP3   OH265700   3.528   5.593  13.907  0.2955  0.8077 -0.3961
14762TIP3    H165701   3.509   5.521  13.848  0.3343 -0.5349  1.1577
14762TIP3    H265702   3.609   5.632  13.874  1.4357 -1.1934 -0.1196
14763TIP3   OH265703   2.324   6.548   4.003  0.1492 -0.4574 -0.6107
14763TIP3    H165704   2.229   6.552   4.012 -0.0750 -3.6277 -0.5484
14763TIP3    H265705   2.339   6.529   3.910  0.6004 -1.3569 -0.3686
14764TIP3   OH265706   4.520   0.301  15.530  0.2005 -0.6332  0.4389
14764TIP3    H165707   4.454   0.232  15.524 -2.7887  1.9261  1.1956
14764TIP3    H265708   4.486   0.371  15.475  3.7546 -0.0616 -1.3619
14765TIP3   OH265709   3.623   5.846  12.760  0.3743 -0.1312 -0.6201
14765TIP3    H165710   3.559   5.796  12.709  0.9495  0.1137 -1.5911
14765TIP3    H265711   3.571   5.912  12.806 -0.1204 -0.2101 -1.0617
14766TIP3   OH265712   2.797   0.719  14.152  0.0130 -0.1482  0.0337
14766TIP3    H165713   2.710   0.681  14.163 -0.0115 -0.3071 -0.6304
14766TIP3    H265714   2.854   0.643  14.135 -0.0769  0.0984 -1.5359
14767TIP3   OH265715   2.125   5.956  12.720  0.3873  0.0825  0.1918
14767TIP3    H165716   2.141   5.879  12.774  0.2243 -0.1656 -0.1092
14767TIP3    H265717   2.160   5.933  12.634 -1.4864 -0.4658 -0.4857
14768TIP3   OH265718   3.695   1.908   4.860 -0.6688 -0.0699  0.4405
14768TIP3    H165719   3.639   1.841   4.899  0.2558 -0.1806  1.6090
14768TIP3    H265720   3.746   1.943   4.933  0.1921  0.6216 -0.4621
14769TIP3   OH265721   4.998   5.164  14.826 -0.6932 -0.2022  0.0333
14769TIP3    H165722   5.074   5.124  14.784 -0.0492  0.6714  0.3361
14769TIP3    H265723   4.933   5.093  14.832 -0.1069 -0.8126 -0.7195
14770TIP3   OH265724   1.438   2.932   2.679  0.5572 -0.0412 -0.0169
14770TIP3    H165725   1.365   2.990   2.702  1.6430  1.3450  0.0808
14770TIP3    H265726   1.456   2.882   2.759 -0.2686 -0.4051 -0.0465
14771TIP3   OH265727   2.274   1.104  12.109 -0.1773 -0.6067 -0.7355
14771TIP3    H165728   2.333   1.054  12.052 -0.9301 -1.3072 -0.9093
14771TIP3    H265729   2.286   1.195  12.082  2.3935 -0.4275  0.6285
14772TIP3   OH265730   3.273   3.772   5.874 -0.1546 -0.1221 -0.5245
14772TIP3    H165731   3.296   3.818   5.793  0.6842  1.0333  0.3269
14772TIP3    H265732   3.181   3.750   5.865  0.1185 -0.7073 -2.1116
14773TIP3   OH265733   6.489   2.062  11.780  0.3155 -0.2520 -0.0976
14773TIP3    H165734   6.396   2.045  11.798 -0.0652  2.7216  1.3824
14773TIP3    H265735   6.488   2.115  11.700  0.8745 -1.1115 -0.6933
14774TIP3   OH265736   0.837   6.166  12.981 -0.0430  0.3590  0.8061
14774TIP3    H165737   0.820   6.126  12.895 -0.4012  0.0144  1.0350
14774TIP3    H265738   0.932   6.172  12.986 -0.0182  0.3593  0.3921
14775TIP3   OH265739   3.869   1.401   2.462  0.1639 -0.0759  0.0410
14775TIP3    H165740   3.954   1.443   2.473  0.3748 -0.8183  1.3826
14775TIP3    H265741   3.806   1.466   2.493  0.4406 -0.4544  1.4664
14776TIP3   OH265742   0.873   2.488   5.376  0.0907 -0.1963  0.2014
14776TIP3    H165743   0.872   2.520   5.466 -1.4030 -1.6458  0.7474
14776TIP3    H265744   0.934   2.414   5.378  1.4114  0.8272 -0.4257
14777TIP3   OH265745   5.846   3.961  11.885  0.1032  1.0913 -0.0393
14777TIP3    H165746   5.854   3.927  11.975 -1.1493 -0.2340 -0.3921
14777TIP3    H265747   5.934   3.953  11.849  0.3660  0.5100  0.6972
14778TIP3   OH265748   3.522   3.069   0.707 -0.0793 -0.4224  0.2159
14778TIP3    H165749   3.535   3.090   0.614 -0.3299  0.5643  0.3921
14778TIP3    H265750   3.592   3.116   0.752 -0.3671 -0.3531  0.5924
14779TIP3   OH265751   0.098   5.122  15.074  0.4425 -0.3842 -0.1621
14779TIP3    H165752   0.015   5.156  15.108  0.3507  1.0007 -1.6732
14779TIP3    H265753   0.087   5.027  15.076 -0.6989 -0.2510  0.8172
14780TIP3   OH265754   2.468   0.720   3.019 -0.1686 -0.6522 -0.0430
14780TIP3    H165755   2.413   0.657   2.972 -1.4613  0.0723  0.4363
14780TIP3    H265756   2.418   0.742   3.097 -0.6456  2.2663 -1.0082
14781TIP3   OH265757   3.149   0.858  11.133 -0.0095 -0.5020 -0.2033
14781TIP3    H165758   3.054   0.862  11.143  0.1800  2.1706  1.6423
14781TIP3    H265759   3.166   0.904  11.050 -0.2905 -0.5528 -0.2921
14782TIP3   OH265760   3.472   4.632   4.293  0.7777  0.1513  0.0055
14782TIP3    H165761   3.435   4.623   4.381  0.3887  0.6762 -0.0999
14782TIP3    H265762   3.436   4.558   4.244  1.1325 -0.2419  0.3316
14783TIP3   OH265763   1.755   4.747   0.421 -0.5358 -0.0868 -0.0914
14783TIP3    H165764   1.676   4.697   0.443 -0.6561 -0.0825 -0.5136
14783TIP3    H265765   1.743   4.832   0.463 -0.6747 -0.1460 -0.0109
14784TIP3   OH265766   3.665   2.856  16.228 -0.1862  0.4884 -0.2561
14784TIP3    H165767   3.684   2.762  16.230 -0.7533  0.3776  0.5959
14784TIP3    H265768   3.684   2.882  16.138  2.5857  0.1237  0.1131
14785TIP3   OH265769   1.530   2.130  14.455 -0.5498 -0.5088 -0.8584
14785TIP3    H165770   1.602   2.086  14.410 -1.0658  0.6694 -2.9470
14785TIP3    H265771   1.553   2.223  14.453 -0.9024 -0.3534  0.8042
14786TIP3   OH265772   1.982   5.048   1.678  0.0420 -0.5498  0.3541
14786TIP3    H165773   2.044   5.025   1.747 -0.8171 -2.5911  0.5167
14786TIP3    H265774   1.922   5.110   1.719  0.0878 -1.0348  1.1649
14787TIP3   OH265775   6.784   0.945  12.733 -0.2642  0.3069 -0.3323
14787TIP3    H165776   6.829   1.025  12.704  0.3904  0.1686  0.2673
14787TIP3    H265777   6.777   0.892  12.654 -0.2236  0.7317 -0.6276
14788TIP3   OH265778   0.383   0.108   3.494  0.4730 -0.0820  0.1313
14788TIP3    H165779   0.471   0.104   3.530  0.7550 -0.8684 -0.5995
14788TIP3    H265780   0.393   0.155   3.411  0.6651 -2.2544 -1.1462
14789TIP3   OH265781   2.642   3.641  12.116  0.4790 -0.0565  0.0556
14789TIP3    H165782   2.724   3.687  12.137 -1.4389  3.5527  0.3514
14789TIP3    H265783   2.621   3.594  12.197  0.8620  1.3316  1.0150
14790TIP3   OH265784   2.229   0.014   3.104  0.4478 -0.6384  0.6100
14790TIP3    H165785   2.202   0.095   3.148  0.9581 -0.4548  0.6008
14790TIP3    H265786   2.203  -0.055   3.164 -0.7637 -0.5363  0.2350
14791TIP3   OH265787   1.730   3.478  13.628  0.0837  0.1137  0.5655
14791TIP3    H165788   1.791   3.408  13.607  0.1607  0.3313  0.0668
14791TIP3    H265789   1.781   3.540  13.681 -0.1572 -0.5158  1.5690
14792TIP3   OH265790   4.134   0.816  15.984 -0.3762  0.0213  0.4275
14792TIP3    H165791   4.087   0.895  16.010 -1.2579 -0.3940  0.1353
14792TIP3    H265792   4.154   0.772  16.066 -1.1941 -0.1843  0.5200
14793TIP3   OH265793   4.539   0.041  10.332  0.6078 -0.2159  0.2988
14793TIP3    H165794   4.462   0.008  10.377 -0.8761 -0.0799 -1.9899
14793TIP3    H265795   4.557   0.125  10.375  0.4197 -0.9206  1.8184
14794TIP3   OH265796   5.790   1.653   5.868 -0.1267  0.1130  0.6136
14794TIP3    H165797   5.848   1.579   5.887 -0.0814 -0.5017 -1.6507
14794TIP3    H265798   5.834   1.701   5.798  0.1048  2.6674  2.3752
14795TIP3   OH265799   1.758   0.593   2.712 -0.1402  0.3028  0.3518
14795TIP3    H165800   1.728   0.643   2.636 -1.0032  0.6000  0.8765
14795TIP3    H265801   1.764   0.658   2.782 -1.9611 -0.4211  1.2223
14796TIP3   OH265802   0.527   2.095  12.208 -0.3770 -0.1592 -0.1085
14796TIP3    H165803   0.474   2.170  12.233 -0.0789  0.1839 -0.4927
14796TIP3    H265804   0.475   2.019  12.235 -0.4332  0.1834  0.7842
14797TIP3   OH265805   4.262   5.490   2.605  0.1405  0.0266 -0.6580
14797TIP3    H165806   4.325   5.431   2.647 -2.2322 -2.3601 -0.1724
14797TIP3    H265807   4.236   5.551   2.674  0.1766 -0.5018 -0.1720
14798TIP3   OH265808   2.417   2.823   3.277  0.2403 -0.1239  0.1489
14798TIP3    H165809   2.502   2.784   3.254  0.1048 -0.4153  0.1315
14798TIP3    H265810   2.376   2.843   3.192  0.2328 -0.1145  0.1547
14799TIP3   OH265811   5.020   0.926  16.404 -0.0202  0.1794 -0.2884
14799TIP3    H165812   5.084   0.866  16.440  1.7825  1.1387 -1.7252
14799TIP3    H265813   5.057   0.953  16.320 -2.7364  0.0891 -1.6300
14800TIP3   OH265814   5.772   1.967  16.564  0.0393  0.4902  0.5636
14800TIP3    H165815   5.773   2.015  16.482  1.2502  1.0363  0.8729
14800TIP3    H265816   5.737   2.029  16.628 -1.1142 -0.0065  0.4357
14801TIP3   OH265817   1.330   1.513  13.191 -0.1668  0.0630 -0.5801
14801TIP3    H165818   1.259   1.509  13.127  0.1509 -0.2539 -0.9143
14801TIP3    H265819   1.401   1.558  13.146 -0.2833  0.7409 -0.1155
14802TIP3   OH265820   6.786   0.905  11.388 -0.4618 -0.6515  0.3275
14802TIP3    H165821   6.807   0.813  11.372 -0.4526 -0.5135 -0.5353
14802TIP3    H265822   6.691   0.911  11.378 -0.5734 -0.7231  1.2620
14803TIP3   OH265823   0.216   1.845   1.276 -0.0799 -0.0617 -0.6002
14803TIP3    H165824   0.280   1.777   1.295 -0.4614 -0.2286  0.1114
14803TIP3    H265825   0.267   1.926   1.276  0.3442 -0.3237 -1.2883
14804TIP3   OH265826   3.199   4.357   4.902  0.2238 -0.0265 -0.1714
14804TIP3    H165827   3.246   4.401   4.972 -1.6191 -0.2620  1.3160
14804TIP3    H265828   3.240   4.270   4.895 -0.3811 -0.4818  1.5584
14805TIP3   OH265829   5.207   4.787  12.695  0.5809 -0.0383  0.4282
14805TIP3    H165830   5.149   4.795  12.619  0.5693  2.6470  0.6037
14805TIP3    H265831   5.273   4.855  12.681 -0.9960  2.5840  4.0853
14806TIP3   OH265832   5.935   3.320   3.476 -0.7888 -0.5848  0.4806
14806TIP3    H165833   5.881   3.376   3.421 -0.3635 -1.0046 -0.3952
14806TIP3    H265834   5.882   3.303   3.553 -1.7131 -0.6009 -0.1414
14807TIP3   OH265835   2.820   2.954  17.180 -0.1010  0.0981 -0.4028
14807TIP3    H165836   2.805   2.935  17.272  0.0820 -0.1487 -0.4206
14807TIP3    H265837   2.831   2.867  17.140 -3.3530 -0.0588 -1.2391
14808TIP3   OH265838   2.066   1.894  13.277 -0.7368  0.7696  0.5338
14808TIP3    H165839   2.066   1.849  13.192  0.7034 -1.7939  1.7385
14808TIP3    H265840   2.158   1.914  13.293 -1.0089  1.3941  1.4007
14809TIP3   OH265841   1.298   2.200  11.950  0.2365  0.4602 -0.0223
14809TIP3    H165842   1.370   2.253  11.985  2.5466 -2.4445  0.1213
14809TIP3    H265843   1.257   2.162  12.028  0.6847 -0.3603 -0.1678
14810TIP3   OH265844   0.890   4.725  14.684  0.2621 -0.6741 -0.6248
14810TIP3    H165845   0.830   4.757  14.751 -0.1130  1.8466 -2.0121
14810TIP3    H265846   0.865   4.633  14.671 -2.8728  0.0700 -0.6259
14811TIP3   OH265847   1.264   2.523  13.430 -0.0190 -0.6808 -0.1810
14811TIP3    H165848   1.302   2.513  13.343 -0.7719  2.5112 -0.9989
14811TIP3    H265849   1.338   2.546  13.486  0.2424 -1.2654 -0.2794
14812TIP3   OH265850   2.617   6.000  14.432 -0.1186  0.4289  0.3436
14812TIP3    H165851   2.545   5.942  14.406  0.1566 -0.4489  1.4712
14812TIP3    H265852   2.672   6.004  14.354  0.2377 -1.4439  0.4466
14813TIP3   OH265853   5.856   0.589   5.293 -0.0926 -0.0152  0.4533
14813TIP3    H165854   5.810   0.510   5.265 -0.2931 -0.0059  0.7527
14813TIP3    H265855   5.789   0.641   5.339 -0.1463  0.6512 -0.3487
14814TIP3   OH265856   2.946   2.558   4.799  0.1577 -0.5151  0.2779
14814TIP3    H165857   2.906   2.567   4.713 -0.9798  0.5071  0.8746
14814TIP3    H265858   3.002   2.635   4.808  0.6453 -0.8662  0.2649
14815TIP3   OH265859   6.272   4.765   3.725 -0.6499 -0.0883  0.1242
14815TIP3    H165860   6.296   4.678   3.694  0.7757  0.3947 -0.1581
14815TIP3    H265861   6.298   4.765   3.817  3.1894  1.3253 -0.7848
14816TIP3   OH265862   0.594   4.117   5.548  0.6340  0.6495 -0.2909
14816TIP3    H165863   0.553   4.094   5.631 -0.7959  1.2773 -0.7879
14816TIP3    H265864   0.554   4.201   5.524  0.7402  0.3064 -1.7716
14817TIP3   OH265865   4.257   0.811  13.727  0.0579 -0.1918  0.4627
14817TIP3    H165866   4.169   0.835  13.699 -0.2545  0.6008  2.0480
14817TIP3    H265867   4.293   0.892  13.764  1.8180 -0.2414 -0.9940
14818TIP3   OH265868   6.572   6.167   3.098  0.7067 -0.4004  0.3896
14818TIP3    H165869   6.602   6.107   3.166 -0.7054 -2.0420 -0.3560
14818TIP3    H265870   6.526   6.236   3.145 -1.4072 -2.1927  1.0950
14819TIP3   OH265871   4.605   3.812   5.927  0.2492 -0.1022  1.0659
14819TIP3    H165872   4.530   3.765   5.965  0.5700 -2.2845 -0.8044
14819TIP3    H265873   4.678   3.790   5.985  0.2847 -1.5580  0.5080
14820TIP3   OH265874   5.853   5.237  15.507  0.2977  0.0433 -0.4441
14820TIP3    H165875   5.770   5.284  15.498  0.9402  1.0134 -1.5777
14820TIP3    H265876   5.916   5.289  15.457  1.9278  0.1128  1.5496
14821TIP3   OH265877   6.675   3.306   3.565  0.5599 -0.1809  0.7252
14821TIP3    H165878   6.716   3.391   3.577  0.2306  0.0139  0.5071
14821TIP3    H265879   6.584   3.326   3.542  0.4345 -0.5929  0.8372
14822TIP3   OH265880   3.441   2.455  10.835  0.1202  0.5135  0.2229
14822TIP3    H165881   3.362   2.420  10.793  1.4503 -0.5944 -1.4630
14822TIP3    H265882   3.430   2.550  10.831 -0.5424  0.4053 -1.1945
14823TIP3   OH265883   1.528   5.253  14.117 -0.2224 -0.2705  0.2161
14823TIP3    H165884   1.525   5.158  14.119 -0.5160 -0.2660  0.0377
14823TIP3    H265885   1.496   5.281  14.203  0.8705 -0.3472  0.6702
14824TIP3   OH265886   6.035   2.536   6.170 -0.1992  0.1807 -0.0059
14824TIP3    H165887   6.114   2.489   6.199 -0.2927 -1.7100 -2.4284
14824TIP3    H265888   5.963   2.493   6.216 -0.0030  0.1983  0.3167
14825TIP3   OH265889   5.351   2.582  16.449  0.0233  0.4285 -0.7755
14825TIP3    H165890   5.381   2.501  16.491  0.6072  0.6029 -0.8430
14825TIP3    H265891   5.370   2.569  16.356  1.0282  1.0227 -0.6677
14826TIP3   OH265892   6.520   1.576  15.407 -0.6867 -0.1302  0.1443
14826TIP3    H165893   6.450   1.570  15.472 -0.6795  0.3404  0.2005
14826TIP3    H265894   6.535   1.486  15.379 -0.9039 -0.3000  0.5697
14827TIP3   OH265895   3.209   0.372   2.826 -0.5266  0.4129  0.1299
14827TIP3    H165896   3.251   0.287   2.813 -1.3905  0.1323 -0.9615
14827TIP3    H265897   3.135   0.373   2.764 -0.2858  2.1193 -0.1997
14828TIP3   OH265898   2.107   4.938   2.978  0.1178 -1.0424 -0.3346
14828TIP3    H165899   2.094   4.858   2.926 -0.5131 -0.8429 -0.4936
14828TIP3    H265900   2.188   4.923   3.025  1.0134 -1.0198 -1.7999
14829TIP3   OH265901   1.193   2.391  15.010 -0.0829  0.3378  0.3131
14829TIP3    H165902   1.121   2.426  14.956  0.4568 -0.0226 -0.6681
14829TIP3    H265903   1.178   2.297  15.010  0.3681  0.2668  0.1360
14830TIP3   OH265904   1.853   0.486   6.866 -0.0789 -0.3144  0.3710
14830TIP3    H165905   1.891   0.573   6.855 -0.6925 -0.0889 -0.0063
14830TIP3    H265906   1.907   0.430   6.810  0.5423 -0.2515  0.8948
14831TIP3   OH265907   6.722   4.363  10.618 -0.2065  0.0932  0.1556
14831TIP3    H165908   6.816   4.369  10.635 -0.1774 -0.8745  0.3728
14831TIP3    H265909   6.692   4.291  10.673 -1.2397  0.9591  0.7580
14832TIP3   OH265910   6.751   6.541   2.479 -0.0621  0.4394  0.8459
14832TIP3    H165911   6.688   6.474   2.505  0.4002 -0.7506 -0.9145
14832TIP3    H265912   6.836   6.506   2.504  0.1357  0.6688  0.4990
14833TIP3   OH265913   4.850   2.986   3.301 -0.0883  0.2108  0.5149
14833TIP3    H165914   4.807   2.915   3.349  0.3497 -0.8283 -0.5726
14833TIP3    H265915   4.927   2.944   3.261  1.2509  1.7267  1.3798
14834TIP3   OH265916   2.865   3.823  14.333  0.4951  0.8356  0.0905
14834TIP3    H165917   2.888   3.846  14.243  2.6095  1.8094  0.8288
14834TIP3    H265918   2.794   3.883  14.356  1.0346  1.6815 -0.4136
14835TIP3   OH265919   6.760   6.403   3.299 -0.1285  0.5047 -0.5499
14835TIP3    H165920   6.756   6.308   3.309 -1.4497  0.7465  2.3020
14835TIP3    H265921   6.678   6.435   3.338  0.5816  2.8370 -0.7907
14836TIP3   OH265922   0.469   4.298  13.638  0.1851  1.0160  0.6430
14836TIP3    H165923   0.477   4.308  13.733  1.5150 -0.8031  0.7730
14836TIP3    H265924   0.516   4.374  13.602  1.4785  0.6530  1.4784
14837TIP3   OH265925   0.962   5.247   4.040  0.4088 -0.1104 -0.1832
14837TIP3    H165926   0.948   5.193   3.963 -1.1827 -0.2323  0.1615
14837TIP3    H265927   0.889   5.227   4.098  2.4781 -1.3614  2.1923
14838TIP3   OH265928   0.010   2.355   6.121 -0.6478  0.4482 -0.5518
14838TIP3    H165929   0.061   2.315   6.051 -2.0249 -0.7700 -0.9081
14838TIP3    H265930   0.021   2.296   6.196  1.8345  2.3734  0.7694
14839TIP3   OH265931   2.829   6.471  14.616  0.4068 -0.0658 -0.0312
14839TIP3    H165932   2.869   6.411  14.553  0.9709 -0.9702  1.1376
14839TIP3    H265933   2.902   6.505  14.667 -0.1825 -1.3314  1.7937
14840TIP3   OH265934   5.073   0.825  11.933 -0.6239 -0.3862 -0.4127
14840TIP3    H165935   5.068   0.752  11.995  3.4694 -0.9953 -0.4743
14840TIP3    H265936   5.102   0.784  11.851  0.0961  1.1069 -0.9322
14841TIP3   OH265937   3.203   6.507   2.732 -0.0631  0.0136  0.1107
14841TIP3    H165938   3.240   6.586   2.773  1.0468 -0.0154 -0.7862
14841TIP3    H265939   3.279   6.462   2.695 -0.5587 -1.9365  1.3213
14842TIP3   OH265940   4.885   4.002  15.286  0.3939  0.3957 -0.0509
14842TIP3    H165941   4.937   4.038  15.214 -0.7360  1.0984 -0.5225
14842TIP3    H265942   4.837   3.929  15.247 -1.4042  1.7236 -0.4372
14843TIP3   OH265943   0.767   1.269  13.583  0.7577  0.0527  0.0544
14843TIP3    H165944   0.804   1.230  13.504 -1.7451  0.7530 -1.5664
14843TIP3    H265945   0.786   1.363  13.575  1.2181  0.0298  0.7423
14844TIP3   OH265946   1.412   3.057   6.384 -0.5387 -0.1288  0.2252
14844TIP3    H165947   1.382   3.093   6.467 -0.1032  1.8253 -0.4332
14844TIP3    H265948   1.381   3.119   6.318  0.8583 -0.5704 -0.8895
14845TIP3   OH265949   2.114   5.635  13.968  0.2530 -0.1209  0.1853
14845TIP3    H165950   2.036   5.619  13.914  2.0499 -1.7995 -2.1616
14845TIP3    H265951   2.178   5.572  13.935  3.2558  2.5011  0.5938
14846TIP3   OH265952   1.439   2.407  12.549  0.0331 -0.1727  0.1290
14846TIP3    H165953   1.435   2.484  12.606  1.0294 -1.2751  1.7525
14846TIP3    H265954   1.517   2.421  12.495  0.7707 -0.4639  1.0931
14847TIP3   OH265955   4.583   1.015  17.057 -0.2606  0.6647  0.7971
14847TIP3    H165956   4.608   1.069  17.133  0.6271 -0.4230  1.3057
14847TIP3    H265957   4.651   0.947  17.053 -0.1574  0.8368 -1.1328
14848TIP3   OH265958   1.233   5.622   1.424 -0.4600 -0.6234 -0.3369
14848TIP3    H165959   1.237   5.546   1.365 -2.6029 -0.3185 -0.9625
14848TIP3    H265960   1.313   5.616   1.476  0.7885 -1.7376 -2.2677
14849TIP3   OH265961   6.364   0.929   5.520 -0.1892 -0.2233 -0.9597
14849TIP3    H165962   6.333   1.018   5.508  0.3068  0.1471  0.2934
14849TIP3    H265963   6.285   0.879   5.540 -0.2710  0.2913  0.0636
14850TIP3   OH265964   4.019   3.897  16.815 -0.1940  0.5949 -0.6635
14850TIP3    H165965   4.071   3.969  16.850 -1.1440  0.3993  1.2686
14850TIP3    H265966   3.940   3.940  16.780 -1.4091  0.4862  1.7206
14851TIP3   OH265967   6.109   2.524  12.106 -0.5883  0.0406 -0.2756
14851TIP3    H165968   6.154   2.572  12.175  1.2290 -1.6088 -0.2370
14851TIP3    H265969   6.080   2.592  12.045 -1.1693  1.4292  1.4428
14852TIP3   OH265970   1.279   6.447   1.028  0.1066 -0.2693 -0.1928
14852TIP3    H165971   1.223   6.486   0.961  0.9284 -1.4793 -1.6289
14852TIP3    H265972   1.366   6.480   1.010 -0.1295  2.4301  2.6549
14853TIP3   OH265973   2.287   5.731  12.300 -0.4539 -0.2774 -0.1027
14853TIP3    H165974   2.350   5.698  12.235 -0.2182  0.8009 -0.4412
14853TIP3    H265975   2.203   5.698  12.269 -0.6252  1.7317 -2.0911
14854TIP3   OH265976   4.563   0.380  14.921  0.6144 -0.3752 -0.3134
14854TIP3    H165977   4.561   0.359  14.827  0.0154  1.4675 -0.7626
14854TIP3    H265978   4.643   0.432  14.932  1.3902 -1.6832  0.4989
14855TIP3   OH265979   4.633   0.070   3.058 -0.2151  0.0644 -0.3088
14855TIP3    H165980   4.659   0.137   2.995 -1.3735  0.4055 -0.4476
14855TIP3    H265981   4.540   0.057   3.042 -0.4082 -0.2520  0.9522
14856TIP3   OH265982   1.918   3.109  16.190  0.2020 -1.0248 -0.3696
14856TIP3    H165983   1.823   3.118  16.204  0.0972 -1.4067 -0.8015
14856TIP3    H265984   1.947   3.197  16.169 -0.2111 -1.0497 -1.0838
14857TIP3   OH265985   0.953   2.590   5.619  0.1620 -0.1738 -0.0304
14857TIP3    H165986   0.928   2.538   5.695  0.2180  0.5381  0.4876
14857TIP3    H265987   1.029   2.640   5.649  0.4096 -0.1611 -0.6757
14858TIP3   OH265988   4.732   4.726   1.002 -0.5193  0.1413  0.3202
14858TIP3    H165989   4.656   4.671   0.983 -1.4384  1.3670  0.3591
14858TIP3    H265990   4.803   4.689   0.949 -0.8463 -1.6384  1.0372
14859TIP3   OH265991   4.724   1.337  15.931  0.7096 -0.0828  0.5255
14859TIP3    H165992   4.731   1.394  16.008 -1.6794  0.0397  0.7179
14859TIP3    H265993   4.671   1.263  15.960 -0.5072  0.1200 -1.0531
14860TIP3   OH265994   2.389   6.708  13.251  0.5640 -0.0390 -0.1011
14860TIP3    H165995   2.353   6.621  13.269  0.5557 -0.2031 -0.8563
14860TIP3    H265996   2.482   6.693  13.239  0.5501  0.0426 -0.3110
14861TIP3   OH265997   5.463   3.772  12.925  0.2845  0.5403 -0.2192
14861TIP3    H165998   5.523   3.712  12.881  0.7206  1.9862 -1.7157
14861TIP3    H265999   5.383   3.722  12.938  1.3464 -1.0115  0.5931
14862TIP3   OH266000   6.548   5.244   0.557  0.0887 -0.0022  0.2475
14862TIP3    H166001   6.606   5.175   0.592 -0.7613 -0.5595  0.5835
14862TIP3    H266002   6.519   5.292   0.634 -0.1340  0.0814  0.1122
14863TIP3   OH266003   6.731   0.714   4.558  0.8339 -0.6153  0.1948
14863TIP3    H166004   6.676   0.722   4.635  0.0706 -2.8060 -0.0284
14863TIP3    H266005   6.679   0.749   4.486  0.9245  0.0001  0.4279
14864TIP3   OH266006   0.479   2.649   4.499  0.3563  0.1598  0.1226
14864TIP3    H166007   0.559   2.604   4.471  0.0727  0.8473 -1.9815
14864TIP3    H266008   0.446   2.691   4.419 -0.9919  1.6125  1.3714
14865TIP3   OH266009   3.923   0.260  13.688  0.0484 -0.3645  0.1601
14865TIP3    H166010   3.931   0.327  13.756 -0.3685 -0.1088 -0.0363
14865TIP3    H266011   3.907   0.311  13.608  0.3849 -0.6685 -0.1046
14866TIP3   OH266012   0.098   6.036  10.869  0.2285  0.1881  0.1436
14866TIP3    H166013   0.154   6.026  10.792 -0.7343 -0.4114 -0.5167
14866TIP3    H266014   0.026   5.974  10.853 -0.0079  0.0820  1.5174
14867TIP3   OH266015   5.147   2.125  16.573 -0.5169 -0.7069  0.6635
14867TIP3    H166016   5.109   2.148  16.658  0.4207 -1.4411  1.3046
14867TIP3    H266017   5.072   2.118  16.514 -1.1950 -0.3238  1.4607
14868TIP3   OH266018   2.151   0.641  12.037 -0.2227  0.1929  0.0899
14868TIP3    H166019   2.207   0.707  11.996 -2.3444  1.6713 -0.5946
14868TIP3    H266020   2.159   0.564  11.982 -0.2243  0.9762 -1.0411
14869TIP3   OH266021   0.689   4.760  16.827 -0.0277  0.0439  0.4705
14869TIP3    H166022   0.679   4.671  16.794 -2.7192  0.7310 -0.7866
14869TIP3    H266023   0.747   4.802  16.765  2.0340 -0.9890  1.5741
14870TIP3   OH266024   4.711   1.956   5.778  0.1001  0.2599  0.1537
14870TIP3    H166025   4.796   1.916   5.757  0.3387  0.3294  0.9656
14870TIP3    H266026   4.672   1.896   5.842 -0.2526  0.4877  0.1527
14871TIP3   OH266027   1.263   6.163   3.856 -0.4282 -0.3757  0.5857
14871TIP3    H166028   1.330   6.114   3.808  0.8422  1.7173  0.1432
14871TIP3    H266029   1.189   6.166   3.795 -0.6215 -1.8459  0.6918
14872TIP3   OH266030   4.669   3.657  11.563  0.4110  0.3208 -0.5454
14872TIP3    H166031   4.621   3.620  11.636  1.3567  1.3318  0.6312
14872TIP3    H266032   4.702   3.581  11.515 -1.4306 -0.3733 -0.8004
14873TIP3   OH266033   5.492   0.138  14.153 -0.2492 -0.0135 -0.4661
14873TIP3    H166034   5.404   0.143  14.116 -1.6906 -1.2866  2.4004
14873TIP3    H266035   5.529   0.057  14.116 -0.3469  0.3962 -1.4908
14874TIP3   OH266036   2.504   4.415   3.401 -0.4653  0.0073 -0.0392
14874TIP3    H166037   2.432   4.407   3.464  0.3368 -0.1747  0.8675
14874TIP3    H266038   2.583   4.410   3.454  0.2373 -0.4544 -1.0979
14875TIP3   OH266039   0.409   2.030   0.350  0.1527 -1.2250  0.3507
14875TIP3    H166040   0.469   2.094   0.388 -1.4483  1.0540 -0.7343
14875TIP3    H266041   0.328   2.042   0.399 -0.6078 -1.3788 -0.8345
14876TIP3   OH266042   5.083   4.251   2.106 -0.5605  0.5317  0.5842
14876TIP3    H166043   5.140   4.277   2.178 -0.5191 -0.0975  0.7862
14876TIP3    H266044   5.139   4.258   2.028 -0.5413  1.0006  0.6360
14877TIP3   OH266045   5.002   2.411   0.856  0.1816 -0.6336 -0.0194
14877TIP3    H166046   5.068   2.479   0.869  0.8421 -0.8076 -2.1160
14877TIP3    H266047   4.981   2.380   0.944  1.5040  0.7369  0.8091
14878TIP3   OH266048   4.851   3.552  12.846 -0.2226  0.2122 -0.0704
14878TIP3    H166049   4.812   3.591  12.767 -3.5422  0.3459  1.4689
14878TIP3    H266050   4.782   3.557  12.912  0.3676 -4.8988  1.3695
14879TIP3   OH266051   0.315   3.953  12.600  0.7586  0.8170  0.4045
14879TIP3    H166052   0.309   3.877  12.543 -1.3962  2.0224 -1.1227
14879TIP3    H266053   0.392   4.001  12.568  0.1424  0.9750 -0.9386
14880TIP3   OH266054   0.892   0.240   2.513 -0.7595  0.0307 -0.1005
14880TIP3    H166055   0.858   0.189   2.586 -0.9045  2.3412  1.5530
14880TIP3    H266056   0.824   0.234   2.446 -1.8561 -0.0410  0.9732
14881TIP3   OH266057   4.114   4.807   1.291 -0.3001  0.3556  0.7065
14881TIP3    H166058   4.191   4.863   1.292 -0.4896  0.6091  1.1800
14881TIP3    H266059   4.129   4.743   1.361 -1.6256  1.9319  2.5100
14882TIP3   OH266060   0.837   1.358   4.612  0.1795 -0.3472  0.7468
14882TIP3    H166061   0.801   1.289   4.667  0.0342  1.1052  2.5673
14882TIP3    H266062   0.766   1.421   4.602  0.3388 -0.3864 -0.7942
14883TIP3   OH266063   4.253   6.763  11.127  0.3402  0.1559  0.1727
14883TIP3    H166064   4.288   6.848  11.154 -0.1010 -0.1056  1.6175
14883TIP3    H266065   4.328   6.704  11.130  0.2642  0.0932  1.0157
14884TIP3   OH266066   2.091   0.415   3.712  0.4019 -0.0460  0.0275
14884TIP3    H166067   2.120   0.354   3.645 -1.3049 -0.5696 -0.2959
14884TIP3    H266068   2.090   0.364   3.793 -2.6190 -1.0664 -0.5176
14885TIP3   OH266069   3.350   5.540  14.538 -0.0460 -0.1283  0.1773
14885TIP3    H166070   3.288   5.471  14.518 -0.7435  0.6454 -0.3926
14885TIP3    H266071   3.373   5.577  14.453 -0.2290  0.7979  0.5230
14886TIP3   OH266072   5.353   5.072  13.841 -0.1434 -0.2712  0.3054
14886TIP3    H166073   5.301   5.090  13.920  0.8954  2.5529  0.4667
14886TIP3    H266074   5.389   4.985  13.855  1.6521  0.8636  4.0224
14887TIP3   OH266075   3.226   4.136  17.128  0.0592 -0.0542  0.1714
14887TIP3    H166076   3.282   4.173  17.060  0.8699 -0.5359  0.5713
14887TIP3    H266077   3.157   4.201  17.140  0.7009  0.6872 -0.1008
14888TIP3   OH266078   6.012   5.939  10.928 -0.0404  0.4134 -0.2346
14888TIP3    H166079   6.020   5.904  10.839 -1.8768 -0.1959 -0.2167
14888TIP3    H266080   6.083   5.897  10.976 -0.4448 -1.1299 -0.8977
14889TIP3   OH266081   4.904   2.566  10.695 -0.1875  0.3458  0.1228
14889TIP3    H166082   4.888   2.653  10.658  2.6821  0.6030 -0.8164
14889TIP3    H266083   5.000   2.560  10.702 -0.2046 -2.9973 -0.5238
14890TIP3   OH266084   0.713   1.486   5.364  0.1667 -0.1902  0.1982
14890TIP3    H166085   0.683   1.408   5.411  0.3069 -0.2383  0.2081
14890TIP3    H266086   0.646   1.501   5.297  0.4303 -0.6569 -0.1779
14891TIP3   OH266087   3.676   0.524   6.465 -0.3235 -0.1566 -0.3535
14891TIP3    H166088   3.692   0.476   6.547  0.4817  0.4202 -0.1563
14891TIP3    H266089   3.609   0.588   6.487 -0.0688  0.0345 -0.1191
14892TIP3   OH266090   4.579   5.177   4.067  0.5050  0.0953  0.1299
14892TIP3    H166091   4.548   5.139   3.985  1.3741 -0.8025  0.2107
14892TIP3    H266092   4.622   5.259   4.041  0.8080 -0.2023 -0.3079
14893TIP3   OH266093   3.599   6.173   4.832  0.3227  0.2462 -0.0826
14893TIP3    H166094   3.517   6.144   4.793 -0.6901  0.1684  1.9861
14893TIP3    H266095   3.664   6.163   4.762 -0.7131 -3.1309 -0.7494
14894TIP3   OH266096   5.732   4.058  14.067 -0.2466  0.3044 -0.1415
14894TIP3    H166097   5.715   4.041  13.974 -0.6651 -1.9966  0.2853
14894TIP3    H266098   5.649   4.040  14.111 -0.1178  1.5878  0.6874
14895TIP3   OH266099   2.538   4.594  13.368 -0.0906  0.1809  0.3501
14895TIP3    H166100   2.617   4.642  13.342 -0.7771  0.8114 -0.6048
14895TIP3    H266101   2.467   4.657  13.359 -0.8147 -0.5920  0.4959
14896TIP3   OH266102   1.870   2.089  13.270 -0.0369 -0.4499 -0.3512
14896TIP3    H166103   1.940   2.031  13.299 -0.0537  0.0039  0.6557
14896TIP3    H266104   1.853   2.063  13.180  1.5660 -0.4473 -0.6900
14897TIP3   OH266105   4.768   4.548  13.709 -0.5511  0.2028  0.0782
14897TIP3    H166106   4.765   4.547  13.614  1.3367 -1.9118 -0.0337
14897TIP3    H266107   4.721   4.469  13.736 -0.4265  0.3822  0.8625
14898TIP3   OH266108   5.962   4.408   2.961 -0.2543 -0.8787 -0.0169
14898TIP3    H166109   5.879   4.453   2.972 -0.1974 -0.8730  0.4157
14898TIP3    H266110   5.967   4.349   3.036  1.5633  1.3520  1.7717
14899TIP3   OH266111   4.110   3.004   3.220 -0.0657 -0.0190  0.4807
14899TIP3    H166112   4.099   3.027   3.128  1.4601 -1.4812 -0.1112
14899TIP3    H266113   4.071   3.077   3.268  1.8071  2.2698 -1.2841
14900TIP3   OH266114   5.163   3.101  11.538 -0.0352  0.0544 -0.3411
14900TIP3    H166115   5.072   3.089  11.565  0.4948 -0.7388  1.1922
14900TIP3    H266116   5.171   3.195  11.523 -1.6235 -0.0755 -2.5632
14901TIP3   OH266117   0.455   4.015  16.713  0.0533  0.3934 -0.1686
14901TIP3    H166118   0.440   4.066  16.793  1.7506  1.0103 -0.2093
14901TIP3    H266119   0.509   3.942  16.741 -0.2117  0.0365 -0.5787
14902TIP3   OH266120   1.866   0.320   4.225  0.0978 -0.2640  0.2422
14902TIP3    H166121   1.915   0.256   4.277  3.1348  1.5673 -0.0992
14902TIP3    H266122   1.818   0.372   4.289  1.2178 -0.1105  0.9969
14903TIP3   OH266123   5.093   4.482  15.483  0.2718 -0.4812  0.1591
14903TIP3    H166124   5.056   4.435  15.408  0.1045  0.1353 -0.1534
14903TIP3    H266125   5.187   4.467  15.477  0.3947  0.5997 -0.9123
14904TIP3   OH266126   3.624   5.949   3.360  0.1945  0.0670 -0.5995
14904TIP3    H166127   3.620   5.920   3.269 -0.6755 -1.1277 -0.1984
14904TIP3    H266128   3.574   5.884   3.408 -0.7339  1.5509  0.5153
14905TIP3   OH266129   0.601   6.425   2.020  0.5317  0.2939 -0.3017
14905TIP3    H166130   0.632   6.505   2.064  2.5375 -1.0177  0.8109
14905TIP3    H266131   0.559   6.374   2.089  1.4816 -0.6906 -0.4343
14906TIP3   OH266132   0.877   3.205   2.043  0.2273 -0.1420 -0.1540
14906TIP3    H166133   0.922   3.211   1.959  0.7384  2.9158  0.2295
14906TIP3    H266134   0.935   3.248   2.105 -1.9276  1.5637  0.8622
14907TIP3   OH266135   3.403   0.712   4.840  0.1802  0.6294  0.2019
14907TIP3    H166136   3.391   0.693   4.747  1.3553 -0.3466  0.2250
14907TIP3    H266137   3.480   0.768   4.843  0.2101  0.5668  0.5879
14908TIP3   OH266138   4.440   6.162  15.584 -0.3264 -0.2809 -0.3295
14908TIP3    H166139   4.507   6.171  15.516 -0.8726 -3.0370 -1.3981
14908TIP3    H266140   4.383   6.238  15.572  1.3221  0.9316 -0.8673
14909TIP3   OH266141   5.955   0.235   1.916  0.2127  0.1704 -0.5048
14909TIP3    H166142   6.005   0.226   1.835 -1.0226 -0.7392 -1.1838
14909TIP3    H266143   6.008   0.294   1.970  2.7379 -1.7828 -0.6472
14910TIP3   OH266144   0.098   2.207   1.257  0.1174  0.1721  0.0131
14910TIP3    H166145   0.193   2.206   1.247  0.1377 -0.0961  0.2205
14910TIP3    H266146   0.073   2.299   1.242  0.4022  0.2357 -0.0769
14911TIP3   OH266147   2.331   0.039   5.683 -0.8460  0.2890 -0.4957
14911TIP3    H166148   2.374   0.084   5.756 -0.0919  0.5913 -1.1168
14911TIP3    H266149   2.394  -0.025   5.653 -1.2125  0.0630 -0.7954
14912TIP3   OH266150   2.078   4.706  14.518 -0.3583  0.5298  0.6173
14912TIP3    H166151   2.134   4.765  14.570 -0.6136  0.6446  0.7606
14912TIP3    H266152   2.102   4.619  14.549  0.9717  0.4641 -0.5209
14913TIP3   OH266153   6.718   0.177   3.664  0.8279  0.4712  0.4626
14913TIP3    H166154   6.648   0.143   3.609 -0.5714  1.5214  1.4947
14913TIP3    H266155   6.799   0.148   3.622 -0.2219 -0.9612 -0.6525
14914TIP3   OH266156   0.493   3.176  14.995 -0.2476  0.4235 -0.0534
14914TIP3    H166157   0.473   3.090  15.031  0.9657 -0.0677 -0.4728
14914TIP3    H266158   0.552   3.158  14.921  0.9876  1.6699  0.5769
14915TIP3   OH266159   6.712   1.904   6.499  0.2628 -0.5129  0.1327
14915TIP3    H166160   6.698   1.977   6.559 -1.5245 -1.8941  1.5028
14915TIP3    H266161   6.624   1.876   6.475  0.9057 -0.2228 -2.9793
14916TIP3   OH266162   5.587   1.323   1.912 -0.3776 -0.1194  0.1748
14916TIP3    H166163   5.667   1.347   1.958 -0.4188  0.2466  0.0599
14916TIP3    H266164   5.617   1.293   1.826 -0.3288 -0.4531  0.3051
14917TIP3   OH266165   1.369   6.217  14.305 -0.2577 -0.3039  0.7260
14917TIP3    H166166   1.325   6.152  14.359 -0.5045 -0.9512 -0.2180
14917TIP3    H266167   1.452   6.176  14.280  0.3503  0.4228  1.4887
14918TIP3   OH266168   3.637   6.159   2.591  0.0508 -0.1426 -0.4437
14918TIP3    H166169   3.586   6.083   2.617  1.0644 -0.5507  0.4188
14918TIP3    H266170   3.580   6.207   2.531 -1.8524  0.1185  1.4793
14919TIP3   OH266171   2.866   2.245  15.388  0.1627 -0.0930  0.4873
14919TIP3    H166172   2.844   2.288  15.471  1.3848 -0.0046  0.7769
14919TIP3    H266173   2.834   2.306  15.321 -2.8218 -1.1342  0.7939
14920TIP3   OH266174   0.264   0.468   0.600  0.3937  0.4333  0.2372
14920TIP3    H166175   0.283   0.562   0.599 -1.5789  0.9035 -0.9842
14920TIP3    H266176   0.220   0.452   0.516  1.1386 -1.7054  0.1949
14921TIP3   OH266177   3.354   3.136  12.298  0.7109 -0.0209  0.5405
14921TIP3    H166178   3.294   3.062  12.294 -0.8086  1.1512  0.7394
14921TIP3    H266179   3.404   3.122  12.379 -0.0309 -0.4845  0.9314
14922TIP3   OH266180   4.663   4.165   1.074  0.4097  0.1211 -0.5104
14922TIP3    H166181   4.649   4.080   1.116 -0.5110  0.5163  0.0062
14922TIP3    H266182   4.613   4.160   0.992 -1.6823  0.9755  0.6173
14923TIP3   OH266183   2.425   3.862  16.685 -0.5417  0.0592  0.4015
14923TIP3    H166184   2.395   3.953  16.685 -0.1561  0.2007 -1.0535
14923TIP3    H266185   2.353   3.814  16.727 -2.0823  0.6391 -1.4439
14924TIP3   OH266186   1.918   2.415  13.683 -0.1842 -0.1744  0.0650
14924TIP3    H166187   1.989   2.425  13.619 -0.7039 -1.4194 -0.7652
14924TIP3    H266188   1.875   2.333  13.658 -0.0044 -1.0639  2.4385
14925TIP3   OH266189   5.317   2.935  16.160  0.2529 -0.0376  0.6946
14925TIP3    H166190   5.244   2.887  16.119 -1.0365  1.6578  0.9056
14925TIP3    H266191   5.373   2.961  16.087  0.8095 -1.5292  0.5466
14926TIP3   OH266192   0.778   4.038   4.172  0.0865  0.0372 -0.1653
14926TIP3    H166193   0.737   4.121   4.148  0.3665  0.1097 -0.4032
14926TIP3    H266194   0.723   3.972   4.131  0.0875  0.1243 -0.3089
14927TIP3   OH266195   2.997   0.205   2.018  0.2166 -0.1474  0.2519
14927TIP3    H166196   2.918   0.156   1.996  0.6238 -0.2207 -1.1278
14927TIP3    H266197   3.048   0.145   2.071 -0.1479 -0.5187  0.1931
14928TIP3   OH266198   2.659   3.764   2.330 -0.3144 -0.4010 -0.1101
14928TIP3    H166199   2.590   3.715   2.285 -0.1404 -2.3043  1.5507
14928TIP3    H266200   2.674   3.841   2.275 -2.3239 -0.9718 -1.5635
14929TIP3   OH266201   6.556   2.739   3.223 -0.0775  0.9496 -0.1788
14929TIP3    H166202   6.594   2.678   3.287 -1.9222 -2.0990 -1.7861
14929TIP3    H266203   6.513   2.806   3.277 -0.1463 -0.5824  1.7750
14930TIP3   OH266204   5.618   4.422   3.965  0.2489 -0.9903 -0.1867
14930TIP3    H166205   5.581   4.493   3.912  0.3421 -1.3411 -0.7197
14930TIP3    H266206   5.712   4.423   3.944  0.1164 -1.8222 -0.8402
14931TIP3   OH266207   4.618   1.481  13.318 -0.0172 -0.5500  0.1705
14931TIP3    H166208   4.540   1.434  13.288  1.2810 -0.2752 -4.2464
14931TIP3    H266209   4.608   1.570  13.283  1.9716 -0.3326  0.0185
14932TIP3   OH266210   4.978   2.889   2.367 -0.2944 -0.7323 -0.4097
14932TIP3    H166211   5.031   2.838   2.428 -0.4159  0.0978  0.4209
14932TIP3    H266212   4.942   2.825   2.306 -0.3928 -1.6205  0.5566
14933TIP3   OH266213   2.966   5.531   4.445  0.8876  0.3751  0.5959
14933TIP3    H166214   2.994   5.451   4.490  1.7902 -0.1773 -0.8817
14933TIP3    H266215   3.025   5.538   4.370 -0.4378  1.3742 -0.3942
14934TIP3   OH266216   5.292   4.330  12.095  0.3974  0.6536 -0.1364
14934TIP3    H166217   5.317   4.271  12.024  1.6829 -1.2508  1.7588
14934TIP3    H266218   5.243   4.275  12.156  1.6283  1.4819  1.7031
14935TIP3   OH266219   3.224   1.498   6.052  0.1738  0.2272  0.6377
14935TIP3    H166220   3.243   1.449   5.972 -0.1989  0.2980  0.5029
14935TIP3    H266221   3.176   1.575   6.021  2.9809  2.0905  0.5104
14936TIP3   OH266222   2.173   3.345   1.652  0.1090  0.0300 -0.2391
14936TIP3    H166223   2.155   3.429   1.695  1.0955 -0.5307  1.3884
14936TIP3    H266224   2.108   3.285   1.688 -0.0728 -0.0889 -0.7639
14937TIP3   OH266225   0.327   1.385   5.388  0.0978 -0.1703 -0.5486
14937TIP3    H166226   0.274   1.307   5.407 -0.7769  0.8154  1.3945
14937TIP3    H266227   0.269   1.440   5.334 -0.7272  0.6442  1.0777
14938TIP3   OH266228   2.210   1.947   5.942 -0.7195 -0.6488  0.1385
14938TIP3    H166229   2.247   1.859   5.945 -2.2130 -1.2949  2.7442
14938TIP3    H266230   2.239   1.988   6.024  0.2503  1.4828 -1.1762
14939TIP3   OH266231   3.024   1.150  13.309 -0.2303 -0.0379  0.6542
14939TIP3    H166232   2.938   1.108  13.319 -0.2954 -0.6935 -1.8955
14939TIP3    H266233   3.005   1.237  13.276  0.0689  0.1687  1.0177
14940TIP3   OH266234   5.640   2.007  15.723  0.0447 -0.6223  0.1730
14940TIP3    H166235   5.736   2.004  15.722  0.0678 -0.1817  0.8192
14940TIP3    H266236   5.615   1.971  15.637  0.7647 -1.2520  0.2076
14941TIP3   OH266237   6.373   1.007  16.537  0.5619 -0.7118 -0.2287
14941TIP3    H166238   6.452   0.965  16.504 -0.2278 -1.1926 -1.6130
14941TIP3    H266239   6.329   1.041  16.459 -0.1682  0.3364  0.5949
14942TIP3   OH266240   2.233   5.280  13.246  0.4873  0.4405  0.2488
14942TIP3    H166241   2.261   5.336  13.174 -1.0515  0.5097 -0.3342
14942TIP3    H266242   2.138   5.277  13.239  0.4088 -0.8061  1.3542
14943TIP3   OH266243   3.500   5.464   4.411 -0.5305 -0.0668  0.6760
14943TIP3    H166244   3.574   5.425   4.456  1.1816 -0.7120 -2.4085
14943TIP3    H266245   3.428   5.402   4.426  0.7857 -1.8296  0.0772
14944TIP3   OH266246   6.205   1.734  14.121  0.1186 -0.0759 -0.2234
14944TIP3    H166247   6.199   1.779  14.037 -1.4944 -3.2651 -2.0000
14944TIP3    H266248   6.298   1.712  14.130  0.3200  0.3553 -1.1186
14945TIP3   OH266249   6.668   1.607   2.029 -0.5797  0.3949 -0.0505
14945TIP3    H166250   6.722   1.530   2.047 -0.1228  0.5468 -0.7327
14945TIP3    H266251   6.667   1.656   2.112  1.3992  1.0317 -0.3442
14946TIP3   OH266252   2.103   3.158   5.122 -0.0000 -0.5250  0.1482
14946TIP3    H166253   2.139   3.125   5.039 -2.3186  0.0535 -1.1727
14946TIP3    H266254   2.040   3.225   5.095  2.1473  2.8071  2.5465
14947TIP3   OH266255   2.869   5.087  15.071 -0.3976  0.1391  1.0704
14947TIP3    H166256   2.955   5.115  15.041 -0.4734 -0.5615  0.1332
14947TIP3    H266257   2.852   5.006  15.023 -1.7775  0.4997  0.8865
14948TIP3   OH266258   0.947   5.314  10.132 -0.0727 -1.2898  0.8806
14948TIP3    H166259   1.028   5.265  10.119  1.2932  0.4417  2.4549
14948TIP3    H266260   0.946   5.334  10.226 -0.8638  1.1425  0.4216
14949TIP3   OH266261   1.979   5.386  15.132 -0.1383  0.1913 -0.2136
14949TIP3    H166262   1.982   5.369  15.038  0.8696 -1.2811  0.0543
14949TIP3    H266263   1.911   5.327  15.165 -0.6428  0.8591 -0.0365
14950TIP3   OH266264   4.970   6.780   6.576  0.5044 -0.1242  0.2305
14950TIP3    H166265   5.062   6.758   6.591  0.9229  1.3020 -0.0893
14950TIP3    H266266   4.924   6.696   6.580  1.9507 -0.9941 -0.5433
14951TIP3   OH266267   2.924   1.216  13.629  0.2799 -0.8622 -0.4141
14951TIP3    H166268   2.991   1.283  13.641 -1.5309  1.2108 -1.1343
14951TIP3    H266269   2.859   1.236  13.697 -1.0182 -0.8837 -1.6142
14952TIP3   OH266270   3.880   5.238   6.486 -0.1785 -0.2637 -0.0082
14952TIP3    H166271   3.895   5.144   6.498 -0.7344 -0.3957 -0.3521
14952TIP3    H266272   3.831   5.264   6.564  2.4991  0.3572  1.6029
14953TIP3   OH266273   3.439   2.885  15.702  0.7552 -0.4115 -0.2574
14953TIP3    H166274   3.521   2.844  15.675  1.1900 -0.2776  0.7892
14953TIP3    H266275   3.424   2.955  15.638  0.6389 -1.4001 -1.3453
14954TIP3   OH266276   2.971   1.415   1.832 -0.1181 -0.1651 -0.2620
14954TIP3    H166277   2.935   1.375   1.911  0.8262  2.0885  1.3800
14954TIP3    H266278   3.049   1.363   1.813 -0.5119 -0.9037  0.0885
14955TIP3   OH266279   0.667   6.162  10.430 -0.1697  0.1960  1.2786
14955TIP3    H166280   0.741   6.105  10.412 -0.4476  0.0230  0.6657
14955TIP3    H266281   0.591   6.105  10.424 -0.4358  0.5893  0.8292
14956TIP3   OH266282   0.940   4.176  14.050  0.1459  0.2086  0.4699
14956TIP3    H166283   0.988   4.124  13.986  0.4370 -0.6922  1.3961
14956TIP3    H266284   0.920   4.257  14.004  0.3864 -0.3920 -0.7450
14957TIP3   OH266285   5.458   4.113   5.258 -0.2082 -0.3934  0.2891
14957TIP3    H166286   5.451   4.096   5.164 -0.0861  0.2529  0.1569
14957TIP3    H266287   5.547   4.147   5.269  0.0397 -1.1663  0.7557
14958TIP3   OH266288   6.625   3.041  12.299  0.0092  0.9183 -0.8026
14958TIP3    H166289   6.713   3.069  12.274 -0.1161  2.0669 -0.0413
14958TIP3    H266290   6.638   2.985  12.375  0.1741 -0.2433 -1.6474
14959TIP3   OH266291   3.754   4.750  15.913 -0.1681  0.3576 -0.1883
14959TIP3    H166292   3.792   4.814  15.852  0.2447  0.6200  0.3351
14959TIP3    H266293   3.675   4.720  15.869 -0.4747  1.3787 -0.3680
14960TIP3   OH266294   4.934   4.846   3.167 -0.5957 -0.3568 -0.3773
14960TIP3    H166295   4.900   4.871   3.081 -0.5911  1.6523  0.1689
14960TIP3    H266296   4.856   4.839   3.222 -0.5191 -0.6360 -0.3034
14961TIP3   OH266297   4.740   0.648   4.323 -0.6673 -0.4919 -0.6658
14961TIP3    H166298   4.663   0.667   4.269 -0.1456  3.4526 -0.3530
14961TIP3    H266299   4.711   0.666   4.413  0.0660 -1.1014 -0.2983
14962TIP3   OH266300   2.867   2.882  15.148 -0.4654  0.0518  0.0620
14962TIP3    H166301   2.805   2.938  15.100 -0.2112  0.9610  0.7465
14962TIP3    H266302   2.941   2.872  15.089 -0.4625  0.5569 -0.0287
14963TIP3   OH266303   0.943   6.582   0.651  0.0705  0.2614 -0.7293
14963TIP3    H166304   0.935   6.677   0.647 -1.2297  0.1396 -1.4793
14963TIP3    H266305   0.981   6.558   0.566 -0.1152  0.0766 -0.7620
14964TIP3   OH266306   4.527   5.292   0.354 -0.4313  0.0693 -0.1131
14964TIP3    H166307   4.449   5.302   0.299 -0.4508 -1.1072 -0.3276
14964TIP3    H266308   4.502   5.228   0.421 -0.5896  1.8570  1.6561
14965TIP3   OH266309   3.286   2.275   5.416  0.4899  0.3551 -0.1220
14965TIP3    H166310   3.331   2.236   5.491  1.2488  0.7662 -0.3535
14965TIP3    H266311   3.348   2.266   5.343 -0.6096 -0.9170 -0.9472
14966TIP3   OH266312   0.975   1.025  10.513 -0.3545 -0.0868 -0.7041
14966TIP3    H166313   0.929   0.994  10.591  1.7983 -0.1860  0.6074
14966TIP3    H266314   1.031   0.951  10.487  1.6778  1.1597 -0.0833
14967TIP3   OH266315   5.543   5.246  15.160 -0.3517  0.0357 -0.1529
14967TIP3    H166316   5.573   5.260  15.070  0.9718  0.0911  0.2751
14967TIP3    H266317   5.622   5.259  15.214 -1.1531  0.1582  1.0286
14968TIP3   OH266318   5.033   1.083   5.230 -0.4350  0.2196  0.3447
14968TIP3    H166319   5.084   1.050   5.305 -0.8748  0.4068  0.7309
14968TIP3    H266320   5.086   1.155   5.196 -0.6093  0.6624  0.9817
14969TIP3   OH266321   5.789   4.009  13.511  0.1840 -0.3123  0.0021
14969TIP3    H166322   5.703   3.969  13.499  0.5721 -1.1169 -0.1514
14969TIP3    H266323   5.836   3.990  13.430 -0.4248  2.6053 -1.1730
14970TIP3   OH266324   6.200   4.423   0.883 -0.5320 -0.0319 -0.0635
14970TIP3    H166325   6.258   4.399   0.810  0.1507 -1.4199  0.8953
14970TIP3    H266326   6.112   4.418   0.847 -0.2763 -1.8574 -0.5185
14971TIP3   OH266327   6.453   4.026  13.482  0.1109 -0.1234  0.2001
14971TIP3    H166328   6.380   4.060  13.534 -0.4329  0.0188 -0.6468
14971TIP3    H266329   6.530   4.037  13.539 -0.1014  2.1565  0.1125
14972TIP3   OH266330   5.642   4.426   5.723  0.5497  0.1207 -0.2136
14972TIP3    H166331   5.641   4.420   5.819 -2.6752  0.9649 -0.0822
14972TIP3    H266332   5.609   4.342   5.693 -2.6414  1.2785 -0.2864
14973TIP3   OH266333   0.505   3.262  12.562 -0.2680 -0.1054 -1.0258
14973TIP3    H166334   0.471   3.324  12.627  2.7496  2.0591 -1.3012
14973TIP3    H266335   0.491   3.305  12.478  1.6162  0.1762 -1.2440
14974TIP3   OH266336   6.528   3.063   1.292  0.5156  0.1706 -0.0401
14974TIP3    H166337   6.439   3.070   1.258 -0.1334  1.1616  1.6975
14974TIP3    H266338   6.584   3.076   1.215 -0.6631 -4.2325 -1.9516
14975TIP3   OH266339   6.203   1.161  11.328  0.0135 -0.0603  0.4686
14975TIP3    H166340   6.257   1.098  11.376  1.2290 -0.4063 -1.2697
14975TIP3    H266341   6.220   1.142  11.236  1.2936  3.4833 -0.1932
14976TIP3   OH266342   2.246   1.594  13.510 -0.0438  0.4393 -0.5163
14976TIP3    H166343   2.228   1.501  13.519  2.0051  0.1013  0.8305
14976TIP3    H266344   2.161   1.633  13.490 -1.2957 -1.5046  0.6113
14977TIP3   OH266345   3.341   2.996  16.933  0.1218  0.3861  0.2523
14977TIP3    H166346   3.306   2.908  16.946 -1.7876  0.9221 -0.9447
14977TIP3    H266347   3.333   3.039  17.018 -0.7480  0.0204  0.3558
14978TIP3   OH266348   4.459   4.051   3.751  0.6075 -0.2436 -0.5331
14978TIP3    H166349   4.375   4.015   3.725 -0.0686  1.3047 -0.6020
14978TIP3    H266350   4.497   4.086   3.670  2.3117 -2.7162 -0.9250
14979TIP3   OH266351   2.125   6.427   3.405  0.0769 -0.0180  0.3414
14979TIP3    H166352   2.183   6.502   3.398  0.8227 -0.7047 -2.0470
14979TIP3    H266353   2.174   6.362   3.455  0.5066  0.1676  0.1649
14980TIP3   OH266354   3.464   3.718   1.896  0.6200 -0.0982  0.0608
14980TIP3    H166355   3.385   3.681   1.857  0.9037 -1.9943  1.1793
14980TIP3    H266356   3.535   3.666   1.859  1.0544 -0.5632  1.4767
14981TIP3   OH266357   6.103   4.810  13.313  0.1789 -0.3133  0.0699
14981TIP3    H166358   6.109   4.902  13.340  0.2458  0.2357 -1.6582
14981TIP3    H266359   6.018   4.781  13.346 -0.0109  0.4826  0.3120
14982TIP3   OH266360   1.267   2.787  12.273 -0.6475  0.3115  0.0861
14982TIP3    H166361   1.332   2.762  12.339  0.3171  1.9063 -0.1972
14982TIP3    H266362   1.191   2.815  12.324 -0.1929  0.7924  0.5187
14983TIP3   OH266363   1.557   2.627   5.379 -0.3830 -0.3578  0.0056
14983TIP3    H166364   1.647   2.631   5.349 -0.1166  0.3803  0.8472
14983TIP3    H266365   1.553   2.689   5.453 -1.3286 -1.1041  0.6093
14984TIP3   OH266366   2.235   6.672   2.589 -0.9476 -0.1863 -0.0324
14984TIP3    H166367   2.314   6.650   2.638 -0.8620 -0.6647 -0.3718
14984TIP3    H266368   2.266   6.724   2.515 -0.6361 -2.2105 -1.4147
14985TIP3   OH266369   6.613   3.482   4.547 -0.2088 -0.1988 -0.5851
14985TIP3    H166370   6.673   3.435   4.489  0.8604  2.2876 -1.6333
14985TIP3    H266371   6.630   3.446   4.634  1.5365 -0.7786 -1.1256
14986TIP3   OH266372   2.708   0.029   5.889  0.0032 -0.4133 -0.3239
14986TIP3    H166373   2.802   0.027   5.909  0.2438 -3.0444 -1.2741
14986TIP3    H266374   2.701   0.083   5.811  0.6451  0.2342  0.0562
14987TIP3   OH266375   3.157   3.606  16.912  0.3967  0.3120 -0.3441
14987TIP3    H166376   3.228   3.622  16.849  1.0379  0.0935  0.3071
14987TIP3    H266377   3.181   3.658  16.989 -0.1289  0.1970 -0.1029
14988TIP3   OH266378   0.624   3.000  16.304  0.4802  0.3193  0.1867
14988TIP3    H166379   0.550   3.054  16.277  0.5370  0.7964  0.9515
14988TIP3    H266380   0.702   3.048  16.274  0.4983 -0.8501 -1.8592
14989TIP3   OH266381   3.077   4.925   0.687 -0.1270 -0.2747 -0.3135
14989TIP3    H166382   2.984   4.928   0.712  0.6330  2.7806  2.8299
14989TIP3    H266383   3.118   4.872   0.755  0.7634  0.4219 -0.3043
14990TIP3   OH266384   1.071   1.505   5.769 -0.2703  0.0518 -0.6110
14990TIP3    H166385   1.161   1.512   5.737 -0.7171 -0.6938 -2.1436
14990TIP3    H266386   1.020   1.488   5.690 -1.9318  1.6900  0.0403
14991TIP3   OH266387   4.347   5.168  16.114 -0.7033  0.2154 -0.3525
14991TIP3    H166388   4.286   5.157  16.041 -2.2831  0.6406  0.8556
14991TIP3    H266389   4.426   5.203  16.074 -1.4934  0.3559 -1.8669
14992TIP3   OH266390   6.561   4.226  15.999 -0.0194 -0.4009  0.4935
14992TIP3    H166391   6.574   4.132  15.987 -0.3120 -0.3148 -0.5903
14992TIP3    H266392   6.628   4.266  15.944 -0.0575  0.0243  0.7569
14993TIP3   OH266393   5.876   0.512  13.082 -0.2796 -1.0928  1.0793
14993TIP3    H166394   5.949   0.452  13.096  0.0167 -1.3694 -1.3330
14993TIP3    H266395   5.804   0.456  13.052 -0.5360 -0.4408  0.4632
14994TIP3   OH266396   6.316   6.253   0.225 -0.0673 -0.1490  0.1981
14994TIP3    H166397   6.371   6.201   0.167 -1.3223 -2.5488  1.0303
14994TIP3    H266398   6.300   6.335   0.177  0.3753 -1.3157 -2.0545
14995TIP3   OH266399   5.566   2.368   4.099 -0.0091 -0.2929  0.0519
14995TIP3    H166400   5.645   2.388   4.150  0.4859 -2.4457  0.2206
14995TIP3    H266401   5.568   2.430   4.026  1.7175 -0.1398  0.1900
14996TIP3   OH266402   3.230   1.735   1.823 -0.3617  0.0691  0.0961
14996TIP3    H166403   3.311   1.776   1.793 -1.4449  1.5660 -0.8993
14996TIP3    H266404   3.233   1.744   1.918  0.2089  0.9529  0.0058
14997TIP3   OH266405   0.778   2.937   1.427  0.2387  0.5056  0.0121
14997TIP3    H166406   0.740   3.003   1.369  1.2923  0.4518 -0.7925
14997TIP3    H266407   0.704   2.898   1.473 -0.7133  0.1335 -1.7538
14998TIP3   OH266408   4.404   0.324  13.938 -0.0232  0.1475 -0.0981
14998TIP3    H166409   4.339   0.323  13.868  0.3134 -0.8962 -0.4140
14998TIP3    H266410   4.489   0.321  13.893  0.1985 -0.3717  0.3462
14999TIP3   OH266411   6.673   6.305   5.661  0.5736  0.5006  0.1030
14999TIP3    H166412   6.668   6.288   5.567  0.5575  1.6559 -0.1130
14999TIP3    H266413   6.742   6.369   5.670 -0.5904  1.7209  0.6851
15000TIP3   OH266414   5.174   3.236   3.965 -0.5919 -0.2301 -0.2142
15000TIP3    H166415   5.247   3.195   4.012 -0.0985  1.3880  0.5358
15000TIP3    H266416   5.163   3.183   3.887  0.1963 -1.5753  0.5404
15001TIP3   OH266417   3.911   2.112   0.633 -0.6193 -0.0219  0.7231
15001TIP3    H166418   3.948   2.062   0.560  0.0607  1.6391 -0.1114
15001TIP3    H266419   3.934   2.062   0.711  1.5292 -0.1569  0.0498
15002TIP3   OH266420   4.781   0.486  15.216 -0.0157 -0.6027  0.1054
15002TIP3    H166421   4.848   0.426  15.249 -0.1093 -1.0495 -0.5225
15002TIP3    H266422   4.699   0.438  15.222 -0.2814 -0.0877  0.7857
15003TIP3   OH266423   5.967   5.075   2.796  0.0370  0.0090 -0.0903
15003TIP3    H166424   5.960   5.145   2.862 -1.8331  0.9175 -1.1646
15003TIP3    H266425   6.051   5.091   2.753  0.3253  0.6794  0.6959
15004TIP3   OH266426   2.283   0.066   1.405  0.6064 -0.3980  0.8562
15004TIP3    H166427   2.192   0.070   1.435  0.3311 -0.4859  0.0521
15004TIP3    H266428   2.284  -0.005   1.341  1.2306 -0.3556  0.8145
15005TIP3   OH266429   1.126   1.577   6.026 -0.4224 -0.1622  0.4483
15005TIP3    H166430   1.054   1.569   6.088 -0.8511  0.0860 -0.0036
15005TIP3    H266431   1.107   1.511   5.959 -1.5627  1.4941 -0.9481
15006TIP3   OH266432   4.678   0.008  15.896 -0.1511 -0.0259  0.0991
15006TIP3    H166433   4.583  -0.003  15.903 -0.4464  0.5762 -2.1856
15006TIP3    H266434   4.698   0.080  15.957 -1.5126  1.2260 -0.8570
15007TIP3   OH266435   3.611   1.777  15.453  0.2744 -0.8684 -0.0062
15007TIP3    H166436   3.670   1.761  15.380 -0.7337 -0.3790 -0.9657
15007TIP3    H266437   3.612   1.872  15.465  0.8432 -0.9911  0.9847
15008TIP3   OH266438   1.833   3.138   3.797 -0.7218  0.2512  0.5665
15008TIP3    H166439   1.810   3.224   3.833 -1.1057  0.1013  0.6886
15008TIP3    H266440   1.874   3.157   3.713  2.0256  0.7389  1.9168
15009TIP3   OH266441   1.693   5.841   0.752 -0.0820 -0.4650 -0.5135
15009TIP3    H166442   1.696   5.928   0.791 -0.6377 -0.6827  0.0271
15009TIP3    H266443   1.746   5.848   0.672 -1.0156  0.6519 -1.0558
15010TIP3   OH266444   4.555   0.623  16.682 -0.5435  0.6302 -0.0612
15010TIP3    H166445   4.465   0.593  16.669 -0.1020 -1.0613  0.5135
15010TIP3    H266446   4.596   0.553  16.733  0.7187  2.0212  0.9124
15011TIP3   OH266447   4.249   5.387  15.449  1.0119 -0.4638  0.0317
15011TIP3    H166448   4.228   5.352  15.535  0.9762 -0.1986  0.1299
15011TIP3    H266449   4.247   5.482  15.460  0.5940 -0.4227 -0.3617
15012TIP3   OH266450   5.825   6.313   4.268 -0.4356 -0.3096  0.2477
15012TIP3    H166451   5.890   6.314   4.339  0.2096  0.8868 -0.3294
15012TIP3    H266452   5.801   6.405   4.256 -2.9654 -0.7815  1.0572
15013TIP3   OH266453   3.758   1.519  17.044  0.1292 -0.4967 -0.3221
15013TIP3    H166454   3.805   1.594  17.082  1.2144 -1.7585  0.9533
15013TIP3    H266455   3.822   1.479  16.985 -0.4002 -0.4869 -0.9046
15014TIP3   OH266456   4.192   3.921   3.780 -0.6590 -0.1546 -0.1389
15014TIP3    H166457   4.212   3.970   3.859 -1.0173 -2.2085  1.3160
15014TIP3    H266458   4.129   3.975   3.732  1.7815  2.5302 -0.6202
15015TIP3   OH266459   1.555   5.693   0.421  0.1744 -0.1893 -0.5026
15015TIP3    H166460   1.555   5.666   0.512 -1.3586  0.5961 -0.2369
15015TIP3    H266461   1.506   5.624   0.375  0.7974 -0.4990 -0.7094
15016TIP3   OH266462   3.464   0.195  15.937  0.6550  0.2948  0.2969
15016TIP3    H166463   3.465   0.140  16.015 -0.6431  0.1868  0.2621
15016TIP3    H266464   3.432   0.280  15.968  0.3877  0.3296 -0.0625
15017TIP3   OH266465   1.359   3.637   5.044  0.0945 -0.4458 -0.0277
15017TIP3    H166466   1.431   3.701   5.051 -0.0562 -0.4022  1.4299
15017TIP3    H266467   1.308   3.650   5.123 -2.1126  0.1677 -1.4493
15018TIP3   OH266468   4.162   0.849   0.172  0.0147 -0.0553  0.8727
15018TIP3    H166469   4.206   0.907   0.234  1.0549 -0.5404  0.6060
15018TIP3    H266470   4.153   0.901   0.092 -2.2435  0.9313  1.6715
15019TIP3   OH266471   4.866   5.117  14.140  0.4073 -0.0918  0.2153
15019TIP3    H166472   4.914   5.177  14.083  0.5511 -0.6819 -0.2900
15019TIP3    H266473   4.797   5.171  14.178  1.2388  0.6820  0.6737
15020TIP3   OH266474   1.193   1.732   4.961 -0.0418  0.3762 -0.4467
15020TIP3    H166475   1.265   1.677   4.991  1.7569  2.1533 -1.3119
15020TIP3    H266476   1.126   1.723   5.030  1.8025  0.2378  1.4209
15021TIP3   OH266477   6.073   5.953  16.999  0.1541 -0.3807  0.5169
15021TIP3    H166478   6.058   5.934  16.906 -0.6804  0.0109  0.5550
15021TIP3    H266479   6.015   5.893  17.045 -0.6600  0.5283  0.7180
15022TIP3   OH266480   3.873   4.205   6.173 -0.1681 -0.1621 -0.1176
15022TIP3    H166481   3.876   4.128   6.230  1.0138  0.0087  0.0732
15022TIP3    H266482   3.894   4.171   6.086  0.7178 -0.0133  0.0291
15023TIP3   OH266483   6.509   0.177  11.084  0.6724 -0.3281  0.6254
15023TIP3    H166484   6.500   0.145  10.994 -0.0978 -1.4619  1.0856
15023TIP3    H266485   6.541   0.101  11.133  1.9170  0.5163  1.1610
15024TIP3   OH266486   5.071   5.643   0.554 -0.1773 -0.3226  0.2353
15024TIP3    H166487   5.063   5.722   0.609  1.9366  0.7135 -0.7954
15024TIP3    H266488   5.053   5.674   0.465 -0.0422 -1.1695 -0.0918
15025TIP3   OH266489   2.353   2.245  15.807 -0.4999 -0.4248  0.0650
15025TIP3    H166490   2.368   2.246  15.712  0.3322 -1.2352  0.1734
15025TIP3    H266491   2.291   2.174  15.821 -1.3484  0.2932  0.0475
15026TIP3   OH266492   4.807   1.176   6.411  0.6588 -0.0179 -0.8350
15026TIP3    H166493   4.885   1.127   6.385  0.0665 -2.0114  0.8528
15026TIP3    H266494   4.842   1.256   6.452  1.8732 -0.9468  0.0271
15027TIP3   OH266495   2.447   6.447   3.781  0.3227 -0.6596  0.2025
15027TIP3    H166496   2.491   6.458   3.696 -0.4651  0.7922 -0.0497
15027TIP3    H266497   2.453   6.353   3.799  2.6995 -0.6767 -0.2571
15028TIP3   OH266498   4.403   2.448   6.162 -0.5081 -0.3603 -0.1121
15028TIP3    H166499   4.385   2.514   6.095  0.1492  1.0577  1.0659
15028TIP3    H266500   4.317   2.422   6.194 -0.8598 -1.3748 -1.7504
15029TIP3   OH266501   3.912   1.824   5.613 -0.1859 -0.2552 -0.2177
15029TIP3    H166502   4.007   1.817   5.617 -0.2041 -0.0110  1.4094
15029TIP3    H266503   3.890   1.892   5.677 -1.4959 -0.7807 -0.0668
15030TIP3   OH266504   3.821   3.610  15.549  0.0787  0.1128  0.5593
15030TIP3    H166505   3.798   3.644  15.463 -0.3897 -1.1426  0.1614
15030TIP3    H266506   3.767   3.660  15.610 -0.0139  0.6099  0.0761
15031TIP3   OH266507   3.317   5.907  13.316  0.0302 -0.0523  0.3052
15031TIP3    H166508   3.286   5.957  13.392  0.3330 -0.4767  0.7164
15031TIP3    H266509   3.243   5.908  13.255  0.1621  1.2173  0.1338
15032TIP3   OH266510   3.123   1.940  16.144  0.0388 -0.4075  0.5577
15032TIP3    H166511   3.032   1.969  16.144  0.1186  0.1243 -2.1164
15032TIP3    H266512   3.173   2.014  16.110  0.8842 -1.9321 -1.8047
15033TIP3   OH266513   2.700   5.550  14.349  0.3169  0.0543  0.2398
15033TIP3    H166514   2.618   5.556  14.398 -0.0696 -0.6475 -0.3032
15033TIP3    H266515   2.674   5.516  14.263  1.4390 -2.3174  0.7624
15034TIP3   OH266516   3.334   5.407   1.869  0.7630  0.2325 -0.0123
15034TIP3    H166517   3.364   5.322   1.836 -1.1085 -0.1765 -0.7877
15034TIP3    H266518   3.349   5.468   1.797  0.8148  0.2654  0.0265
15035TIP3   OH266519   6.010   2.604   3.275  0.0066  0.4834 -0.1214
15035TIP3    H166520   5.973   2.597   3.363  0.0838 -0.2440 -0.1375
15035TIP3    H266521   5.991   2.693   3.247  0.2825  0.8343  0.7717
15036TIP3   OH266522   5.772   0.281   5.370  0.1743  0.0582 -0.1062
15036TIP3    H166523   5.689   0.257   5.411  0.2778  0.0483  0.0946
15036TIP3    H266524   5.829   0.304   5.442  0.2893  0.2492 -0.2581
15037TIP3   OH266525   0.517   6.132   1.018  0.5429  0.5364 -0.1983
15037TIP3    H166526   0.593   6.089   1.058  1.4658  0.0919 -2.2913
15037TIP3    H266527   0.448   6.065   1.022  0.6810  0.4172  0.3947
15038TIP3   OH266528   3.374   5.702  14.811  0.1586  0.2087  0.3456
15038TIP3    H166529   3.297   5.697  14.755 -0.1579 -0.2980  0.8160
15038TIP3    H266530   3.405   5.611  14.818 -0.3948  0.1097  1.7932
15039TIP3   OH266531   5.720   1.901   0.344 -0.0490 -0.1205 -0.2167
15039TIP3    H166532   5.811   1.931   0.352  0.8954 -1.9923 -2.5596
15039TIP3    H266533   5.682   1.917   0.430  1.7480  2.9636  0.1597
15040TIP3   OH266534   4.697   5.983  14.907 -0.2188  0.0407 -0.3499
15040TIP3    H166535   4.743   5.932  14.973  0.9063  0.2808 -0.9143
15040TIP3    H266536   4.714   6.074  14.930 -2.3952  0.2361  0.7766
15041TIP3   OH266537   0.470   2.436   2.609 -0.7184 -0.0312  0.0766
15041TIP3    H166538   0.395   2.437   2.669 -1.0896 -1.8266 -0.3035
15041TIP3    H266539   0.547   2.443   2.666 -1.0506 -1.9341  0.8570
15042TIP3   OH266540   4.695   0.906  14.700 -0.2033  0.2082 -0.5163
15042TIP3    H166541   4.648   0.838  14.748  0.0407 -0.2663 -0.9359
15042TIP3    H266542   4.626   0.965  14.670 -0.4289  0.0889 -0.2391
15043TIP3   OH266543   2.426   5.316   4.786 -0.4419 -0.2636 -0.1763
15043TIP3    H166544   2.333   5.328   4.808 -0.2361  0.1341  0.5061
15043TIP3    H266545   2.451   5.236   4.833 -0.3843 -0.2555 -0.1940
15044TIP3   OH266546   5.518   2.726   5.618  0.3140 -0.1531 -0.2335
15044TIP3    H166547   5.555   2.660   5.559  0.0728  0.8083 -1.5038
15044TIP3    H266548   5.533   2.809   5.574 -0.8742  0.5068  0.5442
15045TIP3   OH266549   2.192   6.603  13.016  0.3451 -0.1678 -0.1261
15045TIP3    H166550   2.146   6.538  12.963  0.2334  0.8953 -1.3629
15045TIP3    H266551   2.285   6.583  13.002  0.3485  0.6841 -1.5232
15046TIP3   OH266552   2.787   4.180   0.890  0.3345 -0.3761 -0.6752
15046TIP3    H166553   2.847   4.105   0.895  2.8460  1.4301 -1.3638
15046TIP3    H266554   2.756   4.192   0.979  0.3811 -1.8285 -0.4332
15047TIP3   OH266555   4.576   3.350   2.337 -0.1407 -0.6231 -0.5839
15047TIP3    H166556   4.506   3.399   2.295 -0.6435  0.2032  1.1462
15047TIP3    H266557   4.655   3.401   2.320 -0.0312 -1.2459 -2.0337
15048TIP3   OH266558   4.142   1.045  13.087  0.2194 -0.1395 -0.0291
15048TIP3    H166559   4.201   1.098  13.141  2.2070 -0.8211 -1.4409
15048TIP3    H266560   4.090   1.109  13.038  0.1566  0.4746  0.8123
15049TIP3   OH266561   4.791   2.405  15.528  0.1729  0.2924 -0.2955
15049TIP3    H166562   4.807   2.476  15.590  1.3963 -1.2629  1.2805
15049TIP3    H266563   4.721   2.353  15.569  0.0577 -0.0283 -0.8877
15050TIP3   OH266564   6.133   3.934  15.795 -0.2307  0.0475  0.2106
15050TIP3    H166565   6.224   3.962  15.801 -0.7109  1.5279  1.0726
15050TIP3    H266566   6.106   3.959  15.707 -0.1304  0.7039  0.3601
15051TIP3   OH266567   1.695   0.325  16.078 -0.5198  0.2088  0.8178
15051TIP3    H166568   1.687   0.302  16.171  3.1733 -1.0072  1.0043
15051TIP3    H266569   1.689   0.421  16.077  0.0647  0.2908  2.4386
15052TIP3   OH266570   5.400   3.438  13.294  0.6510 -0.6713 -0.0859
15052TIP3    H166571   5.488   3.473  13.281  0.7264  0.5904  3.0156
15052TIP3    H266572   5.414   3.354  13.336  0.3713 -0.4323  0.4845
15053TIP3   OH266573   6.634   1.728   5.668  0.0246 -0.2886 -0.1639
15053TIP3    H166574   6.639   1.667   5.741 -0.1113 -0.6394 -0.4425
15053TIP3    H266575   6.667   1.811   5.703 -1.6790  0.0312  0.8014
15054TIP3   OH266576   3.280   5.723   4.418  0.2338 -0.3130  0.8433
15054TIP3    H166577   3.323   5.639   4.402  1.4300  0.1724  1.3536
15054TIP3    H266578   3.216   5.705   4.486 -0.2927 -1.0225  0.1809
15055TIP3   OH266579   6.060   6.722   0.648  0.5361  0.6643 -0.0427
15055TIP3    H166580   5.966   6.728   0.634  0.4983 -0.0816 -0.1388
15055TIP3    H266581   6.099   6.762   0.570  0.3024 -0.1426 -0.5852
15056TIP3   OH266582   3.408   5.249  11.853 -0.4088  0.2469  0.1433
15056TIP3    H166583   3.495   5.275  11.823 -0.4389 -1.3260 -1.4868
15056TIP3    H266584   3.348   5.287  11.789 -0.6322 -1.3991 -0.6826
15057TIP3   OH266585   2.957   5.778   4.117 -0.5045  0.6153 -0.2370
15057TIP3    H166586   2.983   5.696   4.160 -1.2690  0.7432  0.4963
15057TIP3    H266587   3.018   5.843   4.152  1.4636  0.0400 -2.3715
15058TIP3   OH266588   1.776   2.356  11.729  0.2344 -0.2458  0.4315
15058TIP3    H166589   1.791   2.265  11.704 -0.9932 -0.0377 -1.2303
15058TIP3    H266590   1.860   2.400  11.713  0.4153 -0.7990 -0.1642
15059TIP3   OH266591   1.392   2.575   2.933  0.3100 -0.1807 -0.2003
15059TIP3    H166592   1.369   2.494   2.978 -0.2477 -0.3580 -0.7956
15059TIP3    H266593   1.335   2.577   2.856  0.8026  0.4334 -0.5591
15060TIP3   OH266594   5.656   2.960  15.464  0.5317  0.0196  0.1380
15060TIP3    H166595   5.686   2.937  15.552  0.5666 -1.5693 -0.2528
15060TIP3    H266596   5.696   2.894  15.407  1.3927  1.6579 -1.2385
15061TIP3   OH266597   2.839   0.135   1.267 -0.3017  0.8626  0.2149
15061TIP3    H166598   2.800   0.111   1.351  0.5162 -1.0939  0.0865
15061TIP3    H266599   2.932   0.114   1.277 -0.2075  0.5163 -1.1857
15062TIP3   OH266600   5.585   3.108   5.174  0.0577  0.4107  0.1344
15062TIP3    H166601   5.621   3.152   5.251 -2.1558  1.5280  0.6093
15062TIP3    H266602   5.662   3.085   5.122  1.5237  1.2018  1.8279
15063TIP3   OH266603   5.718   2.380  12.043 -0.2381 -0.3828  0.8032
15063TIP3    H166604   5.776   2.391  12.119 -0.8580 -1.3572  1.4447
15063TIP3    H266605   5.776   2.354  11.972  0.4830  1.4653  0.6674
15064TIP3   OH266606   6.179   3.494  13.044  0.0158  0.6124 -0.0549
15064TIP3    H166607   6.215   3.406  13.054  0.2791  0.7328  0.0740
15064TIP3    H266608   6.143   3.516  13.130  1.6092  1.3514  0.4709
15065TIP3   OH266609   5.496   0.968   5.009  0.5346 -0.6271 -0.3449
15065TIP3    H166610   5.422   0.910   4.990  0.0101 -0.2222  0.4131
15065TIP3    H266611   5.473   1.051   4.969  0.1854 -0.2568  0.6075
15066TIP3   OH266612   4.580   6.533  11.820  0.4912 -0.0702 -0.9905
15066TIP3    H166613   4.519   6.532  11.894 -0.2239 -1.8317 -1.5483
15066TIP3    H266614   4.532   6.578  11.750  0.7616  0.6473 -0.7245
15067TIP3   OH266615   5.037   5.843  13.979 -0.7207 -0.7860 -0.0738
15067TIP3    H166616   4.974   5.860  13.910  1.1896 -0.4984 -1.8452
15067TIP3    H266617   5.010   5.899  14.051 -1.0227  1.2688 -1.7126
15068TIP3   OH266618   3.602   1.794  16.471 -0.9726 -0.0860 -0.1641
15068TIP3    H166619   3.567   1.730  16.409 -0.0573 -0.7829  0.0311
15068TIP3    H266620   3.697   1.786  16.463 -0.8404 -0.4163  1.5713
15069TIP3   OH266621   1.368   2.609  12.733 -0.2381 -0.3660 -0.0375
15069TIP3    H166622   1.385   2.671  12.804  0.3341  0.5063 -0.9030
15069TIP3    H266623   1.273   2.596  12.733 -0.2974  0.0626  0.5295
15070TIP3   OH266624   5.362   5.710  15.306 -0.5573  0.0285  0.1560
15070TIP3    H166625   5.428   5.774  15.278 -1.3934  0.9790  0.2951
15070TIP3    H266626   5.363   5.643  15.238  2.4134 -1.4320  1.4272
15071TIP3   OH266627   6.057   5.463  12.692 -0.4133  0.5804 -0.1028
15071TIP3    H166628   5.987   5.519  12.657 -0.6038 -0.4685 -1.4625
15071TIP3    H266629   6.133   5.521  12.696 -0.5662  0.9207 -1.6384
15072TIP3   OH266630   3.515   3.146  13.361  0.1356  0.2199 -0.0735
15072TIP3    H166631   3.572   3.095  13.418  0.3383 -0.5137 -0.9042
15072TIP3    H266632   3.456   3.081  13.322 -0.3385  0.7768 -0.3012
15073TIP3   OH266633   5.892   2.403  13.935 -0.1733  0.3703 -0.1823
15073TIP3    H166634   5.830   2.436  14.000 -1.0608  0.9295 -1.2723
15073TIP3    H266635   5.927   2.482  13.893 -1.2872  0.0018 -1.8940
15074TIP3   OH266636   3.001   2.402  15.031 -0.4875  0.1016 -0.4029
15074TIP3    H166637   2.961   2.416  14.945 -1.5824  1.5168  0.2966
15074TIP3    H266638   3.065   2.472  15.040 -0.3634 -0.0504 -0.0862
15075TIP3   OH266639   1.855   1.995   4.801  0.0142 -0.3823  0.3059
15075TIP3    H166640   1.797   2.067   4.824 -0.5200 -0.4076 -0.8863
15075TIP3    H266641   1.907   2.028   4.727 -0.6021 -1.3791 -0.5997
15076TIP3   OH266642   4.637   5.289   2.909  0.0309  0.0072 -0.3711
15076TIP3    H166643   4.555   5.268   2.954  1.0220 -0.6468  1.1875
15076TIP3    H266644   4.609   5.321   2.823 -1.8941  0.5743  0.4065
15077TIP3   OH266645   5.655   3.489  13.217 -0.4220 -0.1369 -0.7161
15077TIP3    H166646   5.712   3.427  13.262 -0.2910 -0.5224 -1.4095
15077TIP3    H266647   5.680   3.574  13.254  1.0798 -0.2103 -1.4775
15078TIP3   OH266648   0.211   2.763   1.007  0.3144  0.5708 -0.1557
15078TIP3    H166649   0.166   2.773   0.923 -0.0903  0.1714  0.0098
15078TIP3    H266650   0.248   2.675   1.005  1.5231  1.0716 -0.4896
15079TIP3   OH266651   4.203   3.940   2.922  0.2942  0.6267 -0.2307
15079TIP3    H166652   4.188   3.855   2.880  0.0034 -0.2688  1.5789
15079TIP3    H266653   4.293   3.962   2.899  0.7825 -0.7683  0.2620
15080TIP3   OH266654   5.936   2.315  14.994  0.6021  0.8493  0.0040
15080TIP3    H166655   6.018   2.288  14.953  0.7256 -1.6119  1.6638
15080TIP3    H266656   5.952   2.306  15.088 -1.7169 -0.2295  0.3673
15081TIP3   OH266657   0.236   2.113  11.179 -0.3029 -0.0701  0.4975
15081TIP3    H166658   0.212   2.203  11.201 -0.0859  0.4188 -1.0910
15081TIP3    H266659   0.155   2.073  11.149  0.1872  0.7514 -2.2479
15082TIP3   OH266660   2.035   4.132   2.432  0.9081 -0.2474 -0.0436
15082TIP3    H166661   2.014   4.167   2.518 -1.1792  1.1963 -1.0405
15082TIP3    H266662   1.976   4.058   2.421  1.7215 -0.9236  0.0496
15083TIP3   OH266663   5.395   1.317  15.669  0.9048 -0.3382  0.4256
15083TIP3    H166664   5.470   1.305  15.611  0.5757 -1.0392  0.1354
15083TIP3    H266665   5.360   1.229  15.683  0.0054 -0.0088  0.3744
15084TIP3   OH266666   2.881   1.776   0.410 -0.2065 -0.1796 -0.2585
15084TIP3    H166667   2.792   1.804   0.389  0.4252  1.9748 -0.3621
15084TIP3    H266668   2.906   1.832   0.484  1.2810 -0.2791 -0.6639
15085TIP3   OH266669   0.241   2.886   6.172  0.2868  0.0187 -0.2347
15085TIP3    H166670   0.303   2.946   6.213 -0.9911  1.4390 -0.2949
15085TIP3    H266671   0.233   2.814   6.234  0.2002  0.9737  0.8982
15086TIP3   OH266672   5.813   1.245  14.860 -0.2125 -0.2653  0.0029
15086TIP3    H166673   5.762   1.238  14.940 -0.1404 -1.1795 -0.0159
15086TIP3    H266674   5.749   1.234  14.790 -0.3733  1.1742 -0.0887
15087TIP3   OH266675   1.734   0.183   6.183 -0.4472 -0.0624  0.3000
15087TIP3    H166676   1.654   0.131   6.190 -0.1836 -0.2899  2.0852
15087TIP3    H266677   1.794   0.144   6.246  0.4020  1.2620  0.3543
15088TIP3   OH266678   6.113   3.198  16.934 -0.0291 -0.2069 -0.2383
15088TIP3    H166679   6.030   3.241  16.914 -0.6114 -0.7094  1.0210
15088TIP3    H266680   6.103   3.164  17.023  1.6391 -0.0194  0.0641
15089TIP3   OH266681   1.663   4.481   3.476 -0.3027 -0.5423  0.4594
15089TIP3    H166682   1.726   4.479   3.548 -1.0991 -1.3022  1.1459
15089TIP3    H266683   1.594   4.541   3.506 -1.6355 -2.3796  1.2060
15090TIP3   OH266684   0.369   3.013   0.883 -0.2829 -0.1807 -0.2208
15090TIP3    H166685   0.381   3.105   0.909 -0.2466  0.3658 -2.0223
15090TIP3    H266686   0.274   3.001   0.881 -0.3237 -1.0256  2.5943
15091TIP3   OH266687   6.491   5.678   1.888 -0.1677 -0.3396  0.0800
15091TIP3    H166688   6.581   5.699   1.912 -0.6649  1.1485  0.7641
15091TIP3    H266689   6.452   5.645   1.969 -1.0575  1.9935  0.6919
15092TIP3   OH266690   2.638   1.360   1.312 -0.2721 -0.4570 -0.1741
15092TIP3    H166691   2.568   1.411   1.353  0.3708  0.3800 -0.0957
15092TIP3    H266692   2.634   1.274   1.354 -0.0381  0.1834  1.1831
15093TIP3   OH266693   1.571   0.080   2.161  0.5984  0.1277  0.1961
15093TIP3    H166694   1.576   0.151   2.097  0.6745 -0.5144 -0.5089
15093TIP3    H266695   1.489   0.096   2.207  0.8063  0.9051  0.3237
15094TIP3   OH266696   2.152   6.577   4.925 -0.2615 -0.2263 -0.3868
15094TIP3    H166697   2.239   6.601   4.958 -0.4082 -0.8184  0.4406
15094TIP3    H266698   2.145   6.624   4.841  1.9278 -2.1835 -1.8031
15095TIP3   OH266699   5.289   3.891  12.117 -0.1243 -0.1502  0.2342
15095TIP3    H166700   5.284   3.987  12.124  1.0574 -0.0571 -0.0120
15095TIP3    H266701   5.360   3.875  12.055 -0.8392 -1.1876 -0.3620
15096TIP3   OH266702   4.893   3.598   0.384 -0.2483  0.0952  0.2283
15096TIP3    H166703   4.821   3.568   0.328 -2.0461  1.8023  1.5248
15096TIP3    H266704   4.918   3.521   0.434 -1.6059 -0.3918  0.1949
15097TIP3   OH266705   4.140   3.819   4.067  0.0405 -0.4028  0.0036
15097TIP3    H166706   4.045   3.817   4.074 -0.0106 -1.2895 -0.7707
15097TIP3    H266707   4.157   3.830   3.973  0.6841 -1.0773  0.0286
15098TIP3   OH266708   1.614   5.010  12.682  0.2301  0.4896 -0.2385
15098TIP3    H166709   1.565   5.014  12.600 -0.9655  0.8207  0.4756
15098TIP3    H266710   1.572   4.939  12.731  1.6203 -0.4278 -0.3211
15099TIP3   OH266711   1.051   4.018  16.375 -0.3517 -0.3346  0.2014
15099TIP3    H166712   1.030   4.110  16.359  1.2287 -0.0403 -0.3172
15099TIP3    H266713   0.966   3.974  16.370 -1.0849  1.0228  0.0206
15100TIP3   OH266714   4.925   3.024   1.686  0.0033  0.3695  0.7692
15100TIP3    H166715   4.849   3.054   1.637 -1.4608  0.9145  3.2262
15100TIP3    H266716   4.999   3.071   1.647 -1.1122  0.9493 -0.7170
15101TIP3   OH266717   6.536   0.779   1.984 -0.0995  0.2555  0.6853
15101TIP3    H166718   6.600   0.847   2.005 -0.2169  0.7235 -0.4039
15101TIP3    H266719   6.532   0.778   1.888 -1.6527  0.1741  0.7223
15102TIP3   OH266720   3.995   3.885  13.345  0.0016 -1.2182 -0.6417
15102TIP3    H166721   4.033   3.961  13.388 -0.7244 -0.1839 -1.7292
15102TIP3    H266722   3.926   3.855  13.404 -0.1094 -0.6355 -0.4701
15103TIP3   OH266723   5.693   4.861  12.865 -0.2653  0.0791 -0.2774
15103TIP3    H166724   5.711   4.951  12.840 -1.7272  0.1306 -1.3009
15103TIP3    H266725   5.766   4.836  12.921  0.7444  1.5147 -0.8997
15104TIP3   OH266726   4.169   6.236  15.655  0.4705  0.0223  0.0281
15104TIP3    H166727   4.243   6.253  15.713 -1.7561  4.0565  2.1644
15104TIP3    H266728   4.179   6.299  15.584  0.1267 -0.8677 -0.8349
15105TIP3   OH266729   5.952   1.982  13.065 -0.7099  0.1154  0.1606
15105TIP3    H166730   5.913   1.914  13.121 -1.6567  0.5934  0.1031
15105TIP3    H266731   5.902   2.061  13.086 -0.3409  0.5464 -0.5714
15106TIP3   OH266732   1.105   4.591  12.123  0.3012 -0.2432  0.3023
15106TIP3    H166733   1.186   4.546  12.100 -0.6390 -1.1228 -1.4608
15106TIP3    H266734   1.050   4.524  12.163 -0.5883 -0.3916 -1.0860
15107TIP3   OH266735   3.525   2.239  11.018 -0.2053  0.3498 -0.7081
15107TIP3    H166736   3.514   2.293  11.096 -4.2652 -0.8902 -0.2138
15107TIP3    H266737   3.467   2.278  10.953  0.6935 -0.5067 -2.0916
15108TIP3   OH266738   5.627   3.416   2.514  0.1047 -0.0978  0.4227
15108TIP3    H166739   5.597   3.477   2.582  0.2580  1.4296 -0.8170
15108TIP3    H266740   5.550   3.364   2.492 -0.7275  1.3471 -0.2155
15109TIP3   OH266741   0.963   0.270   4.109  0.1127  0.0541  0.1393
15109TIP3    H166742   0.967   0.362   4.082  1.5202  0.0211  0.1332
15109TIP3    H266743   1.047   0.255   4.153  0.4776 -1.5593 -1.0053
15110TIP3   OH266744   5.519   0.738   4.154 -0.4568 -0.4964  0.1819
15110TIP3    H166745   5.431   0.704   4.142 -0.5911 -0.3547  0.7136
15110TIP3    H266746   5.511   0.800   4.227  0.3082 -1.3987  1.0730
15111TIP3   OH266747   1.884   6.323   4.835  0.1372 -0.5612 -0.2836
15111TIP3    H166748   1.815   6.279   4.785 -2.6573  2.2583  0.7735
15111TIP3    H266749   1.864   6.304   4.926  0.3791  0.7607  0.0707
15112TIP3   OH266750   6.714   0.700  16.650 -0.2893  0.3316  0.0498
15112TIP3    H166751   6.690   0.663  16.735  1.8929  0.5750  0.8418
15112TIP3    H266752   6.799   0.740  16.665  0.0618  0.5607 -2.2252
15113TIP3   OH266753   3.664   0.810   5.068 -0.0311  0.0564  0.0439
15113TIP3    H166754   3.718   0.743   5.109  0.1482  0.2232  0.0790
15113TIP3    H266755   3.609   0.844   5.139 -0.1230 -0.0538  0.0259
15114TIP3   OH266756   2.634   0.719  15.883 -0.2021  0.0604 -0.4202
15114TIP3    H166757   2.630   0.736  15.977  0.8000  1.3782 -0.5830
15114TIP3    H266758   2.672   0.799  15.846 -0.7682 -0.3495 -1.9736
15115TIP3   OH266759   3.788   2.413  15.070  0.0292  0.5848 -0.0704
15115TIP3    H166760   3.731   2.489  15.083  0.0942  0.6041  0.0961
15115TIP3    H266761   3.773   2.358  15.147 -0.0672  0.3965 -0.2230
15116TIP3   OH266762   2.917   2.751   0.854 -0.6019 -0.2885  0.5643
15116TIP3    H166763   2.916   2.710   0.940 -1.8521 -1.3622  0.0787
15116TIP3    H266764   2.841   2.714   0.809 -1.7018  2.3999  0.0046
15117TIP3   OH266765   1.785   1.074   6.162  0.2821 -0.2448  0.1987
15117TIP3    H166766   1.855   1.033   6.212 -0.7730 -1.1559  0.9823
15117TIP3    H266767   1.776   1.162   6.200 -0.2453 -0.7909  1.3903
15118TIP3   OH266768   1.590   1.300   2.964  0.0953 -0.4335  0.1041
15118TIP3    H166769   1.565   1.260   2.881  1.3925 -2.5345  0.6337
15118TIP3    H266770   1.597   1.226   3.025  0.4089  0.8900  1.7646
15119TIP3   OH266771   0.592   2.068   0.791 -0.0758 -0.7345  0.3969
15119TIP3    H166772   0.599   1.993   0.733 -0.0812  0.8893 -1.8355
15119TIP3    H266773   0.502   2.100   0.778  0.2349  0.2318  0.5415
15120TIP3   OH266774   0.586   3.217   3.531  0.0924 -0.4119 -0.0999
15120TIP3    H166775   0.580   3.215   3.435  1.3689 -1.2144 -0.1916
15120TIP3    H266776   0.496   3.233   3.560 -0.2741  0.1321 -1.4325
15121TIP3   OH266777   1.021   0.524   2.071  0.2834  0.4446 -0.4676
15121TIP3    H166778   1.048   0.528   2.163  0.7531 -1.9009 -0.4399
15121TIP3    H266779   0.926   0.514   2.075  0.3366  0.0122 -0.2144
15122TIP3   OH266780   5.080   3.986   5.135 -0.1974  0.2533 -0.0713
15122TIP3    H166781   5.127   4.013   5.057  0.8947  0.0825  0.5028
15122TIP3    H266782   5.102   3.894   5.146  0.0819  0.4073  0.7252
15123TIP3   OH266783   5.909   0.325  11.511  0.2225  0.1291 -0.1612
15123TIP3    H166784   5.938   0.316  11.420 -1.0879  1.2679 -0.7211
15123TIP3    H266785   5.988   0.307  11.563  1.0498 -0.3009 -1.5079
15124TIP3   OH266786   2.264   0.729  16.394  0.3735 -0.1918  0.2046
15124TIP3    H166787   2.281   0.678  16.473  0.4888 -0.2760  0.1253
15124TIP3    H266788   2.336   0.793  16.391 -0.8864  1.3815  1.4427
15125TIP3   OH266789   4.466   6.087   5.841  0.3573  0.0485 -0.4548
15125TIP3    H166790   4.379   6.124   5.856  0.6529  1.2777 -1.5757
15125TIP3    H266791   4.476   6.089   5.746  0.7016 -2.2730 -0.5006
15126TIP3   OH266792   1.542   2.107   2.306 -0.8981  0.6076  0.4423
15126TIP3    H166793   1.566   2.189   2.265  0.2350  0.2938  0.4613
15126TIP3    H266794   1.568   2.040   2.242  0.5293  0.1390  1.4691
15127TIP3   OH266795   6.513   0.138   5.134 -0.0824 -0.0188  0.3007
15127TIP3    H166796   6.596   0.140   5.088  0.1552  0.5324  0.7430
15127TIP3    H266797   6.518   0.060   5.190  0.0184 -0.1402  0.1233
15128TIP3   OH266798   4.163   4.011  16.552 -0.1324 -0.5210  0.5590
15128TIP3    H166799   4.221   3.976  16.485  3.3308  1.9744  1.9752
15128TIP3    H266800   4.174   3.952  16.626 -1.6531 -1.5824 -0.0069
15129TIP3   OH266801   3.893   2.754   5.969 -0.1147  0.3364 -0.4993
15129TIP3    H166802   3.878   2.726   5.879 -0.7661  1.4602 -0.7618
15129TIP3    H266803   3.979   2.719   5.992 -1.2507 -2.6785 -0.4434
15130TIP3   OH266804   2.087   0.578   6.514  0.5813  0.5590  0.7961
15130TIP3    H166805   2.172   0.536   6.529  1.1208  1.1733 -0.4331
15130TIP3    H266806   2.106   0.648   6.452 -0.4749  1.9900  2.0256
15131TIP3   OH266807   6.312   2.820  13.062  0.3113 -0.2520 -0.0609
15131TIP3    H166808   6.319   2.909  13.027  1.0421  0.3633  1.5508
15131TIP3    H266809   6.400   2.784  13.052  0.4909 -0.1264  0.9128
15132TIP3   OH266810   4.643   4.177  15.787 -0.0907  0.5883  0.2458
15132TIP3    H166811   4.570   4.194  15.728 -0.7321  1.0903  1.1558
15132TIP3    H266812   4.712   4.236  15.759 -0.1055  0.2706 -0.4819
15133TIP3   OH266813   0.432   3.497   2.849  0.0543  0.7786 -0.1234
15133TIP3    H166814   0.367   3.519   2.916 -0.2316 -1.5797  0.4512
15133TIP3    H266815   0.467   3.582   2.822 -2.8204  2.1174 -0.0485
15134TIP3   OH266816   4.652   6.697  12.181  0.3961  0.3998  0.2775
15134TIP3    H166817   4.631   6.761  12.249 -0.0800  1.6367 -0.9883
15134TIP3    H266818   4.587   6.712  12.112 -2.0999 -3.8503  1.3295
15135TIP3   OH266819   1.538   0.136  17.068  0.4015 -0.6291 -0.1217
15135TIP3    H166820   1.619   0.179  17.042  0.3927  0.3826  1.4078
15135TIP3    H266821   1.469   0.201  17.049  0.1101 -0.9234 -0.0801
15136TIP3   OH266822   1.499   6.448  12.061 -0.4871 -0.5180 -0.5907
15136TIP3    H166823   1.539   6.527  12.098  0.2019 -2.0422  2.2336
15136TIP3    H266824   1.512   6.456  11.967  2.4288  1.2291 -0.1709
15137TIP3   OH266825   3.013   3.733   5.854  0.0509 -0.7193  0.1853
15137TIP3    H166826   2.959   3.734   5.775 -1.8608  1.1091  1.4110
15137TIP3    H266827   2.991   3.651   5.898  1.1035 -1.7355 -1.0954
15138TIP3   OH266828   1.492   5.140   3.322  0.5069  0.0695 -0.5379
15138TIP3    H166829   1.542   5.218   3.299  0.2125  0.3671 -0.1973
15138TIP3    H266830   1.558   5.074   3.341  0.7577  0.0676 -1.3700
15139TIP3   OH266831   2.170   5.947  12.448  0.2602  0.2562  0.0337
15139TIP3    H166832   2.110   5.981  12.382 -1.3202 -1.8491  0.2936
15139TIP3    H266833   2.200   5.863  12.412  2.2776  0.7580  0.3993
15140TIP3   OH266834   5.043   2.858  16.319  0.0319 -0.3451  0.2787
15140TIP3    H166835   5.046   2.877  16.225 -1.0940  1.9741  0.6312
15140TIP3    H266836   4.953   2.879  16.344  0.6262  0.2192  2.0664
15141TIP3   OH266837   0.034   5.899  10.528  0.1383 -0.1094  0.4388
15141TIP3    H166838  -0.045   5.941  10.561  0.8364  1.4523  0.1896
15141TIP3    H266839   0.031   5.810  10.565 -0.2664  0.8154  2.7935
15142TIP3   OH266840   5.622   3.019  15.861 -0.0311  0.0690  0.4200
15142TIP3    H166841   5.717   3.019  15.846 -0.0041 -0.8094  0.5137
15142TIP3    H266842   5.594   2.930  15.838 -0.6015 -0.1241  1.7223
15143TIP3   OH266843   2.777   3.615  10.763 -0.3285  0.2340  0.1901
15143TIP3    H166844   2.826   3.695  10.780 -0.8377  0.3884  1.0071
15143TIP3    H266845   2.843   3.546  10.756 -0.0194  0.1346  2.9450
15144TIP3   OH266846   2.979   4.126  14.039 -0.6740 -0.3530  0.0563
15144TIP3    H166847   3.029   4.185  14.095 -2.4715  2.2901 -0.8777
15144TIP3    H266848   2.902   4.178  14.013 -1.0894 -2.2151 -2.9396
15145TIP3   OH266849   6.431   3.181   5.191  0.1824 -0.0039  0.0488
15145TIP3    H166850   6.425   3.273   5.165  0.8884  0.3299  1.0106
15145TIP3    H266851   6.354   3.167   5.247  0.6358  0.3157  0.7731
15146TIP3   OH266852   1.100   1.807  13.792 -0.7572 -0.2968 -0.0059
15146TIP3    H166853   1.008   1.832  13.783 -0.9286 -0.7662  0.3818
15146TIP3    H266854   1.130   1.854  13.870  0.2110  2.3011 -1.7889
15147TIP3   OH266855   4.768   4.076  12.728  0.1477  0.6430 -0.1977
15147TIP3    H166856   4.838   4.125  12.685 -0.4669  0.0396 -1.9679
15147TIP3    H266857   4.771   3.990  12.688 -1.9972  0.7900 -0.7894
15148TIP3   OH266858   0.434   0.229   3.813  0.5917 -0.1472 -0.0017
15148TIP3    H166859   0.386   0.146   3.820 -0.1160  0.1824 -0.8149
15148TIP3    H266860   0.513   0.207   3.764  0.3959 -0.3373 -0.2339
15149TIP3   OH266861   1.434   2.920  10.734  0.3402 -0.4774 -0.5206
15149TIP3    H166862   1.395   2.974  10.665  0.6130  0.9114  0.3677
15149TIP3    H266863   1.515   2.887  10.696 -0.2867 -1.0632 -1.3993
15150TIP3   OH266864   1.781   4.789   3.258  0.8075 -0.2345 -0.0700
15150TIP3    H166865   1.789   4.695   3.271 -0.1446 -0.0814  2.0532
15150TIP3    H266866   1.862   4.825   3.294  0.3296 -0.1577  0.9957
15151TIP3   OH266867   0.951   0.005  11.134 -0.2866 -0.1873 -0.6745
15151TIP3    H166868   0.954  -0.039  11.219  1.6680 -0.9442 -1.0836
15151TIP3    H266869   0.886   0.074  11.145 -0.6415 -0.7666  1.1898
15152TIP3   OH266870   1.623   4.802  14.963 -0.4718 -0.0110 -0.3371
15152TIP3    H166871   1.605   4.768  15.051 -0.9278  0.2093 -0.3392
15152TIP3    H266872   1.644   4.894  14.977 -0.6289  0.0447 -0.4630
15153TIP3   OH266873   4.550   5.366   2.616  0.3190  0.0182 -0.4053
15153TIP3    H166874   4.556   5.443   2.673 -2.2300  0.0505 -0.0501
15153TIP3    H266875   4.582   5.396   2.531  0.3169  1.1793 -0.0119
15154TIP3   OH266876   2.941   2.130   0.077  0.2459  0.2458  0.3900
15154TIP3    H166877   2.948   2.196   0.145 -1.4810 -0.6832  1.5667
15154TIP3    H266878   2.847   2.118   0.065  0.5146 -1.3562 -0.4153
15155TIP3   OH266879   4.913   5.121   4.819 -1.0588 -0.0591  0.0777
15155TIP3    H166880   4.945   5.051   4.762 -0.4540  0.8736 -0.7516
15155TIP3    H266881   4.841   5.081   4.867 -1.1327 -1.0716 -0.8286
15156TIP3   OH266882   1.969   5.292  15.923 -0.4462  0.0393 -0.0270
15156TIP3    H166883   2.047   5.279  15.976 -0.0178  1.1618 -0.3497
15156TIP3    H266884   1.896   5.275  15.983  0.0294 -0.3675  0.4521
15157TIP3   OH266885   2.061   1.193  15.850  0.2723  0.1006 -0.3190
15157TIP3    H166886   1.969   1.172  15.867 -0.6991  3.1878 -1.0938
15157TIP3    H266887   2.085   1.253  15.920  2.6298 -2.5319  1.3491
15158TIP3   OH266888   0.397   3.980  11.685 -0.0727  0.1139 -0.0350
15158TIP3    H166889   0.437   3.901  11.650 -1.1045 -0.4307 -0.0381
15158TIP3    H266890   0.469   4.043  11.693  0.3995 -0.0587 -2.2074
15159TIP3   OH266891   0.549   6.471   2.639 -0.4132  0.0733 -0.1510
15159TIP3    H166892   0.499   6.392   2.623 -2.1549  1.1179 -0.0683
15159TIP3    H266893   0.488   6.530   2.683  0.0326  2.3940 -2.4070
15160TIP3   OH266894   1.933   6.380  15.974 -0.2606 -0.5156 -0.1792
15160TIP3    H166895   1.959   6.298  15.933 -0.3375 -0.2731 -0.7158
15160TIP3    H266896   1.928   6.443  15.902 -2.7382 -0.6391 -0.1851
15161TIP3   OH266897   2.113   2.471  13.011  0.1323  0.0558 -0.2473
15161TIP3    H166898   2.194   2.427  12.987 -0.1956 -0.5846 -0.1920
15161TIP3    H266899   2.098   2.446  13.102 -0.7150 -0.7476 -0.5919
15162TIP3   OH266900   1.178   6.738  15.526  0.0013 -0.1502  0.0975
15162TIP3    H166901   1.249   6.694  15.480 -0.7855 -1.3956  0.0301
15162TIP3    H266902   1.101   6.723  15.472 -0.7974 -0.9970  1.4014
15163TIP3   OH266903   5.404   5.808  16.977 -0.3517 -0.1993  0.1620
15163TIP3    H166904   5.482   5.841  17.024  0.0215  0.4888 -0.9066
15163TIP3    H266905   5.349   5.885  16.967  0.8222  0.3762 -2.9653
15164TIP3   OH266906   4.642   1.546  13.676  0.0344 -0.2134  0.0279
15164TIP3    H166907   4.555   1.534  13.638  0.0559  0.9468 -0.4366
15164TIP3    H266908   4.701   1.501  13.615 -0.1199  0.0638 -0.3322
15165TIP3   OH266909   5.066   1.379  17.156 -0.1324  0.4354  0.2625
15165TIP3    H166910   5.152   1.387  17.114  0.2095  1.4592  1.1085
15165TIP3    H266911   5.004   1.402  17.087  0.2651 -0.3152 -0.3565
15166TIP3   OH266912   1.865   5.111  16.182  0.2000 -0.2696 -0.0317
15166TIP3    H166913   1.921   5.184  16.208  0.2543 -0.9713  1.9934
15166TIP3    H266914   1.802   5.150  16.122  1.1397  1.1155 -0.1715
15167TIP3   OH266915   6.555   5.281   4.483  0.3321 -0.3067 -0.4179
15167TIP3    H166916   6.621   5.331   4.436  1.1451 -0.9546  0.0079
15167TIP3    H266917   6.548   5.198   4.435  0.5064 -0.6069  0.0629
15168TIP3   OH266918   2.210   4.658   4.666  0.0085  0.0343  0.2776
15168TIP3    H166919   2.138   4.711   4.631  1.3686  0.3952 -2.1813
15168TIP3    H266920   2.175   4.622   4.748 -1.8299  2.7613  0.8598
15169TIP3   OH266921   4.258   0.683   1.797  0.2713  0.0530 -0.1042
15169TIP3    H166922   4.268   0.589   1.780 -2.6391 -0.2814 -0.5180
15169TIP3    H266923   4.190   0.688   1.864  0.7684  1.8859  0.3097
15170TIP3   OH266924   3.966   5.870   1.371 -0.5670  0.3099  0.3140
15170TIP3    H166925   3.880   5.843   1.339 -0.2837  1.3097 -1.4394
15170TIP3    H266926   4.000   5.927   1.301  1.4426  0.0661  1.0478
15171TIP3   OH266927   0.628   3.115  17.013  0.2937  0.0052  0.1394
15171TIP3    H166928   0.546   3.077  17.045  0.4734  1.2441  2.2912
15171TIP3    H266929   0.696   3.066  17.059  0.8136 -1.0227 -1.6386
15172TIP3   OH266930   5.628   4.992   2.001  0.1076 -0.1522 -0.2949
15172TIP3    H166931   5.607   5.051   1.928 -0.4821 -0.3499 -0.2920
15172TIP3    H266932   5.553   4.932   2.005  0.2291 -0.2666  0.3440
15173TIP3   OH266933   3.010   1.096  12.862  0.2288  0.1495  0.4743
15173TIP3    H166934   3.028   1.190  12.864 -1.1229  0.4326  0.2734
15173TIP3    H266935   2.916   1.090  12.875  0.3213 -1.1958  0.6054
15174TIP3   OH266936   1.017   6.711   4.822  0.0879 -0.4663 -0.1770
15174TIP3    H166937   1.009   6.660   4.741  1.2113 -0.3043 -0.4080
15174TIP3    H266938   0.927   6.730   4.848 -0.3995 -3.1261  0.2835
15175TIP3   OH266939   0.005   4.050  10.418 -0.0701 -0.5412 -0.1092
15175TIP3    H166940  -0.087   4.029  10.436  0.1148 -0.5255  0.9187
15175TIP3    H266941   0.051   4.027  10.498  0.7147  0.1456 -0.3477
15176TIP3   OH266942   2.810   0.574   4.091  0.6148 -0.1995  0.4758
15176TIP3    H166943   2.790   0.667   4.104  0.1282 -0.4133  1.2899
15176TIP3    H266944   2.873   0.574   4.018 -1.4349  0.5746 -1.4020
15177TIP3   OH266945   2.727   5.356  11.883  0.6873  0.2958 -0.0394
15177TIP3    H166946   2.704   5.330  11.972  0.8239 -2.1226 -0.6467
15177TIP3    H266947   2.816   5.324  11.871  0.6644  0.5749 -1.0566
15178TIP3   OH266948   6.209   6.421   1.373 -0.2758  0.0773  0.5688
15178TIP3    H166949   6.262   6.499   1.387  0.1395  0.3369 -1.9953
15178TIP3    H266950   6.120   6.448   1.394  0.1593  0.5418  1.8906
15179TIP3   OH266951   3.153   6.233  13.372 -0.7870  0.0704 -0.5189
15179TIP3    H166952   3.141   6.319  13.413  0.5553 -0.1852  0.4864
15179TIP3    H266953   3.087   6.178  13.413  1.3578 -0.5136  2.4285
15180TIP3   OH266954   6.502   4.917  11.007  0.3761 -0.4364  0.0753
15180TIP3    H166955   6.554   4.993  10.980 -0.9069  0.4211 -0.1304
15180TIP3    H266956   6.534   4.845  10.954  1.3393  0.0659 -0.0462
15181TIP3   OH266957   3.657   3.067  14.752 -0.3975  0.5595  0.8729
15181TIP3    H166958   3.571   3.051  14.714 -1.3221 -0.4755  3.2001
15181TIP3    H266959   3.716   3.011  14.702 -1.1958  0.6664 -0.2343
15182TIP3   OH266960   0.785   2.725   3.578  0.6692  0.1342  0.1463
15182TIP3    H166961   0.750   2.738   3.490 -0.8000 -1.0087  0.5327
15182TIP3    H266962   0.708   2.720   3.634  1.4535 -1.6549  1.1448
15183TIP3   OH266963   3.381   4.962   3.161  0.1553 -0.1996 -0.2800
15183TIP3    H166964   3.395   4.871   3.135  0.4154 -0.1926 -0.1697
15183TIP3    H266965   3.436   4.974   3.238  0.6872  0.2571 -0.7223
15184TIP3   OH266966   5.614   0.557   5.662 -1.0780 -0.5840 -0.1724
15184TIP3    H166967   5.596   0.608   5.740 -0.7926 -2.7678  1.4147
15184TIP3    H266968   5.534   0.565   5.609 -1.8373 -0.2189  0.9989
15185TIP3   OH266969   2.852   1.951   1.010 -0.5043 -0.8568 -0.0985
15185TIP3    H166970   2.841   1.893   1.085 -0.6445  0.2827  0.7912
15185TIP3    H266971   2.920   2.012   1.036 -1.0431 -0.0085 -0.6188
15186TIP3   OH266972   2.144   4.689   5.533 -0.5452 -0.7444  0.0363
15186TIP3    H166973   2.152   4.785   5.532  0.9884 -0.8269 -2.2329
15186TIP3    H266974   2.169   4.664   5.622  1.4047  0.8578  0.0179
15187TIP3   OH266975   4.275   4.345   1.424  0.2850  0.1357  0.0284
15187TIP3    H166976   4.243   4.258   1.451 -2.1702  0.2193 -2.2214
15187TIP3    H266977   4.313   4.331   1.337 -0.0574  1.2901 -0.3259
15188TIP3   OH266978   6.084   5.631   3.927  0.4105  0.1415 -0.1674
15188TIP3    H166979   6.114   5.718   3.901  1.9996 -0.6612 -1.1929
15188TIP3    H266980   6.028   5.646   4.003  0.0034  2.1071 -0.8059
15189TIP3   OH266981   0.384   6.394  15.014  0.1130  0.1204 -0.4229
15189TIP3    H166982   0.304   6.413  14.964  1.5019  0.1257 -2.8070
15189TIP3    H266983   0.445   6.463  14.988  0.9899  0.0039  1.1951
15190TIP3   OH266984   1.169   5.721  12.505 -0.5548 -0.1581 -0.5754
15190TIP3    H166985   1.229   5.759  12.570  0.6477  0.5122 -2.0206
15190TIP3    H266986   1.165   5.628  12.529  1.8363 -0.4415 -0.9490
15191TIP3   OH266987   2.359   1.185   0.538  0.3000  0.3224  0.6031
15191TIP3    H166988   2.442   1.223   0.509  0.1086  0.2007 -0.1290
15191TIP3    H266989   2.295   1.256   0.531 -0.0117 -0.0513 -0.5532
15192TIP3   OH266990   4.263   2.303   1.147  0.0265 -0.6032  0.2457
15192TIP3    H166991   4.198   2.356   1.101 -0.1244 -1.3800 -0.4562
15192TIP3    H266992   4.220   2.276   1.228 -0.2878 -0.5714  0.0905
15193TIP3   OH266993   1.398   3.560   3.158 -0.2009  0.4823  0.1832
15193TIP3    H166994   1.438   3.544   3.073 -1.1763 -1.1156 -0.0161
15193TIP3    H266995   1.472   3.567   3.219  0.5064  1.7264 -0.7778
15194TIP3   OH266996   1.714   0.519  15.316  0.4751  0.2288 -0.6862
15194TIP3    H166997   1.701   0.483  15.228  0.3051  1.5267 -1.2160
15194TIP3    H266998   1.693   0.612  15.307  1.5529  0.6182  0.4643
15195TIP3   OH266999   1.095   4.596  17.078  0.3337  0.1927 -0.2988
15195TIP3    H167000   1.143   4.537  17.135  0.9980  0.6078 -0.4078
15195TIP3    H267001   1.163   4.639  17.026 -0.2684 -0.5139 -1.7446
15196TIP3   OH267002   3.422   2.199   5.940 -0.3082  0.6521  0.1147
15196TIP3    H167003   3.510   2.162   5.940 -0.4695  0.1788 -1.9355
15196TIP3    H267004   3.435   2.293   5.946  0.4267  0.6921 -1.6502
15197TIP3   OH267005   3.880   2.998  16.769  0.1127  0.2339  0.3646
15197TIP3    H167006   3.972   2.978  16.752 -0.0334  0.4634 -0.8481
15197TIP3    H267007   3.834   2.915  16.755  0.0894  0.2257  0.4944
15198TIP3   OH267008   4.464   0.753  12.962  0.3118 -0.4544  0.2764
15198TIP3    H167009   4.466   0.761  12.867  1.3755  0.0973  0.3233
15198TIP3    H267010   4.371   0.758  12.985  0.0885  0.0244 -0.6795
15199TIP3   OH267011   3.128   0.325  11.097  0.2007 -0.1606  0.3037
15199TIP3    H167012   3.079   0.302  11.019  1.1986  0.6391 -0.5924
15199TIP3    H267013   3.188   0.252  11.112  1.2245  0.4320 -0.7334
15200TIP3   OH267014   0.190   2.370   1.867  0.2026  0.0995 -0.4822
15200TIP3    H167015   0.141   2.396   1.945 -0.2466  1.7479 -1.2504
15200TIP3    H267016   0.276   2.411   1.878 -0.1981  1.2105 -1.2829
15201TIP3   OH267017   0.395   2.167   0.109 -0.2176  0.0213  0.2365
15201TIP3    H167018   0.364   2.103   0.045  2.9246 -0.7293 -0.6915
15201TIP3    H267019   0.429   2.114   0.182 -0.5917  0.7603  0.9669
15202TIP3   OH267020   5.054   3.337  13.734  0.2241  0.0316 -0.0737
15202TIP3    H167021   5.055   3.424  13.695 -0.1850 -0.1066 -0.4073
15202TIP3    H267022   5.073   3.351  13.826 -0.0128  0.4916 -0.0899
15203TIP3   OH267023   4.537   6.463   5.933  0.2121  0.3113  0.1715
15203TIP3    H167024   4.466   6.465   5.869  1.0786 -2.0531 -0.9819
15203TIP3    H267025   4.592   6.389   5.906  0.8631 -0.5392  3.3955
15204TIP3   OH267026   4.878   5.310   1.189 -0.2936 -0.1360  0.1807
15204TIP3    H167027   4.912   5.309   1.278  1.6913  0.8654 -0.5042
15204TIP3    H267028   4.936   5.370   1.142 -0.6445 -1.4276 -2.0314
15205TIP3   OH267029   3.145   2.840  16.714  0.1051  0.3493 -0.7141
15205TIP3    H167030   3.189   2.848  16.630  0.0373  0.6610 -0.7210
15205TIP3    H267031   3.093   2.920  16.722  0.3261  0.4513 -0.2556
15206TIP3   OH267032   5.079   3.757  12.741  0.0789 -0.2434 -0.0055
15206TIP3    H167033   5.141   3.816  12.700 -0.5158  0.1198 -0.3968
15206TIP3    H267034   4.994   3.782  12.705 -0.7988  1.4486  2.9224
15207TIP3   OH267035   1.804   2.609  13.125  0.6906 -0.0160 -0.2856
15207TIP3    H167036   1.814   2.582  13.034  0.5219  0.3593 -0.4156
15207TIP3    H267037   1.710   2.614  13.138  0.7094  1.3108 -0.5074
15208TIP3   OH267038   4.145   2.290   2.936  0.0634 -0.2882 -0.4049
15208TIP3    H167039   4.187   2.372   2.963  0.8157 -0.8365  0.1279
15208TIP3    H267040   4.079   2.274   3.003  0.7312 -0.7279  0.1639
15209TIP3   OH267041   2.662   6.119  15.316 -0.5730  0.0543  0.0518
15209TIP3    H167042   2.662   6.215  15.319 -0.8791  0.1132 -1.3273
15209TIP3    H267043   2.621   6.097  15.233  1.4716 -1.2188 -0.6976
15210TIP3   OH267044   2.123   4.514  16.790 -0.1349 -0.1562  0.3414
15210TIP3    H167045   2.210   4.553  16.779 -0.5766  0.6989 -0.1796
15210TIP3    H267046   2.062   4.587  16.784 -1.0311 -0.9598 -1.3793
15211TIP3   OH267047   4.083   3.777   1.291  0.4189 -0.0704 -0.3219
15211TIP3    H167048   4.088   3.779   1.387  0.2242  1.7951 -0.3117
15211TIP3    H267049   4.037   3.858   1.268  1.3663  0.0287 -2.0451
15212TIP3   OH267050   0.834   3.768  15.644  0.1089  0.1109  0.3608
15212TIP3    H167051   0.777   3.832  15.686 -1.2604  0.0026 -1.2328
15212TIP3    H267052   0.822   3.782  15.550  1.1160 -1.3213 -0.0258
15213TIP3   OH267053   3.455   1.347   0.703  0.4620  0.0922 -0.0779
15213TIP3    H167054   3.498   1.342   0.789 -1.2670 -0.1134  0.8400
15213TIP3    H267055   3.514   1.300   0.644  1.3109 -0.4876  1.1747
15214TIP3   OH267056   0.321   2.749  13.733  0.2669 -0.3491  0.2784
15214TIP3    H167057   0.315   2.712  13.821  2.8351 -0.8362  0.3286
15214TIP3    H267058   0.386   2.819  13.740 -0.5728  0.6112 -0.9570
15215TIP3   OH267059   4.236   4.674   0.227  0.6171 -0.1738 -0.0349
15215TIP3    H167060   4.244   4.760   0.186 -3.1993  0.2693 -0.2531
15215TIP3    H267061   4.187   4.622   0.164  1.1823 -1.9169  0.9075
15216TIP3   OH267062   5.605   5.564  15.080  0.0578  0.0526 -0.2039
15216TIP3    H167063   5.608   5.654  15.112 -1.8874  1.2836 -3.0453
15216TIP3    H267064   5.514   5.552  15.053  0.5510 -2.3766 -0.9996
15217TIP3   OH267065   2.850   0.550   5.102 -0.0886  0.6626  0.3276
15217TIP3    H167066   2.923   0.602   5.067 -0.3350  1.1410  0.5100
15217TIP3    H267067   2.893   0.483   5.156  0.3363 -0.5469 -1.4196
15218TIP3   OH267068   3.990   1.989  13.383  0.4080  0.6249  0.0811
15218TIP3    H167069   4.082   1.977  13.359  0.4537  0.5093  0.3135
15218TIP3    H267070   3.944   1.915  13.342  0.7940 -0.8218  2.1461
15219TIP3   OH267071   5.369   1.424  11.915 -0.2260  0.7516 -0.3986
15219TIP3    H167072   5.311   1.497  11.937  1.4616  1.7805  0.7912
15219TIP3    H267073   5.437   1.463  11.861  1.7166  0.5422  1.7408
15220TIP3   OH267074   1.244   1.890   4.557  0.4329 -0.3101 -0.1051
15220TIP3    H167075   1.268   1.895   4.649  0.0672 -1.8901  0.1122
15220TIP3    H267076   1.246   1.797   4.537 -0.9422 -0.1196 -1.2939
15221TIP3   OH267077   3.576   1.691  16.929  0.3548 -0.8814  0.6090
15221TIP3    H167078   3.496   1.668  16.976 -0.0692 -0.3199  0.1934
15221TIP3    H267079   3.623   1.609  16.918  0.2112 -1.0918  1.5507
15222TIP3   OH267080   4.333   1.846   0.990  0.2448  0.1725  0.1211
15222TIP3    H167081   4.242   1.821   0.974  0.7948 -1.9211 -0.0215
15222TIP3    H267082   4.359   1.796   1.067  0.8958  1.8389  1.0537
15223TIP3   OH267083   2.582   2.995   3.098  0.4681 -0.1754 -0.1175
15223TIP3    H167084   2.619   3.056   3.033  1.1094 -1.2790 -0.8181
15223TIP3    H267085   2.564   2.915   3.049  1.4292 -1.2133  1.1449
15224TIP3   OH267086   1.201   3.801   4.289  0.6736  0.2657 -0.3344
15224TIP3    H167087   1.159   3.784   4.205  0.4295  0.9101 -0.3491
15224TIP3    H267088   1.136   3.773   4.354  1.1606 -0.9542 -0.3448
15225TIP3   OH267089   4.866   2.884   5.868  0.1070  0.3317 -0.3831
15225TIP3    H167090   4.772   2.866   5.861  0.3607 -0.6919 -1.5309
15225TIP3    H267091   4.902   2.852   5.785  1.3081  1.8449 -0.4794
15226TIP3   OH267092   0.897   5.949  15.261  0.3668 -0.2561 -0.1479
15226TIP3    H167093   0.807   5.939  15.231 -0.1791  0.1957  1.2399
15226TIP3    H267094   0.926   6.033  15.226 -0.5147  0.6167  1.1142
15227TIP3   OH267095   4.088   3.263  16.386 -0.4440 -0.2813  0.2127
15227TIP3    H167096   4.003   3.243  16.424 -0.3505 -0.8249  0.1449
15227TIP3    H267097   4.090   3.358  16.379 -0.1655 -0.0928  2.2631
15228TIP3   OH267098   0.004   0.582  13.175 -0.4250  0.5042 -0.4544
15228TIP3    H167099  -0.013   0.655  13.115 -2.1265 -1.3127 -2.3230
15228TIP3    H267100   0.047   0.516  13.121 -1.0697 -0.8068  0.5761
15229TIP3   OH267101   5.290   4.669  11.277  0.2092 -0.5564  0.7676
15229TIP3    H167102   5.276   4.579  11.306 -0.4108 -0.3777  1.0280
15229TIP3    H267103   5.213   4.689  11.224  0.6526 -0.3924  0.1722
15230TIP3   OH267104   0.831   1.879  13.760 -0.4998 -0.4928 -0.0834
15230TIP3    H167105   0.770   1.806  13.768 -1.2071  0.0728 -0.2494
15230TIP3    H267106   0.817   1.914  13.673  0.0824 -0.3629 -0.1335
15231TIP3   OH267107   1.653   6.299   5.073 -0.5289 -0.5491 -0.3341
15231TIP3    H167108   1.609   6.240   5.133 -1.2235  2.1220  2.0034
15231TIP3    H267109   1.747   6.282   5.086 -0.7211 -2.3813 -1.1481
15232TIP3   OH267110   3.493   0.154  13.533 -0.5981 -0.2153  1.0277
15232TIP3    H167111   3.551   0.113  13.597 -0.9255 -0.3286  1.2524
15232TIP3    H267112   3.516   0.247  13.537  0.4935 -0.4191  0.1594
15233TIP3   OH267113   2.115   2.979  13.814  0.3231 -0.3127  0.3433
15233TIP3    H167114   2.137   2.933  13.895  0.6544 -1.1830 -0.2212
15233TIP3    H267115   2.092   2.909  13.753 -1.8574  0.4311  0.2355
15234TIP3   OH267116   5.664   5.313   2.061 -0.2857  0.2537 -0.3129
15234TIP3    H167117   5.635   5.222   2.066  2.7643 -0.7583  1.2842
15234TIP3    H267118   5.704   5.321   1.975  0.1979 -0.2104 -0.1375
15235TIP3   OH267119   0.465   1.928  11.158  0.3948  0.1557 -0.3294
15235TIP3    H167120   0.515   1.931  11.240  1.4362  2.4880 -0.9546
15235TIP3    H267121   0.385   1.977  11.177 -1.3477 -2.7512  0.3845
15236TIP3   OH267122   0.948   6.368  15.753 -0.0036 -0.3584 -0.5956
15236TIP3    H167123   0.988   6.455  15.764 -0.4049 -0.2454  0.0308
15236TIP3    H267124   0.929   6.362  15.659  0.1359  0.1869 -0.6621
15237TIP3   OH267125   0.150   3.628   4.358 -0.5142  0.5918  0.1208
15237TIP3    H167126   0.059   3.652   4.342 -0.5634  0.7704  0.6435
15237TIP3    H267127   0.166   3.655   4.449  0.1218  0.7619 -0.0403
15238TIP3   OH267128   1.375   5.357   0.531 -0.0002  0.5340  0.0017
15238TIP3    H167129   1.287   5.379   0.560  0.1960  1.6091 -0.1924
15238TIP3    H267130   1.410   5.302   0.600 -0.6629  0.4678  0.2923
15239TIP3   OH267131   4.424   2.484  11.517 -0.8632  0.0572  0.4190
15239TIP3    H167132   4.463   2.499  11.431 -1.1156 -1.4231  0.0273
15239TIP3    H267133   4.490   2.517  11.579  0.3073 -0.9088 -0.2729
15240TIP3   OH267134   5.233   3.706   6.132  0.3014 -0.8484 -0.2329
15240TIP3    H167135   5.142   3.699   6.106  0.0714 -1.3462  0.6562
15240TIP3    H267136   5.231   3.760   6.211  1.1948  2.5590 -2.3133
15241TIP3   OH267137   6.051   3.690   6.705 -0.1371 -0.5556  1.2828
15241TIP3    H167138   6.039   3.603   6.666  0.3258 -0.5771  1.1809
15241TIP3    H267139   6.049   3.675   6.799 -1.9386 -0.4121  1.2958
15242TIP3   OH267140   1.609   1.032   3.487 -0.0878 -0.2953  0.0556
15242TIP3    H167141   1.532   0.996   3.531 -0.2567  1.2911  1.1287
15242TIP3    H267142   1.667   0.957   3.475 -1.5023 -1.3939 -0.1716
15243TIP3   OH267143   5.984   1.556  16.509  0.4552 -0.5131  0.1117
15243TIP3    H167144   5.892   1.550  16.538  0.5679  1.0665  0.9163
15243TIP3    H267145   6.032   1.574  16.590  1.2361  0.4777 -0.5534
15244TIP3   OH267146   6.430   3.465   2.590  0.4101 -0.5248  0.0819
15244TIP3    H167147   6.510   3.438   2.546  0.8269  2.4089 -1.2152
15244TIP3    H267148   6.360   3.422   2.542  1.0982 -1.9887  0.3376
15245TIP3   OH267149   6.415   3.922   1.594 -0.4337 -0.1899  0.5281
15245TIP3    H167150   6.461   3.851   1.550  1.3216  1.3096 -0.1996
15245TIP3    H267151   6.328   3.922   1.554  0.4197 -0.2412 -1.4665
15246TIP3   OH267152   2.861   5.325   2.972  0.0004  1.0563  0.2852
15246TIP3    H167153   2.887   5.374   3.051 -0.5816  2.2376 -0.2285
15246TIP3    H267154   2.776   5.362   2.948 -0.7186 -0.6200  0.1802
15247TIP3   OH267155   5.943   0.238  16.666  0.3337 -0.1033 -0.4390
15247TIP3    H167156   6.019   0.251  16.722  0.3467  0.3726 -0.5614
15247TIP3    H267157   5.916   0.147  16.683  0.7375 -0.1771 -0.1653
15248TIP3   OH267158   3.628   3.901   1.580  0.0686  0.4288 -0.2436
15248TIP3    H167159   3.617   3.996   1.578  0.2017  0.4383 -0.6624
15248TIP3    H267160   3.674   3.884   1.662 -0.6886  0.6442  0.2376
15249TIP3   OH267161   2.232   6.311   4.188 -0.3558  0.3568 -0.0857
15249TIP3    H167162   2.262   6.357   4.110 -0.9481 -0.9236 -1.0988
15249TIP3    H267163   2.180   6.238   4.155  0.3220 -0.8876  1.4793
15250TIP3   OH267164   2.030   1.646   6.162 -0.3941 -0.2875 -0.4664
15250TIP3    H167165   1.939   1.619   6.156 -0.4895 -0.0428 -0.1239
15250TIP3    H267166   2.073   1.602   6.088 -0.8291 -0.2339 -0.7538
15251TIP3   OH267167   2.630   4.274   3.151 -0.6060 -0.2240  0.0081
15251TIP3    H167168   2.560   4.339   3.148 -1.4328 -1.1044 -0.5966
15251TIP3    H267169   2.597   4.201   3.097 -0.6285 -2.0216  2.3028
15252TIP3   OH267170   2.118   0.017  16.127  0.2583 -0.0373 -0.0374
15252TIP3    H167171   2.094  -0.076  16.134 -0.0439 -0.2325 -2.6749
15252TIP3    H267172   2.041   0.058  16.088  0.8786  1.0688 -0.1311
15253TIP3   OH267173   2.959   0.359   2.684 -0.1004  0.0994  0.3297
15253TIP3    H167174   2.948   0.289   2.619  0.3615 -0.0092  0.3606
15253TIP3    H267175   2.890   0.344   2.748 -1.1993  0.8018 -0.6568
15254TIP3   OH267176   0.476   4.512  14.737  0.3257 -0.6264  0.2671
15254TIP3    H167177   0.466   4.459  14.658 -0.0916 -0.0247 -0.0876
15254TIP3    H267178   0.425   4.591  14.720  0.6681 -0.2552  0.9228
15255TIP3   OH267179   4.945   3.835   0.561 -0.1032  1.0028  0.5311
15255TIP3    H167180   4.940   3.786   0.479 -2.3776  1.1175  0.5432
15255TIP3    H267181   5.039   3.841   0.580  0.3941 -0.2714 -1.2940
15256TIP3   OH267182   2.915   0.756  17.190  0.0892 -0.8004  0.4429
15256TIP3    H167183   2.855   0.829  17.178 -0.8326 -1.7448 -1.1005
15256TIP3    H267184   2.863   0.678  17.169  1.3987 -1.8058  0.7366
15257TIP3   OH267185   0.075   1.313  13.609 -0.0664 -0.1107 -0.1897
15257TIP3    H167186   0.032   1.373  13.549 -1.3589 -0.5838  0.2152
15257TIP3    H267187   0.028   1.324  13.692  1.7350  0.6048  0.8035
15258TIP3   OH267188   5.165   1.716   2.359  0.0119 -0.1585  0.1169
15258TIP3    H167189   5.156   1.770   2.281 -1.4628  0.7064  0.8460
15258TIP3    H267190   5.207   1.773   2.423  1.8512 -1.0737 -0.1909
15259TIP3   OH267191   5.026   2.771  11.726  0.2779 -0.0755 -0.2319
15259TIP3    H167192   4.955   2.750  11.665 -0.8301  0.8682  0.6902
15259TIP3    H267193   5.029   2.695  11.785 -0.0597 -0.0602 -0.1925
15260TIP3   OH267194   2.663   5.477   3.773  0.7390 -0.1961 -0.0220
15260TIP3    H167195   2.568   5.466   3.781  0.8460 -0.8737  0.4685
15260TIP3    H267196   2.674   5.549   3.711 -0.1100  0.9276  1.0853
15261TIP3   OH267197   4.432   4.619   4.486  0.2705 -0.2940  0.5644
15261TIP3    H167198   4.476   4.663   4.414 -0.7691  0.0469  0.1218
15261TIP3    H267199   4.379   4.687   4.528 -1.4074 -1.0765 -0.1633
15262TIP3   OH267200   4.294   5.169   0.226  0.0746  0.3088  0.1239
15262TIP3    H167201   4.221   5.200   0.279  0.0143  0.1305  0.1457
15262TIP3    H267202   4.304   5.077   0.250 -0.1887  0.1272 -0.4471
15263TIP3   OH267203   0.730   1.116   0.982  0.6690  0.2418 -0.3826
15263TIP3    H167204   0.812   1.069   0.966 -0.9230 -2.0919 -2.3482
15263TIP3    H267205   0.701   1.144   0.895 -1.6020 -0.7959 -0.0209
15264TIP3   OH267206   4.345   1.685  15.927  0.0290  0.6093 -0.4367
15264TIP3    H167207   4.399   1.606  15.935 -1.1717 -0.2349 -0.4144
15264TIP3    H267208   4.257   1.657  15.951 -0.4751  1.9132 -0.6551
15265TIP3   OH267209   3.833   3.654   3.333  0.0536 -0.2191  0.0053
15265TIP3    H167210   3.871   3.713   3.399 -0.6523 -0.4692  0.6509
15265TIP3    H267211   3.808   3.576   3.382  0.1939 -0.7161 -0.6987
15266TIP3   OH267212   5.038   1.586  12.431  0.0226 -0.2839 -0.1579
15266TIP3    H167213   5.022   1.651  12.362 -1.7247  0.6657  1.0728
15266TIP3    H267214   5.077   1.512  12.385  0.3790  0.9238 -1.9069
15267TIP3   OH267215   4.469   6.321   4.021 -0.6844 -0.1726 -0.3886
15267TIP3    H167216   4.413   6.381   3.972 -1.3836 -0.0723  0.5109
15267TIP3    H267217   4.558   6.342   3.992 -1.1042 -0.5875 -2.1175
15268TIP3   OH267218   6.297   0.111   3.245 -1.1031 -0.2890 -0.1915
15268TIP3    H167219   6.294   0.206   3.256 -0.5818 -0.2849 -0.0773
15268TIP3    H267220   6.287   0.077   3.334  0.0847 -0.3109 -0.0506
15269TIP3   OH267221   1.298   2.547  15.581  0.3741 -0.0371 -0.1878
15269TIP3    H167222   1.314   2.612  15.649  1.2196  1.7256 -1.9707
15269TIP3    H267223   1.219   2.501  15.610 -2.1473  3.7856 -0.1597
15270TIP3   OH267224   2.361   1.349  12.889 -0.4239 -0.4227  0.1657
15270TIP3    H167225   2.292   1.373  12.950  0.1973 -0.8305  1.0407
15270TIP3    H267226   2.314   1.310  12.814 -1.1714 -0.1046  0.4585
15271TIP3   OH267227   3.230   5.425   2.834  0.1564  0.5709 -0.0398
15271TIP3    H167228   3.281   5.449   2.911  0.2490 -0.7397  0.3321
15271TIP3    H267229   3.287   5.448   2.760  0.5900  0.6663  0.3179
15272TIP3   OH267230   0.625   3.372  16.772 -0.0878  0.6209  0.4562
15272TIP3    H167231   0.533   3.348  16.760  0.0873  0.3836 -0.4901
15272TIP3    H267232   0.674   3.292  16.754  0.5549  1.6581 -3.5339
15273TIP3   OH267233   2.923   0.995  13.798 -0.0024  0.0387 -0.0255
15273TIP3    H167234   2.867   0.925  13.764 -0.1643  0.6545 -1.0662
15273TIP3    H267235   2.911   1.068  13.737  1.3278  0.4572  0.1738
15274TIP3   OH267236   0.972   2.967  13.879  0.1369 -0.6403  0.1888
15274TIP3    H167237   0.941   3.036  13.938 -0.1576 -0.1051 -0.5907
15274TIP3    H267238   1.050   2.932  13.923  0.7383  0.6855  0.2230
15275TIP3   OH267239   4.184   5.567  17.137  0.1392  0.2696  0.3506
15275TIP3    H167240   4.220   5.509  17.204  1.3760 -0.4048 -0.8524
15275TIP3    H267241   4.240   5.553  17.060 -1.4830  0.6936 -0.9711
15276TIP3   OH267242   6.431   1.708  12.220  0.1018  0.2328 -0.3473
15276TIP3    H167243   6.403   1.617  12.222 -1.1939  0.6170 -0.2503
15276TIP3    H267244   6.477   1.721  12.304  2.0323 -0.8213 -1.1843
15277TIP3   OH267245   5.970   2.357   1.091 -0.3958  0.2884  0.5189
15277TIP3    H167246   5.943   2.390   1.177  0.3736 -0.8778  1.2418
15277TIP3    H267247   6.059   2.391   1.079 -1.5398  2.9196 -1.2002
15278TIP3   OH267248   4.916   2.117   7.202  0.2471 -0.3865  0.5153
15278TIP3    H167249   4.857   2.053   7.163  0.5546  1.1410 -2.8116
15278TIP3    H267250   4.867   2.199   7.202  1.5405  0.4222 -0.1534
15279TIP3   OH267251   5.566   3.286  14.366 -0.4558  0.6244 -0.0600
15279TIP3    H167252   5.502   3.328  14.309 -1.2328  0.6516  0.8099
15279TIP3    H267253   5.651   3.313  14.330 -0.8870 -0.1575 -1.7843
15280TIP3   OH267254   0.280   1.877   0.862 -0.0418  0.5673 -0.2244
15280TIP3    H167255   0.336   1.837   0.795 -0.4710  0.5223 -0.5622
15280TIP3    H267256   0.332   1.873   0.943  0.6738  1.0607 -0.6511
15281TIP3   OH267257   0.626   5.169   3.760 -0.4603  0.6467  0.1581
15281TIP3    H167258   0.673   5.205   3.835 -1.2409 -0.6269  1.3058
15281TIP3    H267259   0.695   5.142   3.699  0.2609  0.3509  1.0800
15282TIP3   OH267260   0.385   5.756   0.184  0.0741  0.4434  0.0496
15282TIP3    H167261   0.298   5.789   0.161 -0.9123 -0.8946  1.6143
15282TIP3    H267262   0.417   5.817   0.250  0.1264  0.6811 -0.1941
15283TIP3   OH267263   3.857   3.261   6.391  0.3737  0.0602 -0.0663
15283TIP3    H167264   3.938   3.310   6.375  0.4292 -0.3597 -1.1919
15283TIP3    H267265   3.871   3.177   6.347  0.2504 -0.9705  1.7774
15284TIP3   OH267266   4.981   0.704   1.197  0.3647 -0.4264 -0.2343
15284TIP3    H167267   5.017   0.702   1.108  0.4489 -0.5968 -0.1949
15284TIP3    H267268   4.895   0.663   1.189  0.4046 -0.5112 -0.2203
15285TIP3   OH267269   3.326   4.887  14.063  0.3392  0.0408 -0.4215
15285TIP3    H167270   3.372   4.970  14.053  1.0376 -0.4089 -0.9849
15285TIP3    H267271   3.365   4.829  13.998 -2.3171  0.1667 -2.2938
15286TIP3   OH267272   4.394   1.235  13.669 -0.5934  0.3219  0.1242
15286TIP3    H167273   4.362   1.229  13.579 -3.2100  2.2315  0.8148
15286TIP3    H267274   4.367   1.322  13.698  3.1153  1.1618  1.7433
15287TIP3   OH267275   2.787   3.582  13.416  0.0617 -0.2842 -0.2641
15287TIP3    H167276   2.816   3.494  13.443 -0.4734 -0.2392  0.4777
15287TIP3    H267277   2.868   3.632  13.409  0.2342 -0.2732  1.3987
15288TIP3   OH267278   5.189   0.494  15.040 -0.3166  0.0561  0.5053
15288TIP3    H167279   5.283   0.507  15.056 -0.2376 -0.2183  0.2552
15288TIP3    H267280   5.149   0.578  15.064 -0.0063  0.1769  0.6006
15289TIP3   OH267281   3.923   2.809   3.045  0.4321 -0.1276 -0.2439
15289TIP3    H167282   3.882   2.851   3.120 -1.8152 -0.0877 -1.4260
15289TIP3    H267283   3.910   2.715   3.059  0.9050 -0.1819 -0.1249
15290TIP3   OH267284   4.115   3.288   1.358  0.1079 -0.4506 -0.2072
15290TIP3    H167285   4.084   3.204   1.325 -0.0344 -0.8417  0.9045
15290TIP3    H267286   4.128   3.341   1.279 -0.0221 -1.4305 -0.9019
15291TIP3   OH267287   0.039   1.925  15.453 -0.5103  0.7341 -0.1256
15291TIP3    H167288  -0.042   1.883  15.481 -0.3552 -0.2016 -1.0379
15291TIP3    H267289   0.012   2.010  15.419 -0.9473  0.9600  0.7419
15292TIP3   OH267290   5.644   0.513  16.188 -0.5577  0.1963 -0.7126
15292TIP3    H167291   5.604   0.466  16.261 -1.2517  0.7895 -0.6994
15292TIP3    H267292   5.630   0.606  16.209  1.0932  0.4420 -0.5504
15293TIP3   OH267293   5.730   6.007   1.248 -0.0230  0.6923 -0.1829
15293TIP3    H167294   5.648   5.994   1.200 -0.1107 -1.0063  0.3603
15293TIP3    H267295   5.790   6.043   1.183  0.0095 -1.9674 -1.7808
15294TIP3   OH267296   1.496   5.808   6.382  0.2133 -0.0917  0.0390
15294TIP3    H167297   1.496   5.724   6.426 -1.3248 -0.0634  0.1717
15294TIP3    H267298   1.420   5.804   6.324  0.6978  0.8350 -0.6827
15295TIP3   OH267299   0.841   3.627  12.699 -0.0230 -0.1398  0.3716
15295TIP3    H167300   0.821   3.554  12.758 -0.3435  1.2423  2.0622
15295TIP3    H267301   0.936   3.636  12.704  0.0342 -0.5417  0.0284
15296TIP3   OH267302   3.755   6.678   2.275 -0.0223  0.3640 -0.5299
15296TIP3    H167303   3.756   6.749   2.212 -0.6276  0.0468 -0.9000
15296TIP3    H267304   3.695   6.708   2.344 -0.7952 -0.0459 -1.0044
15297TIP3   OH267305   3.218   3.131  11.213  0.2881 -0.8323  0.0635
15297TIP3    H167306   3.249   3.188  11.283  1.0835 -0.3039 -0.6876
15297TIP3    H267307   3.252   3.171  11.133 -2.2389 -0.2605 -0.8456
15298TIP3   OH267308   4.517   1.902   0.429 -0.1694  0.8099  0.4916
15298TIP3    H167309   4.433   1.909   0.384 -0.0268 -1.1604 -0.1809
15298TIP3    H267310   4.580   1.884   0.359  0.8697  2.4002  0.9682
15299TIP3   OH267311   2.975   5.618  14.911 -0.7260  0.0664 -0.1367
15299TIP3    H167312   3.009   5.528  14.919  0.6632  0.6449  0.9728
15299TIP3    H267313   3.038   5.662  14.854 -0.5812  0.6981  0.4916
15300TIP3   OH267314   3.419   0.081  16.925 -0.5048 -0.4134  0.0340
15300TIP3    H167315   3.394   0.044  17.010 -2.4161 -3.4224 -1.6657
15300TIP3    H267316   3.361   0.157  16.914  0.7322  0.9048  1.8997
15301TIP3   OH267317   5.416   0.751  16.142  0.7076 -0.6323  0.2876
15301TIP3    H167318   5.410   0.788  16.230  0.3169  0.0208 -0.0004
15301TIP3    H267319   5.325   0.741  16.114  0.7560  2.3420 -1.3151
15302TIP3   OH267320   4.334   0.505  14.975  0.5847  0.0471  0.6517
15302TIP3    H167321   4.409   0.455  14.943  1.0934  0.5882  0.9706
15302TIP3    H267322   4.349   0.594  14.942 -0.1807  0.0472  0.2913
15303TIP3   OH267323   6.167   5.205  15.825 -0.2823 -0.1864  0.0887
15303TIP3    H167324   6.137   5.116  15.810  1.0723 -0.5191 -0.7868
15303TIP3    H267325   6.213   5.201  15.909  0.5990 -0.5243 -0.4105
15304TIP3   OH267326   0.840   3.520   3.862 -0.0928  0.3390 -0.3618
15304TIP3    H167327   0.879   3.569   3.789  0.7154 -0.2145 -0.3118
15304TIP3    H267328   0.812   3.437   3.824 -0.2166  0.2883 -0.1644
15305TIP3   OH267329   5.690   0.714  11.720  0.2701  0.3325  0.5235
15305TIP3    H167330   5.686   0.619  11.710 -1.2262  0.3820  0.4517
15305TIP3    H267331   5.610   0.746  11.679  1.5037  1.7801 -0.9020
15306TIP3   OH267332   1.439   1.571   5.005 -0.1432 -0.2706 -0.0248
15306TIP3    H167333   1.517   1.518   4.987 -0.7607 -1.1888 -0.0587
15306TIP3    H267334   1.365   1.514   4.984 -0.8465  0.1865  1.1032
15307TIP3   OH267335   4.548   0.829   6.534 -0.2919  0.7082 -0.4483
15307TIP3    H167336   4.577   0.914   6.501  1.4493 -0.1081 -1.0948
15307TIP3    H267337   4.533   0.777   6.456  1.6549 -0.5269 -0.0652
15308TIP3   OH267338   6.245   4.852  13.877 -0.6561  0.1923 -0.6886
15308TIP3    H167339   6.200   4.782  13.924 -0.5128  0.7901  0.3795
15308TIP3    H267340   6.184   4.926  13.877 -1.0208 -0.0734 -2.2780
15309TIP3   OH267341   5.906   6.112  14.524  0.1399  0.6448 -0.1682
15309TIP3    H167342   5.821   6.100  14.481  0.6676  0.1800 -1.1016
15309TIP3    H267343   5.965   6.053  14.478  0.7883  0.3103  1.0565
15310TIP3   OH267344   5.436   4.220   0.189  0.3586 -0.2516 -0.0897
15310TIP3    H167345   5.487   4.166   0.249  0.8622  0.7503  0.4108
15310TIP3    H267346   5.496   4.292   0.166  0.0468 -0.4092 -1.4907
15311TIP3   OH267347   1.412   5.648  15.952 -0.1502 -0.6318 -0.3873
15311TIP3    H167348   1.390   5.738  15.927 -2.3463 -0.5219  1.6444
15311TIP3    H267349   1.500   5.635  15.917 -0.2033  1.8981 -1.7222
15312TIP3   OH267350   2.384   4.051  14.688  0.0125  0.3360 -0.1313
15312TIP3    H167351   2.393   4.005  14.604  1.9448  3.7500 -2.0154
15312TIP3    H267352   2.338   4.132  14.667  2.0486  2.1006  1.6765
15313TIP3   OH267353   4.149   2.368   4.079 -0.1651  0.0956  0.2597
15313TIP3    H167354   4.192   2.381   3.995  0.1573  0.1897  0.4372
15313TIP3    H267355   4.163   2.275   4.099 -1.7082 -0.3519 -0.5911
15314TIP3   OH267356   6.165   4.929   4.004 -0.0582 -0.3276  0.1534
15314TIP3    H167357   6.173   5.019   4.037 -2.7147 -0.0756  0.3077
15314TIP3    H267358   6.124   4.881   4.076 -0.8512 -1.0987 -0.7966
15315TIP3   OH267359   5.407   3.863   4.427  0.6767  0.2869  0.0606
15315TIP3    H167360   5.319   3.894   4.409  0.6257  0.5534  0.7670
15315TIP3    H267361   5.464   3.920   4.375  0.3930 -0.5242 -1.2071
15316TIP3   OH267362   3.109   5.465  13.440 -0.1335  0.3671 -0.1268
15316TIP3    H167363   3.059   5.543  13.465 -1.2322 -0.6653  1.0365
15316TIP3    H267364   3.064   5.393  13.484 -0.2989 -1.1992 -2.6746
15317TIP3   OH267365   0.847   4.397   3.998 -0.5071 -0.1559  0.3817
15317TIP3    H167366   0.753   4.414   4.000 -0.8607 -1.9308  0.0035
15317TIP3    H267367   0.872   4.412   3.907 -0.7262 -1.1393  0.1530
15318TIP3   OH267368   6.000   1.948  11.778 -0.4570 -0.1883  0.0701
15318TIP3    H167369   5.953   2.018  11.733  0.2341 -0.6001 -1.3919
15318TIP3    H267370   6.020   1.885  11.708 -0.0734 -1.2954  1.1354
15319TIP3   OH267371   2.240   4.540  12.361  0.1984  0.2893  0.0414
15319TIP3    H167372   2.170   4.548  12.426  1.4778  1.1641  1.3758
15319TIP3    H267373   2.196   4.510  12.282 -1.7782  1.3884  0.6615
15320TIP3   OH267374   0.990   6.218  15.203 -0.7518  0.4407  0.1296
15320TIP3    H167375   1.066   6.194  15.149 -0.3711 -1.3465  1.3758
15320TIP3    H267376   0.922   6.238  15.139  0.3108  0.5330 -1.0229
15321TIP3   OH267377   0.656   5.623   0.552  0.0012  0.5721  0.2046
15321TIP3    H167378   0.592   5.637   0.482 -0.0172 -2.9273 -0.6458
15321TIP3    H267379   0.672   5.711   0.587 -2.6378  2.0233 -1.8194
15322TIP3   OH267380   6.544   0.943   2.522  0.2533 -0.0709 -0.5089
15322TIP3    H167381   6.631   0.904   2.521 -0.0703 -0.8307 -1.8975
15322TIP3    H267382   6.541   0.996   2.442 -0.4882  0.1050 -0.3757
15323TIP3   OH267383   3.904   6.733  14.299  0.7525 -0.0750  0.9837
15323TIP3    H167384   3.853   6.740  14.380  1.2772 -1.5435  1.4688
15323TIP3    H267385   3.892   6.643  14.270  3.7886 -0.8101  1.6436
15324TIP3   OH267386   2.246   1.505  15.638  0.5459  0.4998  0.0250
15324TIP3    H167387   2.291   1.431  15.680  0.6291  0.7913  0.4560
15324TIP3    H267388   2.306   1.532  15.568  0.3375 -0.0870 -0.3916
15325TIP3   OH267389   3.963   0.515  16.262  0.3189 -0.2724 -0.2958
15325TIP3    H167390   3.974   0.420  16.263  1.6031 -0.2429 -3.0678
15325TIP3    H267391   4.044   0.550  16.299 -0.6605 -0.1764  1.9393
15326TIP3   OH267392   2.013   0.512   2.867  0.3236  0.3379  0.7484
15326TIP3    H167393   2.001   0.607   2.861  1.3283  0.4731  0.7721
15326TIP3    H267394   2.016   0.493   2.960  0.0662  0.2743  0.7442
15327TIP3   OH267395   6.597   6.722   2.639  0.2572  0.0621  0.8163
15327TIP3    H167396   6.651   6.665   2.584  0.3266  0.7903  0.1238
15327TIP3    H267397   6.527   6.664   2.670 -0.1769 -0.2006 -0.5990
15328TIP3   OH267398   0.698   1.747   0.127  0.3439  0.2173  0.3004
15328TIP3    H167399   0.760   1.762   0.199 -1.4745  0.0580  2.0033
15328TIP3    H267400   0.732   1.671   0.081  0.7949 -0.6228  1.9440
15329TIP3   OH267401   5.033   0.231  13.038  0.0796 -0.3659 -0.2912
15329TIP3    H167402   5.090   0.199  13.107  0.1619  0.2223 -0.0823
15329TIP3    H267403   4.956   0.266  13.083  0.9736  1.8218 -0.3167
15330TIP3   OH267404   2.424   5.112   3.616  0.0574 -0.1761  0.4258
15330TIP3    H167405   2.517   5.132   3.626  0.0194  1.0084 -1.2648
15330TIP3    H267406   2.421   5.042   3.550 -0.2273 -0.8032  1.0839
15331TIP3   OH267407   4.518   0.890  15.181 -0.7910 -0.0962  0.1698
15331TIP3    H167408   4.495   0.819  15.121  1.0811 -1.7420  1.2574
15331TIP3    H267409   4.553   0.845  15.258  1.8951  2.0086  0.3133
15332TIP3   OH267410   0.089   6.130  14.301  0.5914 -0.0836  0.0914
15332TIP3    H167411   0.027   6.070  14.342  0.9301  0.5188  1.5374
15332TIP3    H267412   0.040   6.212  14.292  0.9818  0.2265  0.7092
15333TIP3   OH267413   0.307   6.157   1.582 -0.2407 -0.6300 -0.4827
15333TIP3    H167414   0.283   6.245   1.611  0.7542 -0.7469  0.7926
15333TIP3    H267415   0.226   6.120   1.547 -1.3154 -0.1584  1.3919
15334TIP3   OH267416   0.898   1.244  14.871  0.0231 -0.2822 -0.2360
15334TIP3    H167417   0.968   1.301  14.904 -0.0523  0.3278 -1.1017
15334TIP3    H267418   0.850   1.218  14.949  1.0631 -0.5027  0.3521
15335TIP3   OH267419   1.537   2.664   0.572 -0.0876 -0.2923 -0.1117
15335TIP3    H167420   1.499   2.724   0.508  1.1679 -0.7027 -1.3062
15335TIP3    H267421   1.627   2.695   0.583  0.0698 -0.9550  0.5541
15336TIP3   OH267422   6.578   6.701  12.607  0.7629 -0.3838 -0.9253
15336TIP3    H167423   6.625   6.718  12.525  1.0432  1.6690 -0.3907
15336TIP3    H267424   6.527   6.622  12.589  1.7256 -0.6748 -2.6714
15337TIP3   OH267425   3.575   1.361  16.639  0.2349  0.4653 -0.1300
15337TIP3    H167426   3.548   1.368  16.730 -0.2988 -1.2610 -0.1156
15337TIP3    H267427   3.541   1.276  16.610  0.3656  0.9751 -1.9447
15338TIP3   OH267428   4.211   2.675  15.695 -0.1025 -0.4108  0.3131
15338TIP3    H167429   4.217   2.606  15.629  0.4280 -0.4674  0.4116
15338TIP3    H267430   4.193   2.755  15.645  0.9964 -0.3322  0.0197
15339TIP3   OH267431   5.000   6.586   3.892  0.3116  0.2621  0.0353
15339TIP3    H167432   4.945   6.643   3.838  0.8958  0.4762 -0.3497
15339TIP3    H267433   4.948   6.569   3.971 -1.3518 -1.5818 -1.3551
15340TIP3   OH267434   5.034   1.585  13.318  0.4730 -0.3866  0.7977
15340TIP3    H167435   4.996   1.641  13.385 -0.2451 -0.8602  0.7930
15340TIP3    H267436   5.125   1.616  13.310 -0.3466  1.9287 -0.4576
15341TIP3   OH267437   0.516   3.506  16.080 -0.2995  0.0931  0.2912
15341TIP3    H167438   0.521   3.601  16.068  2.1294 -0.1263 -1.0105
15341TIP3    H267439   0.558   3.491  16.165 -1.4529  0.2032  0.9078
15342TIP3   OH267440   4.637   0.003   2.529  0.2182 -0.0713  0.0368
15342TIP3    H167441   4.585   0.041   2.459 -0.4255  0.9827  1.0322
15342TIP3    H267442   4.589  -0.076   2.555  0.5238 -0.5306 -0.7679
15343TIP3   OH267443   4.633   5.574   5.175  0.6566  0.2508 -0.5070
15343TIP3    H167444   4.611   5.659   5.212 -0.5522 -1.3335  2.8094
15343TIP3    H267445   4.723   5.558   5.204  0.1513 -0.4412  0.7683
15344TIP3   OH267446   4.873   6.346   4.776  0.1189 -0.5391  0.1391
15344TIP3    H167447   4.964   6.323   4.762 -0.2416 -1.1783 -1.3956
15344TIP3    H267448   4.831   6.332   4.691 -1.0553  1.4340  0.3213
15345TIP3   OH267449   4.637   6.109  15.789 -0.0001  0.0659  0.5115
15345TIP3    H167450   4.597   6.081  15.872  0.1517  1.8178  1.2293
15345TIP3    H267451   4.562   6.121  15.730 -0.5289  2.1030  1.4728
15346TIP3   OH267452   3.187   1.608  14.009 -0.1063  0.1629 -0.1455
15346TIP3    H167453   3.157   1.531  13.961  2.4705 -0.0929 -1.4963
15346TIP3    H267454   3.107   1.656  14.029 -1.5140 -1.1621 -2.1977
15347TIP3   OH267455   5.010   6.508   0.336 -0.0312 -0.4771 -0.5850
15347TIP3    H167456   4.939   6.446   0.352 -0.8321  0.8549  1.5810
15347TIP3    H267457   5.049   6.523   0.422  0.8920  1.1204 -1.2247
15348TIP3   OH267458   1.853   6.478   3.467 -0.2579 -0.3509  0.5065
15348TIP3    H167459   1.944   6.472   3.497 -0.3101  0.5534  0.8855
15348TIP3    H267460   1.854   6.440   3.380  1.3266  3.0570 -1.1717
15349TIP3   OH267461   5.540   3.170  14.812  0.0995 -0.4931  0.8177
15349TIP3    H167462   5.634   3.173  14.795  0.0464 -1.4437  0.2718
15349TIP3    H267463   5.501   3.223  14.741  0.0069 -3.0060 -1.1417
15350TIP3   OH267464   4.206   6.121   4.163 -0.3860  0.6920  0.0754
15350TIP3    H167465   4.241   6.191   4.218  1.1250  2.8476 -3.3247
15350TIP3    H267466   4.135   6.162   4.114 -0.6897 -0.6593 -0.6644
15351TIP3   OH267467   6.201   5.856   0.054 -0.4912  0.3791  0.4673
15351TIP3    H167468   6.126   5.806   0.087  0.5731 -0.6985  1.3189
15351TIP3    H267469   6.172   5.947   0.059 -1.4374  0.0514  1.6209
15352TIP3   OH267470   5.524   4.322  10.763 -0.1668  0.2154 -0.6727
15352TIP3    H167471   5.441   4.327  10.716 -0.3119 -0.4266 -0.4881
15352TIP3    H267472   5.518   4.242  10.815  1.8959 -1.8147 -3.2476
15353TIP3   OH267473   0.421   4.831  13.036  0.3469  0.3866 -0.3198
15353TIP3    H167474   0.434   4.917  12.997 -1.3726  0.0778 -1.7057
15353TIP3    H267475   0.384   4.778  12.966  2.2835 -1.8040  0.2129
15354TIP3   OH267476   6.766   6.572   3.082  0.1847  0.3651 -0.6561
15354TIP3    H167477   6.770   6.511   3.156 -1.6761 -1.2973 -1.8255
15354TIP3    H267478   6.710   6.643   3.112  0.3711  0.2746 -0.0853
15355TIP3   OH267479   1.719   1.077  17.124 -0.0403  0.3832 -0.8868
15355TIP3    H167480   1.705   1.042  17.212 -2.3036 -1.7338 -1.9573
15355TIP3    H267481   1.711   1.171  17.134  2.6094  0.4983  1.5662
15356TIP3   OH267482   2.076   3.761  14.423  0.1160 -0.0140  0.3709
15356TIP3    H167483   2.101   3.829  14.361 -1.6119 -0.3708 -0.7992
15356TIP3    H267484   2.102   3.795  14.509  0.7152  1.3993 -0.3451
15357TIP3   OH267485   1.552   4.839   2.313  0.0304  0.2544 -0.4687
15357TIP3    H167486   1.583   4.834   2.403 -0.9045  3.7567  0.1989
15357TIP3    H267487   1.458   4.823   2.319  0.1114 -0.5010 -1.0192
15358TIP3   OH267488   2.391   0.271  13.978 -0.2048 -0.0203 -0.0348
15358TIP3    H167489   2.460   0.263  14.043 -0.2707 -0.0669  0.0290
15358TIP3    H267490   2.402   0.194  13.922 -0.3230 -0.1281  0.0882
15359TIP3   OH267491   5.149   1.458  11.473  0.5895 -0.1046  0.1369
15359TIP3    H167492   5.056   1.475  11.459  0.6751  0.9301  0.6986
15359TIP3    H267493   5.161   1.365  11.450 -0.8776 -0.6750  1.5055
15360TIP3   OH267494   0.916   5.155   2.682 -0.5782  0.5006  0.7694
15360TIP3    H167495   0.902   5.208   2.760 -0.5102  0.0986  1.0539
15360TIP3    H267496   1.010   5.156   2.669 -0.7025  2.0892 -0.3742
15361TIP3   OH267497   3.204   0.436   2.334 -0.0831 -0.1404  0.1425
15361TIP3    H167498   3.170   0.440   2.245  0.9038 -0.7160 -0.2670
15361TIP3    H267499   3.125   0.441   2.389 -0.8302 -1.2022 -0.7752
15362TIP3   OH267500   2.626   1.704  11.383  0.4893  0.2607  0.3879
15362TIP3    H167501   2.661   1.622  11.417 -1.8187  0.5444  3.9411
15362TIP3    H267502   2.553   1.677  11.327  0.7250 -0.1325  0.2667
15363TIP3   OH267503   2.913   3.246   1.116  0.1846 -0.4202  0.6872
15363TIP3    H167504   2.828   3.240   1.072 -0.2776  0.4958  1.4387
15363TIP3    H267505   2.899   3.204   1.201  0.3353  0.1896  1.0195
15364TIP3   OH267506   3.243   4.598  11.898 -0.0573  0.4626 -0.2675
15364TIP3    H167507   3.241   4.651  11.818 -0.6802  0.6543 -0.1235
15364TIP3    H267508   3.162   4.619  11.944  0.7286  1.1042  0.9069
15365TIP3   OH267509   2.524   6.776  15.867  0.6363  0.6964  0.1361
15365TIP3    H167510   2.509   6.866  15.838  0.2350  0.1391 -1.4493
15365TIP3    H267511   2.437   6.735  15.865  0.9013  0.1108  0.2952
15366TIP3   OH267512   0.009   6.163  10.362  0.1812 -0.2181 -0.2588
15366TIP3    H167513   0.013   6.078  10.406  0.2079  0.1101  0.3895
15366TIP3    H267514  -0.076   6.164  10.318 -0.0131 -0.4068  0.1031
15367TIP3   OH267515   6.492   6.728  11.194 -0.2798  0.1068 -0.6478
15367TIP3    H167516   6.407   6.694  11.219 -0.1329  1.1875  1.5813
15367TIP3    H267517   6.543   6.651  11.170 -1.5381 -0.6509 -0.9645
15368TIP3   OH267518   6.355   2.019  13.285 -0.9499  0.3191  0.2569
15368TIP3    H167519   6.336   2.075  13.361  0.1432  0.5892  0.3487
15368TIP3    H267520   6.425   2.065  13.239 -1.3295 -0.0483 -0.7058
15369TIP3   OH267521   1.067   4.597   0.196 -0.2067  0.4476  0.2655
15369TIP3    H167522   1.135   4.546   0.152  0.1919  2.7377 -2.0432
15369TIP3    H267523   1.111   4.634   0.273 -0.5161 -2.5144  1.9882
15370TIP3   OH267524   5.142   2.448   0.310  0.1777 -0.3629  0.3948
15370TIP3    H167525   5.203   2.481   0.244 -0.1634 -1.4769 -0.5057
15370TIP3    H267526   5.134   2.520   0.373  0.6798  0.6430 -0.6546
15371TIP3   OH267527   0.040   4.644   3.971 -0.6918 -0.4522 -0.1961
15371TIP3    H167528   0.068   4.692   3.893  0.7326 -1.0545 -0.0853
15371TIP3    H267529   0.012   4.559   3.936 -0.7409 -0.4638 -0.1267
15372TIP3   OH267530   3.822   1.577   5.542  0.3662  0.1573  0.7643
15372TIP3    H167531   3.846   1.666   5.567  0.0120  0.2126  0.9189
15372TIP3    H267532   3.766   1.546   5.613 -0.0730  0.0593  0.3872
15373TIP3   OH267533   1.848   5.041  13.792  0.2958 -0.8213  0.0753
15373TIP3    H167534   1.801   5.025  13.710  1.1052  4.0584 -1.6755
15373TIP3    H267535   1.939   5.022  13.772  0.3905 -0.3290  0.0070
15374TIP3   OH267536   1.974   3.219  17.131 -0.0463 -0.0082 -0.2285
15374TIP3    H167537   1.990   3.257  17.044  1.4994  0.7962  0.3648
15374TIP3    H267538   2.019   3.278  17.191  0.0554 -1.2987  1.0005
15375TIP3   OH267539   1.698   2.414  17.161 -0.6011 -0.3080 -0.1067
15375TIP3    H167540   1.717   2.357  17.236 -0.9865  1.3206  1.3111
15375TIP3    H267541   1.603   2.410  17.152 -0.8744  1.5161  1.2820
15376TIP3   OH267542   2.365   1.100   0.808 -0.2985 -0.0762  0.5647
15376TIP3    H167543   2.329   1.117   0.721 -0.6636  0.2043  0.7674
15376TIP3    H267544   2.459   1.086   0.793 -0.0822  1.4477  0.2982
15377TIP3   OH267545   6.303   3.580   2.822  0.1107 -0.2209 -0.4399
15377TIP3    H167546   6.277   3.663   2.783  1.6188  0.3149 -0.3734
15377TIP3    H267547   6.368   3.545   2.762  1.2310 -0.1927  0.7238
15378TIP3   OH267548   5.004   0.452  16.870 -0.1494 -0.2341 -0.5504
15378TIP3    H167549   5.082   0.446  16.926 -1.5346 -0.5535  1.4849
15378TIP3    H267550   4.976   0.361  16.858 -0.1586 -0.1315 -1.3660
15379TIP3   OH267551   3.910   1.471   5.047  0.3394  0.0541  0.3197
15379TIP3    H167552   3.825   1.429   5.059  0.8169 -1.1124 -0.2054
15379TIP3    H267553   3.972   1.399   5.039  0.9649  0.7643 -2.3413
15380TIP3   OH267554   2.402   5.484   2.201 -0.0693  0.5129  0.6488
15380TIP3    H167555   2.355   5.462   2.282 -0.5456  1.3375  0.6025
15380TIP3    H267556   2.337   5.474   2.132  0.4578 -0.6642  0.2817
15381TIP3   OH267557   1.600   1.932   1.469  0.5242  0.2654  0.3428
15381TIP3    H167558   1.629   1.842   1.457  1.2814  0.3999  1.0714
15381TIP3    H267559   1.593   1.943   1.563 -2.2706  0.1573  0.2054
15382TIP3   OH267560   1.221   0.471  13.340 -0.4798  0.1417  0.2899
15382TIP3    H167561   1.131   0.447  13.360 -0.5428  1.0584  1.1744
15382TIP3    H267562   1.227   0.467  13.245 -1.0269 -1.3762  0.2922
15383TIP3   OH267563   0.020   2.720   2.299 -0.6710  0.4788  0.2052
15383TIP3    H167564   0.071   2.776   2.240 -0.6063 -0.0439 -0.2498
15383TIP3    H267565   0.079   2.648   2.321 -1.1510 -0.0673 -0.2270
15384TIP3   OH267566   3.404   5.638  14.290  0.0473  0.3370  0.5804
15384TIP3    H167567   3.408   5.704  14.221 -0.3127 -0.4073 -0.1766
15384TIP3    H267568   3.469   5.572  14.264 -0.1532  0.0101  0.9024
15385TIP3   OH267569   4.024   6.739   2.224 -0.4022  0.4301  0.5108
15385TIP3    H167570   4.059   6.669   2.169  0.1908  0.9857  0.1658
15385TIP3    H267571   3.931   6.720   2.232 -0.5863  0.5861 -1.0696
15386TIP3   OH267572   5.942   6.456  11.746  0.6438 -0.1003  0.1139
15386TIP3    H167573   5.867   6.416  11.789  0.1569  0.5297 -0.1263
15386TIP3    H267574   6.018   6.427  11.797 -0.0529  2.5155  2.9229
15387TIP3   OH267575   2.810   0.991   5.225  0.2003  0.5412  0.2170
15387TIP3    H167576   2.802   0.915   5.282 -0.9537  0.2645 -0.2926
15387TIP3    H267577   2.723   1.003   5.188 -0.1511  3.2936  1.7167
15388TIP3   OH267578   2.229   3.749   2.544  0.5141 -0.1428 -0.0733
15388TIP3    H167579   2.217   3.763   2.638 -1.3237  0.6873 -0.3750
15388TIP3    H267580   2.141   3.725   2.512  0.3262  2.7069 -2.0503
15389TIP3   OH267581   5.706   5.905   5.616  0.6488 -0.0689 -0.3483
15389TIP3    H167582   5.671   5.897   5.527  0.2280 -1.0064 -0.1114
15389TIP3    H267583   5.674   5.828   5.661  0.2938  0.7328  0.8193
15390TIP3   OH267584   4.515   1.017  16.255  0.6367  0.0460  0.5993
15390TIP3    H167585   4.587   1.019  16.318  1.4869 -0.6084 -0.3092
15390TIP3    H267586   4.542   0.951  16.191 -0.0982  0.8222 -0.5489
15391TIP3   OH267587   2.461   4.729   4.521  0.0196  0.9059  0.0274
15391TIP3    H167588   2.437   4.820   4.542  0.2868  1.1032 -0.4964
15391TIP3    H267589   2.388   4.677   4.555  0.1895  1.2538  0.9454
15392TIP3   OH267590   0.392   4.071   2.541  0.4442  0.0086  0.2933
15392TIP3    H167591   0.322   4.126   2.506  2.0379  1.7113 -0.3580
15392TIP3    H267592   0.369   4.060   2.634  0.2923  2.2250  0.5743
15393TIP3   OH267593   4.363   0.977   1.026 -0.0144  0.2987  0.3139
15393TIP3    H167594   4.283   1.025   1.047 -1.1831 -0.6250 -1.7841
15393TIP3    H267595   4.349   0.889   1.061  1.2019  0.7818  2.1745
15394TIP3   OH267596   0.029   2.211  12.392 -0.4665 -0.3309  0.1928
15394TIP3    H167597  -0.059   2.172  12.391 -0.7786  0.3258  0.9210
15394TIP3    H267598   0.082   2.151  12.443 -0.9618  0.2024  1.3702
15395TIP3   OH267599   0.624   3.023  13.420 -0.0988 -0.2763 -0.5031
15395TIP3    H167600   0.597   3.070  13.341  2.2172  0.8507 -0.7359
15395TIP3    H267601   0.707   2.982  13.396  0.0369 -0.9581  0.9932
15396TIP3   OH267602   4.693   4.450   4.630  0.7666  0.1373  0.0204
15396TIP3    H167603   4.752   4.487   4.697  1.1834  0.2877 -0.4200
15396TIP3    H267604   4.625   4.516   4.619 -0.6006 -0.8684  1.9239
15397TIP3   OH267605   0.755   0.503  12.030  0.2786 -0.9014  0.5882
15397TIP3    H167606   0.668   0.463  12.033 -0.2514  0.1828  0.2019
15397TIP3    H267607   0.744   0.588  12.073  0.0957  1.0511 -2.8999
15398TIP3   OH267608   4.290   0.074   2.193 -0.0977 -0.3283 -0.2815
15398TIP3    H167609   4.275   0.166   2.214  0.1755 -0.7412  2.0312
15398TIP3    H267610   4.202   0.036   2.186 -0.2401 -0.3753  1.3849
15399TIP3   OH267611   6.236   5.918  13.852 -0.4721 -0.1596  0.6481
15399TIP3    H167612   6.294   5.871  13.912 -0.0325  0.3107  0.5937
15399TIP3    H267613   6.185   5.849  13.810 -1.1972 -0.4623  1.9746
15400TIP3   OH267614   6.435   2.907   2.751  0.7406  0.3441  0.3617
15400TIP3    H167615   6.422   3.000   2.732  0.8203  0.8471  2.4780
15400TIP3    H267616   6.347   2.872   2.762  0.7143  0.9444  2.6297
15401TIP3   OH267617   0.056   6.112  13.649  0.4979  0.1154 -0.0212
15401TIP3    H167618  -0.004   6.165  13.597  0.1577 -1.5735 -1.4340
15401TIP3    H267619   0.110   6.066  13.585 -0.3799 -2.5559  1.0450
15402TIP3   OH267620   1.748   3.600  17.206  0.4936  0.7631  0.0233
15402TIP3    H167621   1.695   3.602  17.126  0.2962  0.5078  0.1458
15402TIP3    H267622   1.730   3.514  17.245  0.4419  0.9629  0.4447
15403TIP3   OH267623   6.352   6.593  13.542 -0.6269  0.2806  0.2716
15403TIP3    H167624   6.413   6.658  13.577 -0.3197  0.3784 -0.4290
15403TIP3    H267625   6.330   6.538  13.617  1.1195 -0.3893  0.3334
15404TIP3   OH267626   1.098   3.366  12.492  0.0154 -0.7057  0.2123
15404TIP3    H167627   1.133   3.450  12.521 -0.8199 -0.3091  0.1041
15404TIP3    H267628   1.099   3.312  12.571 -0.7130 -0.1499  0.6167
15405TIP3   OH267629   4.366   4.313  11.392 -0.1797 -0.2007 -0.3658
15405TIP3    H167630   4.435   4.263  11.348 -0.9063 -1.1790 -0.4344
15405TIP3    H267631   4.343   4.260  11.468 -1.7616 -0.5636 -1.0568
15406TIP3   OH267632   4.291   5.891   3.512  0.3536  0.3434  0.0904
15406TIP3    H167633   4.294   5.930   3.424  0.1849  1.4013  0.5377
15406TIP3    H267634   4.208   5.922   3.548  1.5647  2.0337  1.5640
15407TIP3   OH267635   6.062   2.110   4.745  0.1397  0.0199  0.1704
15407TIP3    H167636   6.025   2.193   4.715  0.3151  0.5884  1.4735
15407TIP3    H267637   6.144   2.102   4.697 -0.1553  0.3170 -0.3918
15408TIP3   OH267638   0.442   3.756  10.958 -0.2994  0.2747  0.1319
15408TIP3    H167639   0.436   3.804  11.041 -1.2548  0.9995 -0.3337
15408TIP3    H267640   0.394   3.675  10.974  0.0267  0.1468  0.4685
15409TIP3   OH267641   5.567   2.947  12.907 -0.3515  0.4602 -0.0265
15409TIP3    H167642   5.566   2.973  12.814 -0.9325 -0.4463 -0.2906
15409TIP3    H267643   5.559   3.029  12.955  0.1540  0.9604 -0.7732
15410TIP3   OH267644   6.674   4.856   3.575 -0.8379 -0.6602  0.2516
15410TIP3    H167645   6.617   4.923   3.612 -0.7339 -0.2445 -0.3327
15410TIP3    H267646   6.739   4.839   3.643 -0.6893  0.0469  0.2908
15411TIP3   OH267647   2.491   2.730  15.517  0.2716  0.2239  0.2509
15411TIP3    H167648   2.532   2.648  15.541  0.4843  0.2972  0.1378
15411TIP3    H267649   2.428   2.707  15.449 -0.7277 -0.0703  1.2516
15412TIP3   OH267650   1.242   2.538  16.523  0.2041  0.5213 -0.3312
15412TIP3    H167651   1.317   2.588  16.492  0.1902  1.0143  0.4017
15412TIP3    H267652   1.268   2.505  16.609 -0.1186  0.0208 -0.4212
15413TIP3   OH267653   5.984   2.018   3.203  0.1674  0.5060  0.3566
15413TIP3    H167654   5.987   1.970   3.120  2.0976  2.1208 -0.5868
15413TIP3    H267655   5.911   2.079   3.193 -0.0022  0.2649  0.1062
15414TIP3   OH267656   5.118   1.802   4.136 -0.3463  0.4191  0.2607
15414TIP3    H167657   5.209   1.780   4.158 -0.9450 -0.2545  2.1881
15414TIP3    H267658   5.122   1.894   4.108  0.9415  0.3482  0.1225
15415TIP3   OH267659   5.081   1.339  12.339  0.1525  0.2105  0.6976
15415TIP3    H167660   5.039   1.290  12.410 -0.6516 -0.6635 -0.3427
15415TIP3    H267661   5.166   1.296  12.327 -1.5873 -3.0263 -2.0845
15416TIP3   OH267662   0.202   4.759   0.164 -0.3161  0.0647 -0.8295
15416TIP3    H167663   0.133   4.795   0.220  0.6236  1.5078 -0.5337
15416TIP3    H267664   0.159   4.691   0.112 -1.9990  1.0998 -0.8400
15417TIP3   OH267665   0.815   3.219   0.042  0.8498  0.1732 -0.3228
15417TIP3    H167666   0.855   3.305   0.025  0.3465  0.5060  0.1084
15417TIP3    H267667   0.828   3.170  -0.038  1.8083  0.3932 -0.3202
15418TIP3   OH267668   4.101   1.755   4.304 -0.4123 -0.9015 -1.3066
15418TIP3    H167669   4.101   1.665   4.337  2.3637  0.1871  2.3038
15418TIP3    H267670   4.153   1.751   4.224  2.5274 -2.2300  0.4815
15419TIP3   OH267671   1.910   4.606   5.030 -0.0482 -0.4909  0.5825
15419TIP3    H167672   2.001   4.633   5.017 -0.6333  1.1959 -0.2104
15419TIP3    H267673   1.910   4.562   5.115  1.1113  1.4014  1.6157
15420TIP3   OH267674   2.139   0.051  12.392 -0.6959 -0.0190  0.1203
15420TIP3    H167675   2.089   0.036  12.312  0.1390 -0.0320 -0.4050
15420TIP3    H267676   2.151   0.146  12.395  0.3982 -0.1252 -0.4741
15421TIP3   OH267677   2.762   5.483  12.379 -0.0691  0.8388  1.0320
15421TIP3    H167678   2.854   5.484  12.352 -0.9005  5.2046 -2.9802
15421TIP3    H267679   2.754   5.556  12.439 -0.9213  0.4014  1.4578
15422TIP3   OH267680   6.401   0.277  13.745  0.0693  0.1095 -0.0511
15422TIP3    H167681   6.354   0.214  13.799  0.8216 -1.0583 -0.7018
15422TIP3    H267682   6.333   0.332  13.707 -0.7803 -1.4724 -0.9119
15423TIP3   OH267683   6.207   0.907  12.260 -0.5281 -0.1144  0.3551
15423TIP3    H167684   6.249   0.845  12.201  0.9152  1.8584 -0.8135
15423TIP3    H267685   6.247   0.991  12.239 -0.1997  0.7848  3.9041
15424TIP3   OH267686   4.680   6.152   1.567 -0.6994  0.5353 -0.9913
15424TIP3    H167687   4.774   6.165   1.578 -0.7420 -0.4467  0.8074
15424TIP3    H267688   4.646   6.238   1.542  0.4847  1.2312 -0.2756
15425TIP3   OH267689   1.744   0.904   2.719  0.4417  0.6427 -0.0354
15425TIP3    H167690   1.650   0.899   2.738 -0.1175  0.9721 -2.3269
15425TIP3    H267691   1.763   0.998   2.718  0.8241  0.5726  0.5280
15426TIP3   OH267692   0.451   4.064  16.394 -0.3292 -0.2113  0.0682
15426TIP3    H167693   0.491   4.088  16.310  0.7979 -0.7588  0.4200
15426TIP3    H267694   0.428   4.147  16.434  4.3876  0.6347  1.7039
15427TIP3   OH267695   4.305   1.341  13.422 -0.7247 -0.2587  0.2822
15427TIP3    H167696   4.210   1.352  13.415 -1.0702 -2.0074  1.6721
15427TIP3    H267697   4.322   1.256  13.381  0.3468  0.2755 -0.4332
15428TIP3   OH267698   5.226   2.074   5.115  0.0217 -0.3674 -0.2842
15428TIP3    H167699   5.142   2.040   5.145 -0.0933 -0.5464 -0.7988
15428TIP3    H267700   5.230   2.163   5.149  0.1399 -0.7435  0.7337
15429TIP3   OH267701   4.121   6.752  14.134 -0.3621  0.4590  0.3470
15429TIP3    H167702   4.038   6.744  14.182 -0.5784 -0.5376 -0.1734
15429TIP3    H267703   4.179   6.797  14.194 -0.1272 -2.1436  2.2165
15430TIP3   OH267704   1.389   6.309  16.826  0.2015  0.3885  0.3707
15430TIP3    H167705   1.329   6.264  16.885 -0.5657  0.5303 -0.2712
15430TIP3    H267706   1.389   6.255  16.747  0.6030  0.6119  0.2163
15431TIP3   OH267707   2.677   6.421  14.182  0.0681  0.4298  0.5152
15431TIP3    H167708   2.640   6.406  14.095  0.6523  0.6895  0.2202
15431TIP3    H267709   2.694   6.515  14.186  1.4277  0.2077  0.3441
15432TIP3   OH267710   3.592   0.519   2.106 -0.1833 -0.2813  0.4380
15432TIP3    H167711   3.638   0.599   2.132  1.0112 -1.2139  1.3059
15432TIP3    H267712   3.608   0.457   2.177  1.1595 -2.1488 -1.3573
15433TIP3   OH267713   6.078   6.144  13.511  0.5769  0.2915  0.5233
15433TIP3    H167714   6.128   6.190  13.443  0.9548 -1.7458 -0.6770
15433TIP3    H267715   6.010   6.097  13.462  0.5672 -0.8533  1.5850
15434TIP3   OH267716   0.860   4.476  17.167 -0.2533  0.2458 -0.4652
15434TIP3    H167717   0.851   4.476  17.263 -1.6695  2.3387 -0.5324
15434TIP3    H267718   0.939   4.528  17.151 -2.0740  3.2530 -0.4361
15435TIP3   OH267719   6.110   3.476  15.330 -0.0383  0.0516  0.3975
15435TIP3    H167720   6.098   3.544  15.263  1.3485  0.2247  0.2946
15435TIP3    H267721   6.108   3.524  15.413  0.1781  0.1123  0.3681
15436TIP3   OH267722   1.690   6.317   0.428 -0.1530  0.5687 -0.1276
15436TIP3    H167723   1.771   6.359   0.399 -0.4010  0.0668 -1.5916
15436TIP3    H267724   1.621   6.376   0.399 -0.4206 -0.0749 -0.8103
15437TIP3   OH267725   3.571   4.134   2.336  0.0021  0.0426 -0.2016
15437TIP3    H167726   3.542   4.223   2.358 -1.1526 -0.5740  0.8096
15437TIP3    H267727   3.665   4.135   2.354 -0.3292  0.5204  1.6764
15438TIP3   OH267728   6.689   5.538   2.857 -0.3898  0.0188 -0.7834
15438TIP3    H167729   6.753   5.469   2.875  0.4181  0.7801 -0.7264
15438TIP3    H267730   6.636   5.543   2.936  0.9973  1.0180  0.1054
15439TIP3   OH267731   3.043   4.313  11.202 -0.4002  0.0921  0.0341
15439TIP3    H167732   3.094   4.248  11.252  0.6817  2.0975  1.7150
15439TIP3    H267733   2.971   4.263  11.165 -0.1805 -1.9123  2.0519
15440TIP3   OH267734   6.569   3.367   5.648 -0.1228  0.2721  0.2571
15440TIP3    H167735   6.517   3.447   5.635  0.8262  1.5627  3.4331
15440TIP3    H267736   6.656   3.399   5.672  0.4139 -1.7171  1.1765
15441TIP3   OH267737   1.645   6.497  10.775  0.0015 -0.0434  0.0355
15441TIP3    H167738   1.648   6.579  10.725  0.6073 -1.3784 -2.2780
15441TIP3    H267739   1.563   6.502  10.824  0.6651  2.4991  1.0558
15442TIP3   OH267740   1.292   3.229  11.710 -0.3746 -0.1880 -0.4987
15442TIP3    H167741   1.353   3.264  11.644  1.6921 -1.2320  0.7617
15442TIP3    H267742   1.302   3.289  11.784 -2.9785  1.2101 -1.1485
15443TIP3   OH267743   1.195   1.516   1.166 -0.6126  1.0367  0.3873
15443TIP3    H167744   1.282   1.484   1.142 -0.1533  2.2611  0.3628
15443TIP3    H267745   1.143   1.508   1.085 -1.3278 -2.1171  1.0132
15444TIP3   OH267746   5.146   2.195   2.441  0.0126  0.4131  0.0171
15444TIP3    H167747   5.098   2.243   2.509 -2.8410  1.4575 -2.5057
15444TIP3    H267748   5.087   2.125   2.415  0.5812  0.6603 -2.0536
15445TIP3   OH267749   0.978   4.711  16.773 -0.3235  0.1729  0.3759
15445TIP3    H167750   0.951   4.740  16.686  0.2739  0.6346  0.3385
15445TIP3    H267751   1.045   4.773  16.799 -1.0125  0.4663  1.4842
15446TIP3   OH267752   6.685   3.769   5.381  0.1875  0.2659  0.1313
15446TIP3    H167753   6.680   3.804   5.470  0.6144  0.4186  0.0977
15446TIP3    H267754   6.616   3.814   5.334 -0.4608 -0.2818  0.5424
15447TIP3   OH267755   0.900   2.044  10.918 -0.0999  0.4424 -0.0783
15447TIP3    H167756   0.878   1.975  10.980 -2.1486  1.2174  0.1374
15447TIP3    H267757   0.889   2.004  10.832  2.5714 -0.5804 -0.0322
15448TIP3   OH267758   5.959   4.692  12.654 -0.3721  0.3032 -0.1144
15448TIP3    H167759   6.025   4.677  12.722 -0.1522  0.8679 -0.1963
15448TIP3    H267760   5.959   4.786  12.641 -1.9417  0.4450  0.6266
15449TIP3   OH267761   3.213   0.897  12.644 -0.1386 -0.1075 -0.5352
15449TIP3    H167762   3.266   0.832  12.597  1.1263  1.1622 -0.9470
15449TIP3    H267763   3.227   0.978  12.595  1.7920  1.4634  2.3499
15450TIP3   OH267764   4.401   5.770   5.519  0.3532  0.1174 -0.1490
15450TIP3    H167765   4.438   5.693   5.562 -0.6480 -0.0096  0.5259
15450TIP3    H267766   4.307   5.759   5.528  0.1593  0.8224 -1.1318
15451TIP3   OH267767   2.279   0.260  13.593 -0.0297 -0.1412 -0.1629
15451TIP3    H167768   2.288   0.168  13.569  1.1846 -0.1739  0.3528
15451TIP3    H267769   2.203   0.262  13.651  1.0532 -1.1553  1.3754
15452TIP3   OH267770   6.755   4.495  12.039 -0.2797  0.1691  0.7836
15452TIP3    H167771   6.756   4.507  12.134  0.7717 -0.4832  0.8720
15452TIP3    H267772   6.767   4.583  12.004 -0.9659  0.4552  1.2374
15453TIP3   OH267773   2.672   2.736  10.339  0.4824  0.0772  0.6059
15453TIP3    H167774   2.602   2.683  10.377 -1.3958  2.7656  1.1922
15453TIP3    H267775   2.742   2.732  10.403  0.3306 -1.4294  0.7320
15454TIP3   OH267776   0.268   6.341  16.280 -0.0778 -0.6855 -0.1676
15454TIP3    H167777   0.257   6.322  16.187 -0.1696 -0.5263 -0.1905
15454TIP3    H267778   0.208   6.281  16.325  0.0591 -0.8480 -0.2053
15455TIP3   OH267779   4.776   5.325  15.230 -0.7214  0.2205  0.2980
15455TIP3    H167780   4.794   5.310  15.137  0.1084  0.2587  0.4416
15455TIP3    H267781   4.687   5.358  15.233 -0.0816  2.1253 -0.6675
15456TIP3   OH267782   1.725   6.367   2.054  0.1173  0.8010 -0.2583
15456TIP3    H167783   1.649   6.322   2.018 -0.2338  0.6753  0.6216
15456TIP3    H267784   1.697   6.458   2.064  0.9252  1.3212 -2.3282
15457TIP3   OH267785   1.531   1.284   4.379 -0.2800  0.0207  0.0158
15457TIP3    H167786   1.563   1.281   4.289  0.6655  0.4390  0.3309
15457TIP3    H267787   1.436   1.293   4.370 -0.2147 -0.1201 -0.9360
15458TIP3   OH267788   1.509   3.323  13.614 -0.7475 -0.5925  0.0016
15458TIP3    H167789   1.495   3.274  13.533 -0.0129  0.5548 -0.8473
15458TIP3    H267790   1.573   3.391  13.591 -0.4263 -0.3142  1.5725
15459TIP3   OH267791   2.601   1.055   0.194  0.2175 -0.3978 -0.4740
15459TIP3    H167792   2.582   0.982   0.253  0.7180 -0.1125  0.0416
15459TIP3    H267793   2.532   1.119   0.211  0.9693  0.1555  0.5965
15460TIP3   OH267794   1.458   6.306  14.035  0.4507  0.6748 -0.2104
15460TIP3    H167795   1.433   6.245  14.104 -1.8183 -0.0413 -1.5592
15460TIP3    H267796   1.421   6.390  14.061 -3.1213 -0.2173 -1.8265
15461TIP3   OH267797   1.530   1.258   6.223 -0.0574 -0.1109 -0.6132
15461TIP3    H167798   1.564   1.171   6.245  0.3981  0.5953  1.7032
15461TIP3    H267799   1.607   1.315   6.223 -0.7501  0.9557  1.7596
15462TIP3   OH267800   2.694   0.737   2.174  0.0610 -0.2036 -0.1036
15462TIP3    H167801   2.727   0.790   2.247 -0.0205 -0.9143  0.4556
15462TIP3    H267802   2.654   0.661   2.216 -1.2084  0.0364 -0.8273
15463TIP3   OH267803   1.862   3.647   0.665 -0.2008 -0.0774 -0.4608
15463TIP3    H167804   1.913   3.666   0.744  2.5486  1.9419 -2.5391
15463TIP3    H267805   1.776   3.685   0.683 -1.0821 -3.2026  2.9983
15464TIP3   OH267806   3.603   0.477   4.065 -0.0128  0.0940 -0.2410
15464TIP3    H167807   3.541   0.429   4.119  1.2526 -1.0994  0.2007
15464TIP3    H267808   3.590   0.569   4.090 -0.3317 -0.3103  1.1822
15465TIP3   OH267809   2.609   0.520  16.234  0.0012  0.4595 -0.6103
15465TIP3    H167810   2.554   0.598  16.223 -0.4649  0.0275 -1.5081
15465TIP3    H267811   2.555   0.449  16.200 -0.6034 -0.6937  2.4922
15466TIP3   OH267812   1.133   0.194  13.423 -0.3022  0.2148 -0.2260
15466TIP3    H167813   1.197   0.258  13.456 -1.8517  0.4986  2.5617
15466TIP3    H267814   1.174   0.109  13.440 -1.2448  0.2962  3.4824
15467TIP3   OH267815   5.609   6.305   2.821  0.1760  0.4871 -0.3550
15467TIP3    H167816   5.654   6.274   2.899 -0.9033  1.0574  0.5250
15467TIP3    H267817   5.570   6.389   2.847 -0.8456  0.3231 -1.2540
15468TIP3   OH267818   6.261   5.628  16.595 -0.0506  0.3729  0.4610
15468TIP3    H167819   6.223   5.562  16.537 -1.4459  1.4637  0.0614
15468TIP3    H267820   6.300   5.578  16.667 -0.3481 -0.9058 -0.2440
15469TIP3   OH267821   1.017   6.243  12.137  0.0389  0.3486 -0.4194
15469TIP3    H167822   1.086   6.270  12.076  0.8050 -1.2702 -0.3088
15469TIP3    H267823   0.949   6.205  12.080 -0.2843  0.9441 -0.4378
15470TIP3   OH267824   5.359   3.919  15.611 -0.2351  0.4811  0.4523
15470TIP3    H167825   5.356   3.843  15.669 -0.4517  1.1126  1.2824
15470TIP3    H267826   5.289   3.904  15.548 -0.1688 -0.0840  0.5107
15471TIP3   OH267827   6.022   6.033   3.367  0.0530  0.1165  0.7473
15471TIP3    H167828   5.984   6.078   3.442 -0.7859  0.6289  0.0413
15471TIP3    H267829   5.995   5.942   3.378  2.5371 -0.4707  2.6706
15472TIP3   OH267830   0.316   1.068   4.818  0.2798 -0.6672 -0.1429
15472TIP3    H167831   0.394   1.052   4.871  0.7463  1.2926 -0.1591
15472TIP3    H267832   0.244   1.031   4.869  0.8757  0.1073  1.3262
15473TIP3   OH267833   2.520   6.751   3.983  0.2308 -0.3070  0.3750
15473TIP3    H167834   2.453   6.684   3.975  0.9764 -0.9147 -1.2009
15473TIP3    H267835   2.545   6.771   3.893  0.1077  2.0444  0.8068
15474TIP3   OH267836   2.231   0.040  16.815 -0.8258 -0.4062 -0.5980
15474TIP3    H167837   2.217  -0.043  16.860  2.0416 -0.0559  1.1498
15474TIP3    H267838   2.262   0.015  16.728  0.2392 -1.2260 -0.0087
15475TIP3   OH267839   4.032   4.869   2.507 -0.6453 -0.4271  0.1120
15475TIP3    H167840   4.019   4.871   2.413  1.0217 -1.4489 -0.1815
15475TIP3    H267841   3.946   4.850   2.543 -1.7472  1.9015 -1.0296
15476TIP3   OH267842   1.018   2.064  13.416  0.1237 -0.6511 -0.7001
15476TIP3    H167843   1.005   2.112  13.334 -1.7126 -0.9491 -0.6420
15476TIP3    H267844   0.933   2.022  13.432  1.1208 -2.4810  0.1572
15477TIP3   OH267845   4.825   5.412   0.518  0.4730 -0.2361  0.1736
15477TIP3    H167846   4.794   5.502   0.531  0.5951 -0.1838  0.1095
15477TIP3    H267847   4.777   5.360   0.582  0.1127 -0.1884 -0.0527
15478TIP3   OH267848   3.968   2.335   2.557 -0.0379  0.5460 -0.0669
15478TIP3    H167849   3.980   2.388   2.479 -2.1538  0.1541 -0.7161
15478TIP3    H267850   3.985   2.245   2.528  2.8779  0.6634  0.8770
15479TIP3   OH267851   2.446   1.399  11.647  0.1182 -0.1646  0.3718
15479TIP3    H167852   2.471   1.466  11.711  0.1376 -0.3588  0.5712
15479TIP3    H267853   2.513   1.405  11.579 -0.9518  1.3484 -0.6205
15480TIP3   OH267854   1.490   5.976   3.375  0.3591  0.0051 -0.8535
15480TIP3    H167855   1.496   5.880   3.366  0.5364  0.0828 -1.6831
15480TIP3    H267856   1.399   5.996   3.353  0.2085 -0.0036 -0.2666
15481TIP3   OH267857   0.204   5.210  10.494 -0.2544  0.2613  0.2706
15481TIP3    H167858   0.231   5.255  10.414  0.3058  1.1391  0.9401
15481TIP3    H267859   0.149   5.138  10.463  1.7607 -0.8136 -1.0602
15482TIP3   OH267860   4.812   4.543  13.986 -0.1372 -0.0078 -0.1544
15482TIP3    H167861   4.806   4.574  13.896  0.6779 -2.0855 -1.0033
15482TIP3    H267862   4.822   4.448  13.978  1.0948 -0.1524  2.0758
15483TIP3   OH267863   1.776   5.235  14.602 -0.1119 -0.2967  0.1034
15483TIP3    H167864   1.777   5.330  14.619 -1.9056  0.1478 -1.8174
15483TIP3    H267865   1.722   5.199  14.671 -0.1313  0.2114  0.3620
15484TIP3   OH267866   0.881   2.274   3.809  0.5471  0.4035  0.3649
15484TIP3    H167867   0.894   2.343   3.745 -0.1921 -0.0968 -0.3411
15484TIP3    H267868   0.939   2.203   3.780  1.5127  0.8034  1.2413
15485TIP3   OH267869   3.763   0.610  13.848  0.4669 -0.2099 -0.2470
15485TIP3    H167870   3.847   0.567  13.830  1.1591  1.4749 -1.2906
15485TIP3    H267871   3.784   0.676  13.914 -0.3072 -0.6071  0.4063
15486TIP3   OH267872   0.199   5.423  15.408 -0.4999 -0.3408  0.3152
15486TIP3    H167873   0.183   5.486  15.479 -0.3315 -0.2593  0.2803
15486TIP3    H267874   0.156   5.461  15.332  1.3815  0.8055 -0.2498
15487TIP3   OH267875   5.332   0.466   4.682  0.1362  0.0376 -0.7589
15487TIP3    H167876   5.356   0.554   4.711 -2.7119  0.9790 -0.9389
15487TIP3    H267877   5.358   0.409   4.754  0.7173  1.2053 -0.0133
15488TIP3   OH267878   5.120   3.873  15.459 -0.0793  0.1254  0.1081
15488TIP3    H167879   5.037   3.888  15.504 -0.4782 -0.2428 -0.4853
15488TIP3    H267880   5.095   3.835  15.375  0.4035  3.8417 -1.9405
15489TIP3   OH267881   3.630   3.476   2.892 -0.1821 -0.4198  0.4193
15489TIP3    H167882   3.598   3.566   2.889  1.0449  0.0300  0.1952
15489TIP3    H267883   3.697   3.472   2.824 -0.6462 -1.6853  0.0116
15490TIP3   OH267884   5.232   0.978  15.061 -0.2150 -0.0400  0.2508
15490TIP3    H167885   5.211   1.062  15.102  0.9232  0.4649 -0.1769
15490TIP3    H267886   5.252   0.999  14.970 -0.1385 -0.8056  0.0800
15491TIP3   OH267887   1.538   1.623   0.991 -0.8169  0.5240 -0.1330
15491TIP3    H167888   1.509   1.543   1.035 -0.2981  0.4851  0.1499
15491TIP3    H267889   1.605   1.659   1.050  0.9952 -0.3193 -1.5945
15492TIP3   OH267890   3.409   0.387  16.138  0.6128  0.1805 -0.6011
15492TIP3    H167891   3.369   0.471  16.115  1.5484  0.5155 -1.0568
15492TIP3    H267892   3.392   0.377  16.232 -1.0274  0.0195 -0.8846
15493TIP3   OH267893   6.787   5.505  12.745 -0.1665 -0.1232  0.0012
15493TIP3    H167894   6.738   5.435  12.788 -1.0563  0.0913 -0.6161
15493TIP3    H267895   6.721   5.573  12.727  0.1539 -0.2178 -1.6862
15494TIP3   OH267896   2.561   2.129  13.698 -0.1458 -0.0086 -0.7118
15494TIP3    H167897   2.624   2.080  13.646 -0.2355 -0.7334 -0.1442
15494TIP3    H267898   2.476   2.091  13.674 -0.1657 -0.5267  0.1476
15495TIP3   OH267899   2.204   3.384   0.010  0.0722  0.2042 -0.0344
15495TIP3    H167900   2.277   3.395  -0.052  0.9941  1.8732  1.2592
15495TIP3    H267901   2.245   3.359   0.092 -0.6247  2.3030  1.0311
15496TIP3   OH267902   5.599   1.689   3.863 -0.0991 -0.4560  0.1450
15496TIP3    H167903   5.519   1.740   3.852 -0.2716 -0.1118  2.4316
15496TIP3    H267904   5.611   1.644   3.780 -3.2847 -1.3691  0.0711
15497TIP3   OH267905   5.646   4.560  15.536  0.2391  0.4277  0.2217
15497TIP3    H167906   5.732   4.585  15.500  1.0857 -2.3811  0.1098
15497TIP3    H267907   5.589   4.553  15.459  0.8967 -1.2253 -0.1564
15498TIP3   OH267908   4.758   0.748  12.008 -0.4102 -0.6940 -0.2275
15498TIP3    H167909   4.760   0.714  11.919  2.7866 -1.7748  0.1144
15498TIP3    H267910   4.727   0.838  11.999  1.8853 -0.0148 -2.7979
15499TIP3   OH267911   4.867   5.482  14.110 -0.2290 -0.6606  0.0024
15499TIP3    H167912   4.787   5.530  14.133  0.1555  0.7046 -1.3194
15499TIP3    H267913   4.927   5.500  14.182 -0.8120 -0.9520  0.5712
15500TIP3   OH267914   3.320   1.579  13.153 -0.4560  0.3865 -0.3887
15500TIP3    H167915   3.294   1.506  13.210  1.7103 -1.2329 -1.3598
15500TIP3    H267916   3.373   1.635  13.210  0.4717 -0.4552 -0.3970
15501TIP3   OH267917   2.444   5.224  11.164 -0.1355  0.3770  0.6233
15501TIP3    H167918   2.351   5.229  11.140 -0.0583  0.8732  0.4022
15501TIP3    H267919   2.486   5.289  11.107  0.2009  0.8742  1.4185
15502TIP3   OH267920   1.821   0.918  11.324 -0.3923  0.2092 -0.2997
15502TIP3    H167921   1.859   0.969  11.396  2.1390 -1.0116 -0.6723
15502TIP3    H267922   1.746   0.873  11.364 -0.6015  1.5349  0.8778
15503TIP3   OH267923   2.617   5.405   1.632 -0.2773  0.4517 -0.3050
15503TIP3    H167924   2.687   5.347   1.601  2.6180  3.3986  0.1126
15503TIP3    H267925   2.657   5.453   1.705 -3.1012  1.6708  0.5676
15504TIP3   OH267926   4.466   6.668  15.639  0.0738  0.0235 -0.3980
15504TIP3    H167927   4.446   6.690  15.730 -0.1926 -1.5626 -0.0555
15504TIP3    H267928   4.416   6.731  15.587 -2.9401 -1.4627  0.4944
15505TIP3   OH267929   3.702   6.445   3.233 -0.2367  0.6477  0.2965
15505TIP3    H167930   3.789   6.407   3.224  0.6714  2.6878 -0.2750
15505TIP3    H267931   3.684   6.484   3.147 -0.7858  2.0257  0.9982
15506TIP3   OH267932   0.897   5.353  13.980 -0.2516  0.1546  0.6323
15506TIP3    H167933   0.992   5.355  13.993  0.0959 -2.0329 -1.0392
15506TIP3    H267934   0.879   5.433  13.929  0.7123  0.5027  0.8023
15507TIP3   OH267935   3.007   1.460  16.593 -0.0461 -0.2989 -1.0342
15507TIP3    H167936   2.977   1.547  16.569 -0.1109 -0.2581 -0.8115
15507TIP3    H267937   3.011   1.461  16.689  0.6147 -0.3275 -1.0581
15508TIP3   OH267938   1.641   5.909   0.195  0.1554  0.2320  0.4717
15508TIP3    H167939   1.736   5.918   0.185 -0.0073 -0.7884 -3.7493
15508TIP3    H267940   1.628   5.816   0.214 -0.0284  0.5033  1.7694
15509TIP3   OH267941   4.286   6.688  14.875 -0.3223 -0.5554 -1.0000
15509TIP3    H167942   4.345   6.758  14.902 -0.2731 -0.2324 -1.9029
15509TIP3    H267943   4.340   6.629  14.823 -0.8738  0.0075 -2.2602
15510TIP3   OH267944   1.766   3.375   3.548 -1.1484 -0.2490 -0.0723
15510TIP3    H167945   1.766   3.283   3.522 -1.1499  0.0292 -1.0844
15510TIP3    H267946   1.687   3.385   3.601 -1.8702 -0.5373 -1.0580
15511TIP3   OH267947   4.202   2.041   4.525 -0.3152 -0.5235  0.3248
15511TIP3    H167948   4.247   2.124   4.541 -1.8557  0.1721  1.2612
15511TIP3    H267949   4.270   1.974   4.537  1.3114  0.5979 -1.8374
15512TIP3   OH267950   3.778   4.143  14.896 -0.5118  0.0733 -0.7924
15512TIP3    H167951   3.770   4.072  14.960  1.9201  0.3006 -0.1237
15512TIP3    H267952   3.688   4.169  14.877 -1.3705 -1.4325  0.9240
15513TIP3   OH267953   3.808   5.417   6.121 -0.0784  0.0422  0.7201
15513TIP3    H167954   3.873   5.483   6.145 -0.0028  0.3969 -0.4097
15513TIP3    H267955   3.725   5.464   6.123 -0.0242  0.1807 -0.0880
15514TIP3   OH267956   1.188   4.351   2.096 -0.1143  0.3427  0.4951
15514TIP3    H167957   1.130   4.358   2.172  0.5480 -2.3403  1.3689
15514TIP3    H267958   1.252   4.422   2.108 -1.2700  1.2906  1.2716
15515TIP3   OH267959   4.441   0.346  15.771 -0.3201 -0.4025  0.1876
15515TIP3    H167960   4.493   0.320  15.696 -0.9730 -0.8372 -0.1250
15515TIP3    H267961   4.367   0.285  15.772 -1.0114  0.4085  0.4126
15516TIP3   OH267962   6.570   4.752  16.206 -0.8788 -0.0413 -0.2753
15516TIP3    H167963   6.521   4.823  16.164 -0.0494  0.5685 -0.2238
15516TIP3    H267964   6.582   4.782  16.296  1.6615  0.9604 -0.8534
15517TIP3   OH267965   4.991   6.086   5.918  0.6050  0.5147 -0.8418
15517TIP3    H167966   4.942   6.168   5.915  0.8370  0.6848 -0.1729
15517TIP3    H267967   4.934   6.023   5.875 -1.5301  0.0250  2.3377
15518TIP3   OH267968   4.216   3.543   3.551 -0.5863 -0.8076  0.1515
15518TIP3    H167969   4.176   3.519   3.635 -1.0625  0.2351  0.2323
15518TIP3    H267970   4.166   3.619   3.522  1.0188  0.2065 -0.0106
15519TIP3   OH267971   0.160   5.319   3.187  0.3409  0.4395  0.8998
15519TIP3    H167972   0.188   5.303   3.097 -1.1151  1.7886  0.1462
15519TIP3    H267973   0.181   5.411   3.203 -1.2802  0.7956  1.1668
15520TIP3   OH267974   4.706   1.508  14.857  0.3291 -0.3097  0.7852
15520TIP3    H167975   4.618   1.478  14.837  0.9246 -1.0161 -0.9811
15520TIP3    H267976   4.729   1.567  14.784  1.9562 -1.5764  0.1976
15521TIP3   OH267977   6.217   6.509   3.088 -0.2127  0.2109  0.3250
15521TIP3    H167978   6.242   6.523   3.179 -1.0829  1.5952  0.3749
15521TIP3    H267979   6.297   6.528   3.038  0.1133 -0.0237  0.7522
15522TIP3   OH267980   2.465   6.525   6.222  0.4556 -0.2710  0.4507
15522TIP3    H167981   2.414   6.444   6.215  1.8654 -1.3163  1.6431
15522TIP3    H267982   2.472   6.541   6.316  2.3525 -0.2139  0.3453
15523TIP3   OH267983   4.599   4.903  14.348  0.2193 -0.0254  0.6334
15523TIP3    H167984   4.651   4.970  14.392  0.1394  0.0600  0.5986
15523TIP3    H267985   4.604   4.827  14.405  1.5082 -0.4669 -0.0398
15524TIP3   OH267986   2.416   4.888  10.576  0.5955  0.1539  0.2271
15524TIP3    H167987   2.415   4.797  10.606  2.7190 -0.1416 -0.4491
15524TIP3    H267988   2.501   4.923  10.604  0.5034  1.4173 -0.9178
15525TIP3   OH267989   3.110   6.530  14.643 -0.3281 -0.7204 -0.4266
15525TIP3    H167990   3.183   6.489  14.597  0.1370 -0.4515  0.0610
15525TIP3    H267991   3.151   6.581  14.713 -1.0048 -1.0039  0.1951
15526TIP3   OH267992   3.315   4.204   0.879 -0.2646 -0.8323 -0.2385
15526TIP3    H167993   3.370   4.137   0.919  0.3373  0.2494  0.8076
15526TIP3    H267994   3.235   4.204   0.931 -0.6094 -1.3020 -0.7606
15527TIP3   OH267995   3.884   1.570  12.793  0.2007 -0.2452  0.2776
15527TIP3    H167996   3.961   1.607  12.835  1.0308 -0.5499 -0.9339
15527TIP3    H267997   3.918   1.514  12.724 -1.0484  2.2067 -2.5609
15528TIP3   OH267998   2.095   2.891   4.386  0.2100 -0.3262 -0.0225
15528TIP3    H167999   2.178   2.937   4.371  1.0188 -2.0682 -1.2080
15528TIP3    H268000   2.029   2.951   4.351  1.1317  0.3129 -0.7401
15529TIP3   OH268001   2.477   2.973   1.200  1.2254 -0.3405 -0.4052
15529TIP3    H168002   2.434   2.955   1.285 -1.2088  0.2875 -1.4146
15529TIP3    H268003   2.503   3.064   1.206 -1.2633  0.4960 -1.1742
15530TIP3   OH268004   0.255   4.269  13.002 -0.5552  0.1788 -0.1998
15530TIP3    H168005   0.202   4.191  13.017  0.2782 -0.1514  1.2773
15530TIP3    H268006   0.197   4.342  13.023 -1.2049 -0.0412 -1.1607
15531TIP3   OH268007   3.696   6.428   2.685 -0.1130 -1.2858 -0.8089
15531TIP3    H168008   3.756   6.491   2.645  0.5215 -0.6437  1.0214
15531TIP3    H268009   3.719   6.344   2.646  0.0892 -0.6318 -2.1504
15532TIP3   OH268010   1.657   5.820  14.369 -0.3513  0.5997  0.7347
15532TIP3    H168011   1.672   5.824  14.275 -1.1748  0.9936  0.6099
15532TIP3    H268012   1.563   5.801  14.378 -0.2028  0.1541  1.4738
15533TIP3   OH268013   4.315   1.317   1.965  0.0942  0.2467 -0.1852
15533TIP3    H168014   4.307   1.226   1.995  0.0681  0.2772 -0.0994
15533TIP3    H268015   4.409   1.335   1.969 -0.0199  0.7102  1.2595
15534TIP3   OH268016   4.037   1.703  11.918 -0.1344 -0.0129  0.0484
15534TIP3    H168017   4.031   1.678  12.010 -0.0162  3.0052  1.0030
15534TIP3    H268018   3.953   1.745  11.899 -0.5389 -1.4873 -1.5620
15535TIP3   OH268019   1.583   3.415   1.701 -0.0890 -0.6807 -0.3351
15535TIP3    H168020   1.534   3.493   1.675 -0.4713 -1.0034 -0.5865
15535TIP3    H268021   1.671   3.448   1.722 -0.0845 -0.2618 -0.9873
15536TIP3   OH268022   4.434   3.571   5.806 -0.9889 -0.3961  0.4916
15536TIP3    H168023   4.391   3.651   5.775 -0.4664 -0.8350 -1.4816
15536TIP3    H268024   4.379   3.541   5.879 -1.6111  1.3442  0.7831
15537TIP3   OH268025   2.975   3.988   2.041 -1.1967  0.1178 -0.4234
15537TIP3    H168026   3.035   3.963   2.112  0.0445 -0.0230 -1.4795
15537TIP3    H268027   2.985   3.919   1.976 -3.4708 -0.5647 -0.1361
15538TIP3   OH268028   5.902   6.014   4.511 -0.5661  0.0556  0.2483
15538TIP3    H168029   5.824   5.964   4.488 -0.5642  0.5689 -0.9265
15538TIP3    H268030   5.950   5.956   4.570 -1.3279 -0.6830  0.1772
15539TIP3   OH268031   4.621   5.302  16.065  0.7206  0.0490 -0.3236
15539TIP3    H168032   4.646   5.228  16.122  1.8903  0.0288 -0.8290
15539TIP3    H268033   4.636   5.379  16.119 -3.7212 -0.0514  1.4626
15540TIP3   OH268034   6.665   1.434   3.801 -0.1080 -0.6764 -0.1953
15540TIP3    H168035   6.739   1.467   3.750 -0.5421  0.6953  0.0269
15540TIP3    H268036   6.665   1.488   3.880 -1.8413 -0.0546 -0.5695
15541TIP3   OH268037   3.433   3.066   0.337  0.3155 -0.6333  0.1853
15541TIP3    H168038   3.355   3.011   0.346  1.1316 -1.7803  0.5189
15541TIP3    H268039   3.399   3.155   0.324 -1.0326 -1.0791  0.5246
15542TIP3   OH268040   2.347   0.002  12.624 -0.3775 -0.5051  0.5732
15542TIP3    H168041   2.275  -0.002  12.561  0.0229  0.1059  0.0652
15542TIP3    H268042   2.415   0.051  12.579 -0.8022  1.7388  2.2016
15543TIP3   OH268043   5.599   1.517   1.016  0.0853 -0.2108 -0.0198
15543TIP3    H168044   5.585   1.533   1.109  1.9864  1.2301  0.0717
15543TIP3    H268045   5.639   1.598   0.983 -1.2945 -0.3693 -2.2864
15544TIP3   OH268046   0.399   3.396  12.788 -0.1611  0.6079  0.2160
15544TIP3    H168047   0.409   3.491  12.793  0.9364  0.4727  0.7207
15544TIP3    H268048   0.306   3.381  12.809 -0.3301  1.5513  0.2109
15545TIP3   OH268049   3.458   2.880  15.071  0.1455  0.0579 -0.3185
15545TIP3    H168050   3.377   2.859  15.118  1.4766 -1.3281  1.4765
15545TIP3    H268051   3.506   2.937  15.130  1.4608 -0.9939 -0.3254
15546TIP3   OH268052   2.281   5.576  11.595 -0.2117  0.2051  0.2489
15546TIP3    H168053   2.240   5.538  11.517  1.0178  0.9419 -0.7881
15546TIP3    H268054   2.219   5.643  11.624 -0.1574  0.7594 -0.8349
15547TIP3   OH268055   3.228   4.970   2.650 -0.0209 -0.1486 -0.0365
15547TIP3    H168056   3.161   5.036   2.665  0.4895  0.0450  1.5630
15547TIP3    H268057   3.183   4.900   2.603 -1.4916 -0.2612  1.4752
15548TIP3   OH268058   0.849   5.414  11.453  0.4902 -0.1894  0.7574
15548TIP3    H168059   0.840   5.341  11.516 -1.9515 -2.0950 -1.5544
15548TIP3    H268060   0.883   5.373  11.374  2.3906  1.9408  0.3657
15549TIP3   OH268061   2.767   6.326   3.564  0.0967 -0.1442  0.4381
15549TIP3    H168062   2.775   6.245   3.615 -0.8585 -0.1154  0.6373
15549TIP3    H268063   2.858   6.349   3.543  0.6326  0.3159  2.8881
15550TIP3   OH268064   3.933   3.480  13.463  0.4058  0.5639 -0.1950
15550TIP3    H168065   3.919   3.386  13.463  0.4893  0.5351 -1.5853
15550TIP3    H268066   3.942   3.503  13.556 -0.9463 -0.5754  0.2472
15551TIP3   OH268067   5.482   2.191   0.504 -0.3793 -0.1670  0.5651
15551TIP3    H168068   5.431   2.144   0.438 -0.6167 -2.7158  2.3815
15551TIP3    H268069   5.431   2.270   0.523 -0.8173  0.0846 -1.5047
15552TIP3   OH268070   4.256   2.774  16.410 -0.2312  0.5518 -0.0405
15552TIP3    H168071   4.299   2.850  16.449 -2.8470  1.1650  1.9622
15552TIP3    H268072   4.195   2.812  16.346 -0.9924  0.1075  0.4050
15553TIP3   OH268073   0.885   2.182  13.180 -0.0748  0.2105 -0.1858
15553TIP3    H168074   0.928   2.216  13.102  0.4740 -0.1728 -0.0618
15553TIP3    H268075   0.835   2.106  13.150  0.4233 -0.1518 -0.1099
15554TIP3   OH268076   3.311   4.847   2.260 -0.5506  0.3420 -0.3211
15554TIP3    H168077   3.334   4.830   2.351  0.2806  0.7415 -0.4524
15554TIP3    H268078   3.376   4.799   2.209 -0.7242  0.5063 -0.7001
15555TIP3   OH268079   2.508   5.634  15.735  0.3512 -0.2815  0.0921
15555TIP3    H168080   2.587   5.685  15.716  2.2954 -3.2778 -0.6128
15555TIP3    H268081   2.531   5.545  15.709 -2.6207 -1.6586  1.7292
15556TIP3   OH268082   6.480   5.012  15.224  0.1937 -0.5338  0.2428
15556TIP3    H168083   6.558   4.958  15.212  0.8662  0.5867 -0.7680
15556TIP3    H268084   6.515   5.095  15.258 -0.6935 -0.3851  0.8104
15557TIP3   OH268085   3.091   2.331   3.670 -0.3724 -0.4102  0.0988
15557TIP3    H168086   3.068   2.422   3.654 -1.4614 -0.4658  1.1708
15557TIP3    H268087   3.126   2.331   3.759 -0.8944 -1.1105  0.3142
15558TIP3   OH268088   0.020   2.945   1.804  0.6773  0.4148  0.1469
15558TIP3    H168089   0.026   2.892   1.724 -0.2243  0.1086  0.2643
15558TIP3    H268090  -0.021   3.026   1.776 -3.1104 -1.0616  0.8264
15559TIP3   OH268091   5.974   0.624  13.614 -0.3935 -0.8713  0.0068
15559TIP3    H168092   5.952   0.596  13.525  0.4050  0.2929 -0.5805
15559TIP3    H268093   5.907   0.689  13.636  0.5184  0.2630 -0.5081
15560TIP3   OH268094   6.356   4.824  14.417  0.2667 -0.1880  0.1850
15560TIP3    H168095   6.374   4.746  14.364  2.7829  0.6558 -0.3251
15560TIP3    H268096   6.345   4.790  14.506  0.9632 -1.1795 -0.0907
15561TIP3   OH268097   5.980   5.839  14.969  0.0439  0.8408 -0.0379
15561TIP3    H168098   6.003   5.896  15.043 -0.2369  0.4151  0.3832
15561TIP3    H268099   5.908   5.885  14.925  1.9106  2.4048 -1.6322
15562TIP3   OH268100   4.576   1.076   3.585  0.4163 -0.1389  0.6548
15562TIP3    H168101   4.535   1.127   3.516 -0.2460 -1.3373  0.1261
15562TIP3    H268102   4.527   0.994   3.587  3.2776 -2.0591 -0.6226
15563TIP3   OH268103   2.485   2.872   5.276 -0.4565 -0.7435 -0.1006
15563TIP3    H168104   2.393   2.850   5.265 -0.2775 -2.3116  1.1748
15563TIP3    H268105   2.498   2.875   5.371  0.2786  1.9491 -0.1992
15564TIP3   OH268106   0.093   5.147  13.879  0.4314 -0.2357  0.3981
15564TIP3    H168107   0.180   5.111  13.899 -0.4023 -2.4486  0.1966
15564TIP3    H268108   0.090   5.150  13.783  0.3059 -0.0421  0.4061
15565TIP3   OH268109   4.008   0.723  11.520  0.6253 -0.4304 -0.6016
15565TIP3    H168110   4.035   0.801  11.473  1.6893 -1.2542 -1.4193
15565TIP3    H268111   4.014   0.653  11.454  0.5044 -1.3340  0.3275
15566TIP3   OH268112   5.312   3.342  15.949  0.6557  0.2962  0.5300
15566TIP3    H168113   5.304   3.437  15.943 -0.7290  0.1694  0.0032
15566TIP3    H268114   5.274   3.309  15.868 -0.4127 -0.7629  1.4165
15567TIP3   OH268115   0.488   3.483  11.173 -0.5718 -0.0731 -0.2002
15567TIP3    H168116   0.499   3.388  11.163  2.5807  0.1425  0.2024
15567TIP3    H268117   0.408   3.503  11.123 -0.8433 -2.7883 -1.0341
15568TIP3   OH268118   5.801   4.685  16.391 -0.0158 -0.4885 -0.4786
15568TIP3    H168119   5.709   4.704  16.409  0.3260  0.2775  0.5631
15568TIP3    H268120   5.804   4.590  16.378 -0.9215 -0.5439 -0.3177
15569TIP3   OH268121   0.932   2.282   1.446 -0.3504  0.5625 -0.3273
15569TIP3    H168122   0.974   2.338   1.380 -0.8969  0.7054 -0.5615
15569TIP3    H268123   0.867   2.339   1.488 -0.9470  0.1019 -0.6056
15570TIP3   OH268124   3.347   1.830   0.999  0.1488  0.0386 -0.3682
15570TIP3    H168125   3.397   1.889   0.943  0.3306 -0.0770 -0.3287
15570TIP3    H268126   3.286   1.887   1.045  1.0457  0.3487  0.4689
15571TIP3   OH268127   2.580   0.276   2.684  0.0326 -0.2755  0.9430
15571TIP3    H168128   2.521   0.337   2.640  0.2498  0.3607  1.5223
15571TIP3    H268129   2.582   0.200   2.626 -1.7068 -0.5109  1.1369
15572TIP3   OH268130   4.317   2.507   5.037 -0.0658 -0.1249 -0.6040
15572TIP3    H168131   4.329   2.421   4.996  0.5367 -0.8297  0.9539
15572TIP3    H268132   4.286   2.486   5.125 -2.2156  1.3458 -0.9224
15573TIP3   OH268133   6.727   3.743  16.764 -0.5122 -0.4367  0.0903
15573TIP3    H168134   6.670   3.755  16.840 -2.0776  0.6283 -1.1929
15573TIP3    H268135   6.769   3.828  16.751  2.8672 -1.6131  2.0400
15574TIP3   OH268136   5.755   3.439   1.958  0.6129  0.4542  0.2065
15574TIP3    H168137   5.788   3.527   1.973  1.6920 -0.0361  0.8451
15574TIP3    H268138   5.702   3.419   2.036 -0.3186  0.8339 -0.3175
15575TIP3   OH268139   0.961   0.052  15.052  0.3684 -0.8719 -0.5315
15575TIP3    H168140   1.028   0.095  15.000 -0.4719  3.1089  1.2885
15575TIP3    H268141   0.881   0.101  15.034 -1.0163 -2.4871  0.8545
15576TIP3   OH268142   1.866   2.679   2.204  0.4118 -0.3277  0.2554
15576TIP3    H168143   1.922   2.602   2.197  1.3143  0.0375  2.5524
15576TIP3    H268144   1.874   2.706   2.295 -3.1889  0.0021  0.6144
15577TIP3   OH268145   5.500   6.152  11.015  0.1240  0.1566 -0.3512
15577TIP3    H168146   5.588   6.148  11.051  0.6821 -1.6322 -1.7465
15577TIP3    H268147   5.489   6.069  10.968 -3.0721 -0.6397  1.4666
15578TIP3   OH268148   5.944   1.323   0.917  0.1626  0.6175 -0.1482
15578TIP3    H168149   5.962   1.266   0.992 -0.6320  0.2943 -0.1902
15578TIP3    H268150   5.941   1.411   0.955 -2.8412  0.2557  0.7514
15579TIP3   OH268151   6.521   5.962   4.533 -0.0407  0.2005 -0.3863
15579TIP3    H168152   6.545   5.933   4.446 -0.9281 -0.3213 -0.4677
15579TIP3    H268153   6.516   6.058   4.526  0.0676  0.1716 -0.8534
15580TIP3   OH268154   3.009   4.920  11.975  0.5824 -0.1135 -0.2439
15580TIP3    H168155   3.001   4.826  11.994 -0.2771  0.0325  0.1795
15580TIP3    H268156   2.962   4.932  11.892  2.3884 -0.3682 -1.3586
15581TIP3   OH268157   1.086   6.608  15.847  0.2233  0.0946  0.1911
15581TIP3    H168158   1.175   6.574  15.854  0.5060  0.8041  0.0255
15581TIP3    H268159   1.059   6.624  15.938 -0.1373 -1.1310  0.3195
15582TIP3   OH268160   6.666   2.856  15.066 -0.1173 -0.2129 -0.2961
15582TIP3    H168161   6.611   2.845  14.988 -0.3850 -1.4857  0.0515
15582TIP3    H268162   6.645   2.780  15.121  2.3496 -1.0415 -0.3831
15583TIP3   OH268163   4.344   5.223   0.573  0.1103 -0.3557 -0.4336
15583TIP3    H168164   4.380   5.261   0.653  1.7641  1.5481 -1.9760
15583TIP3    H268165   4.300   5.295   0.530 -1.4649 -1.5505 -0.9090
15584TIP3   OH268166   4.778   4.776   4.203 -0.3112 -0.5451 -0.2170
15584TIP3    H168167   4.805   4.698   4.251  2.5900  1.0159  0.9475
15584TIP3    H268168   4.807   4.760   4.113  2.9034  0.1711  0.5609
15585TIP3   OH268169   0.301   2.375  14.275  0.3263 -0.1096 -0.6031
15585TIP3    H168170   0.287   2.457  14.323  0.3910  0.3343 -1.3267
15585TIP3    H268171   0.230   2.318  14.304 -0.6947  0.7760 -1.3198
15586TIP3   OH268172   5.358   5.896  12.931  0.3501 -0.1729 -0.5921
15586TIP3    H168173   5.317   5.838  12.866  2.3906 -2.0179 -0.3267
15586TIP3    H268174   5.435   5.931  12.886  0.3880  0.5734  0.0325
15587TIP3   OH268175   2.790   1.761   2.069  0.0797 -0.0292 -0.3152
15587TIP3    H168176   2.754   1.839   2.111  0.4124 -0.0416 -0.0044
15587TIP3    H268177   2.714   1.719   2.028 -0.0826  0.5213 -0.5893
15588TIP3   OH268178   3.063   3.736   4.785  0.5710  0.1131  0.6262
15588TIP3    H168179   2.970   3.739   4.765  0.8525  1.9467 -0.6494
15588TIP3    H268180   3.104   3.707   4.703  1.1001 -1.4623  1.4075
15589TIP3   OH268181   4.280   3.808  13.205  0.0913 -0.2870  0.1046
15589TIP3    H168182   4.204   3.751  13.192 -0.7320  0.9189 -0.4702
15589TIP3    H268183   4.287   3.818  13.300 -1.1683  0.5028  0.1285
15590TIP3   OH268184   6.322   0.158  10.309 -0.4541  0.0884 -0.2179
15590TIP3    H168185   6.369   0.241  10.297  1.9966 -1.2442 -0.4530
15590TIP3    H268186   6.249   0.180  10.367 -1.4355  2.9051 -2.2716
15591TIP3   OH268187   1.985   5.183   5.220 -0.1390  0.2771 -0.3747
15591TIP3    H168188   2.072   5.209   5.188 -0.9346  1.9720 -1.3004
15591TIP3    H268189   1.994   5.184   5.315  0.8188  0.6327 -0.4523
15592TIP3   OH268190   4.031   5.912   5.534 -0.8675  0.2471 -0.0803
15592TIP3    H168191   4.061   6.002   5.523 -0.1633 -0.0804 -0.9499
15592TIP3    H268192   4.036   5.897   5.629  0.6049  0.6015 -0.0758
15593TIP3   OH268193   6.426   5.105  12.879 -0.1528  0.4509  0.9181
15593TIP3    H168194   6.452   5.051  12.804 -0.2655 -0.5862  1.6143
15593TIP3    H268195   6.360   5.165  12.843 -0.9369 -0.6965  0.3916
15594TIP3   OH268196   6.699   2.793   0.575 -0.2773  0.0245 -0.5986
15594TIP3    H168197   6.649   2.744   0.509 -1.2015  0.9356 -0.6113
15594TIP3    H268198   6.782   2.747   0.581 -0.6203 -0.7709 -1.5511
15595TIP3   OH268199   5.723   0.087  10.852 -0.2140 -0.4005  0.3752
15595TIP3    H168200   5.677   0.011  10.817  1.4313 -3.2190  3.6466
15595TIP3    H268201   5.661   0.127  10.912 -0.3480 -0.6014  0.3726
15596TIP3   OH268202   6.536   1.031   6.747  0.1304 -0.0192 -0.2045
15596TIP3    H168203   6.443   1.015   6.762 -0.0114  2.0560  1.6831
15596TIP3    H268204   6.558   0.975   6.673 -2.4733 -0.9863 -0.3687
15597TIP3   OH268205   6.301   4.289   5.688  0.0131  0.1227 -0.0112
15597TIP3    H168206   6.361   4.361   5.707  0.0785 -0.1600  0.8775
15597TIP3    H268207   6.354   4.210   5.697 -0.7513 -0.2044  1.9812
15598TIP3   OH268208   1.909   0.682   5.517 -0.5119 -0.3779  0.6187
15598TIP3    H168209   1.874   0.727   5.593 -2.9203 -0.0428 -0.6054
15598TIP3    H268210   1.954   0.750   5.467 -1.5234  0.0542  0.2779
15599TIP3   OH268211   4.725   6.102  13.776 -0.0568 -0.2913  0.2631
15599TIP3    H168212   4.786   6.037  13.743 -1.0197 -0.8323 -0.4971
15599TIP3    H268213   4.735   6.177  13.718  0.8479  0.1656  0.9697
15600TIP3   OH268214   5.040   4.012   4.026 -0.1320 -0.3702  0.2280
15600TIP3    H168215   4.961   4.007   4.079 -0.7827 -0.6705 -0.7365
15600TIP3    H268216   5.070   3.922   4.018  0.7922 -0.1698  1.2762
15601TIP3   OH268217   6.229   2.230   3.538  0.0132  0.5291  0.1422
15601TIP3    H168218   6.252   2.234   3.446 -1.1548 -0.5070 -0.2271
15601TIP3    H268219   6.140   2.195   3.539  0.7592 -1.5784  1.7127
15602TIP3   OH268220   1.263   6.243  17.074  0.1961  0.1758  0.1396
15602TIP3    H168221   1.261   6.332  17.107  1.3814 -0.0671  0.9451
15602TIP3    H268222   1.225   6.190  17.144 -1.0759  0.0980 -0.5797
15603TIP3   OH268223   1.161   3.063   1.781  0.1196 -0.1783  0.2311
15603TIP3    H168224   1.124   3.013   1.709 -2.8159  1.0756  0.7094
15603TIP3    H268225   1.174   2.999   1.851 -2.4777 -0.6009  0.4447
15604TIP3   OH268226   6.562   6.783   1.725  0.2420 -0.4020 -0.0852
15604TIP3    H168227   6.486   6.838   1.745  0.0070 -0.3891 -0.9675
15604TIP3    H268228   6.525   6.698   1.700  0.6095 -1.0144  1.3659
15605TIP3   OH268229   4.412   6.590   2.543 -0.3321 -0.1016  0.2699
15605TIP3    H168230   4.406   6.613   2.635 -0.7080  1.3189 -0.0867
15605TIP3    H268231   4.329   6.618   2.505  0.1886  0.2154 -0.6748
15606TIP3   OH268232   0.125   2.738   3.690  0.4728  0.0048  0.1527
15606TIP3    H168233   0.048   2.743   3.633  0.5270  0.0455  0.0823
15606TIP3    H268234   0.092   2.705   3.773  0.2619  0.6338  0.3270
15607TIP3   OH268235   5.840   1.177   2.591 -0.5168 -0.3097 -0.5187
15607TIP3    H168236   5.848   1.093   2.546  0.7645  0.4570 -1.7915
15607TIP3    H268237   5.927   1.194   2.626 -1.0255  0.0295  0.6206
15608TIP3   OH268238   1.785   5.424  13.664  0.3286  0.2240 -0.1689
15608TIP3    H168239   1.821   5.492  13.721 -2.4013  1.8915 -0.2729
15608TIP3    H268240   1.733   5.369  13.722  0.1178  0.0274 -0.5365
15609TIP3   OH268241   5.045   0.694  13.505 -0.2696  0.8465  0.0161
15609TIP3    H168242   4.960   0.657  13.483  0.4626 -0.8419 -0.1461
15609TIP3    H268243   5.104   0.659  13.439  0.4280  2.7355 -0.4440
15610TIP3   OH268244   5.393   3.754  15.103  0.4894 -0.2239  0.1944
15610TIP3    H168245   5.458   3.805  15.151  1.3482 -0.5993 -0.5543
15610TIP3    H268246   5.443   3.687  15.058 -0.3169 -0.0580 -0.9928
15611TIP3   OH268247   2.055   3.225   3.921  0.2843 -0.6686 -0.0795
15611TIP3    H168248   2.100   3.271   3.850  0.9131 -0.6916  0.3007
15611TIP3    H268249   1.991   3.169   3.876  0.4584 -0.4483 -0.6106
15612TIP3   OH268250   0.877   1.726   2.001  0.0601 -0.0118 -0.0831
15612TIP3    H168251   0.954   1.757   1.954 -0.3425  0.6439 -0.3158
15612TIP3    H268252   0.846   1.651   1.951 -0.3196  0.6320 -0.8174
15613TIP3   OH268253   0.774   0.297  10.597 -0.2116 -0.3237  0.4556
15613TIP3    H168254   0.776   0.324  10.689 -1.3560 -1.9367  1.0020
15613TIP3    H268255   0.699   0.344  10.560 -0.2439 -0.2894  0.5629
15614TIP3   OH268256   3.630   2.817   0.549 -0.1836 -0.1079  0.4961
15614TIP3    H168257   3.693   2.762   0.595  0.6469 -0.6761 -1.2314
15614TIP3    H268258   3.566   2.756   0.514 -0.8976  0.3348  0.9890
15615TIP3   OH268259   0.245   0.585  15.552  0.4641 -0.1353 -0.4390
15615TIP3    H168260   0.230   0.495  15.582  1.9627 -0.3688 -0.3333
15615TIP3    H268261   0.246   0.637  15.633 -0.0417 -0.0630 -0.4730
15616TIP3   OH268262   3.934   5.394   4.841 -0.7040  0.0284 -0.2646
15616TIP3    H168263   3.911   5.304   4.866  0.4104 -0.0222  0.6029
15616TIP3    H268264   3.938   5.391   4.745 -2.6359 -0.3476 -0.3778
15617TIP3   OH268265   0.033   0.631  11.351  0.0587  0.7133  0.2143
15617TIP3    H168266  -0.056   0.604  11.329 -0.0589  1.9520 -0.9429
15617TIP3    H268267   0.034   0.632  11.447 -1.2795  0.9622  0.2564
15618TIP3   OH268268   5.839   5.880   2.225  0.8386  0.2020  0.5565
15618TIP3    H168269   5.791   5.800   2.248  2.9008 -1.0231  0.8311
15618TIP3    H268270   5.901   5.891   2.296  1.0679  1.6608  0.1470
15619TIP3   OH268271   5.495   5.109   0.107  0.2059  0.2080  0.2353
15619TIP3    H168272   5.544   5.079   0.183  0.9002 -0.0753 -0.3117
15619TIP3    H268273   5.542   5.187   0.078 -1.5826  1.9066  1.6524
15620TIP3   OH268274   3.782   2.257  12.883 -0.1985 -0.1198 -0.1844
15620TIP3    H168275   3.754   2.322  12.818 -0.6104 -0.7841 -0.6804
15620TIP3    H268276   3.769   2.173  12.840  1.6105 -0.4990 -0.0507
15621TIP3   OH268277   2.546   5.306   4.536 -0.0691 -0.3756  0.1958
15621TIP3    H168278   2.467   5.274   4.493 -0.4999  0.9388 -0.0405
15621TIP3    H268279   2.524   5.308   4.630  0.0188 -0.8914  0.2315
15622TIP3   OH268280   6.278   4.958   3.540  0.2694 -0.0899  0.6370
15622TIP3    H168281   6.297   4.881   3.593 -0.4574  0.3344  1.5423
15622TIP3    H268282   6.229   5.015   3.598  1.4552  1.4056  0.2260
15623TIP3   OH268283   1.113   3.628  11.948 -0.6031  0.5888  0.4744
15623TIP3    H168284   1.044   3.566  11.973 -0.6498  0.5296  0.2038
15623TIP3    H268285   1.083   3.664  11.864  1.3224 -2.0333 -1.5163
15624TIP3   OH268286   2.337   5.401   6.445  0.7311 -0.4225  0.8013
15624TIP3    H168287   2.339   5.365   6.534 -0.1392  0.3861  1.1607
15624TIP3    H268288   2.331   5.324   6.388  1.1613 -0.9387  1.4451
15625TIP3   OH268289   4.811   4.154  13.175 -0.0050  0.0606  0.3772
15625TIP3    H168290   4.751   4.168  13.102 -0.6558 -1.0036  0.6852
15625TIP3    H268291   4.811   4.059  13.188  2.0348 -0.0096  0.1465
15626TIP3   OH268292   0.071   4.468  14.532  0.2676  0.0051 -0.0507
15626TIP3    H168293   0.043   4.557  14.553  0.7193  0.1649 -0.1338
15626TIP3    H268294   0.109   4.474  14.445  3.2959  0.3870  1.1875
15627TIP3   OH268295   0.302   1.900  13.155  0.7240  0.3911  0.8143
15627TIP3    H168296   0.346   1.828  13.201  0.8939 -0.6741 -0.9404
15627TIP3    H268297   0.273   1.862  13.072  0.1633  2.1658  0.1442
15628TIP3   OH268298   6.040   2.076   5.037 -0.5867  0.5341  0.4334
15628TIP3    H168299   6.134   2.067   5.055 -0.7634  3.6289  4.2387
15628TIP3    H268300   6.036   2.101   4.945  2.3764  0.5992  0.2123
15629TIP3   OH268301   2.869   5.148  12.318  0.3978  0.5483 -0.2833
15629TIP3    H168302   2.788   5.190  12.346 -0.6434 -0.4802 -1.6326
15629TIP3    H268303   2.869   5.157  12.223  1.8761  0.5154 -0.3100
15630TIP3   OH268304   0.824   2.466   6.773  0.3844 -0.6086  0.7091
15630TIP3    H168305   0.736   2.428   6.764 -0.2140  0.6220  1.1322
15630TIP3    H268306   0.882   2.390   6.778 -0.6818 -1.4560  0.6965
15631TIP3   OH268307   2.938   5.623   0.921  0.4870 -0.3121  0.0561
15631TIP3    H168308   2.994   5.673   0.862  2.0781 -0.9840  0.9508
15631TIP3    H268309   2.927   5.679   0.998  0.8013 -0.6074  0.3191
15632TIP3   OH268310   0.506   5.381   3.165  0.0508 -0.0240 -0.2811
15632TIP3    H168311   0.500   5.286   3.151  0.1858 -0.3563  1.6983
15632TIP3    H268312   0.575   5.392   3.230 -0.2461  1.4167 -0.1732
15633TIP3   OH268313   2.912   0.368   5.505 -0.2240 -0.1433 -0.4564
15633TIP3    H168314   2.978   0.305   5.536 -0.2381 -0.5794 -1.2730
15633TIP3    H268315   2.941   0.452   5.539 -0.2647 -0.5982  0.7585
15634TIP3   OH268316   6.435   1.505   3.382 -0.2951 -0.1079  0.0814
15634TIP3    H168317   6.427   1.482   3.290 -0.8424 -0.2647  0.1651
15634TIP3    H268318   6.352   1.548   3.404 -1.0035 -1.8734  1.0110
15635TIP3   OH268319   2.937   0.082   6.060 -0.0411  0.2183  0.3263
15635TIP3    H168320   2.979   0.072   6.145 -1.3864 -1.6668  0.8177
15635TIP3    H268321   2.901   0.171   6.062 -1.8015 -0.4590  2.5987
15636TIP3   OH268322   1.626   1.818   3.059 -0.8652 -0.1199  0.1409
15636TIP3    H168323   1.559   1.886   3.064 -2.4765 -1.3976 -2.1001
15636TIP3    H268324   1.577   1.737   3.051  0.9852 -1.3107  0.2879
15637TIP3   OH268325   5.119   3.426  13.151 -0.2178 -0.3723  0.2014
15637TIP3    H168326   5.213   3.441  13.161 -0.0441 -2.7130  3.1414
15637TIP3    H268327   5.108   3.332  13.158 -2.7807 -0.2488 -0.8875
15638TIP3   OH268328   3.017   6.055  13.579  0.5567 -0.3443  0.5719
15638TIP3    H168329   2.975   6.126  13.628 -1.8659 -0.8006 -0.6830
15638TIP3    H268330   3.111   6.074  13.584 -0.0007  3.1751 -0.0353
15639TIP3   OH268331   5.120   0.794  16.932  0.1543 -0.1888 -0.4978
15639TIP3    H168332   5.058   0.735  16.888  0.4312  0.5834 -2.0097
15639TIP3    H268333   5.104   0.781  17.025 -1.5807 -0.7475 -0.8346
15640TIP3   OH268334   3.861   3.186  12.935  0.0617  0.0553  0.5178
15640TIP3    H168335   3.794   3.213  12.998 -1.3253 -0.4359 -0.6813
15640TIP3    H268336   3.815   3.184  12.851  2.1488  2.0460 -0.7975
15641TIP3   OH268337   1.526   0.135   4.654  0.3680 -0.0169 -0.0998
15641TIP3    H168338   1.512   0.057   4.707 -2.2214  0.7617  0.5186
15641TIP3    H268339   1.551   0.203   4.717 -0.9813  0.4880 -0.0751
15642TIP3   OH268340   4.344   0.818   2.324 -0.3405  0.1114 -0.3063
15642TIP3    H168341   4.252   0.808   2.299 -0.5107  0.6404  0.0961
15642TIP3    H268342   4.359   0.912   2.327 -0.2288  0.0744  1.1857
15643TIP3   OH268343   6.093   3.089   0.901  0.5417  0.0899  0.4761
15643TIP3    H168344   6.030   3.149   0.863  0.4345  0.6223  1.4450
15643TIP3    H268345   6.117   3.030   0.830 -1.0477 -0.1262  0.0959
15644TIP3   OH268346   4.996   4.858  17.086  0.0493 -0.1106 -0.1885
15644TIP3    H168347   5.026   4.799  17.017  0.7658 -1.2129  1.0126
15644TIP3    H268348   4.902   4.865  17.073  0.3279  0.7109 -2.0111
15645TIP3   OH268349   2.346   4.182  14.945  0.2370 -0.0801 -0.2280
15645TIP3    H168350   2.331   4.131  14.865  1.0236 -0.4044 -0.1854
15645TIP3    H268351   2.305   4.267  14.928 -0.0446 -0.3225 -0.7759
15646TIP3   OH268352   2.934   4.605   3.523  0.0212  0.1372  0.2932
15646TIP3    H168353   2.874   4.664   3.476  0.1466  0.7229  0.8547
15646TIP3    H268354   2.970   4.550   3.454 -2.7501 -1.7227  0.1594
15647TIP3   OH268355   2.658   2.425  15.864  0.2750  0.0569  0.1406
15647TIP3    H168356   2.707   2.507  15.861  0.4339  0.0683  1.9455
15647TIP3    H268357   2.568   2.449  15.841  0.2976  0.7688  0.7696
15648TIP3   OH268358   3.795   3.933   4.449 -0.3503 -0.1705 -0.2472
15648TIP3    H168359   3.855   3.864   4.420 -0.6345 -0.9140  0.8577
15648TIP3    H268360   3.784   3.917   4.543 -0.0050  1.7251  0.1536
15649TIP3   OH268361   4.194   2.759  14.532  0.4023  0.2427  0.2769
15649TIP3    H168362   4.212   2.762  14.626 -0.3349 -1.4563  0.5104
15649TIP3    H268363   4.242   2.683  14.500 -0.4609 -0.0216 -0.4536
15650TIP3   OH268364   5.494   3.505  14.939 -0.7853 -0.1980  0.3679
15650TIP3    H168365   5.492   3.415  14.908 -2.5128 -0.0842  0.0749
15650TIP3    H268366   5.575   3.510  14.990  0.7130 -1.1459 -1.7698
15651TIP3   OH268367   5.261   6.775  15.170  0.3056  0.4125  0.9559
15651TIP3    H168368   5.244   6.727  15.251 -0.7875  0.4988  0.7868
15651TIP3    H268369   5.191   6.839  15.164 -0.3905 -0.4283 -0.6897
15652TIP3   OH268370   4.128   5.761  14.303  0.6236  0.0661 -0.0501
15652TIP3    H168371   4.105   5.844  14.345  3.9727  0.6972  0.9059
15652TIP3    H268372   4.135   5.782  14.210  1.9239  1.0613  0.2421
15653TIP3   OH268373   5.229   2.001  12.670  0.3178 -0.3134  0.2662
15653TIP3    H168374   5.296   2.062  12.701 -0.1630  0.2259  0.2574
15653TIP3    H268375   5.260   1.915  12.700 -0.8681  0.2896  3.6697
15654TIP3   OH268376   5.001   3.176   5.319 -0.4879 -0.0077  0.2661
15654TIP3    H168377   5.024   3.227   5.241  0.0788 -0.9357 -0.1839
15654TIP3    H268378   4.912   3.205   5.340 -0.6484  0.2673 -0.7115
15655TIP3   OH268379   2.361   1.211   0.178 -0.2994  0.2914  0.2372
15655TIP3    H168380   2.389   1.293   0.138 -0.4384  0.5974  0.7619
15655TIP3    H268381   2.289   1.180   0.124  0.0572  0.2743 -0.2339
15656TIP3   OH268382   1.737   0.181  15.404  0.0490 -0.1108  0.0006
15656TIP3    H168383   1.688   0.203  15.483 -0.1462 -0.0832 -0.1290
15656TIP3    H268384   1.829   0.182  15.432  0.4352  4.2385 -0.6511
15657TIP3   OH268385   2.494   4.280   0.787 -0.0999  0.0109  0.1568
15657TIP3    H168386   2.493   4.213   0.719 -0.1208  0.5942 -0.4331
15657TIP3    H268387   2.566   4.255   0.845 -0.2701 -0.6542  0.0917
15658TIP3   OH268388   1.855   0.254   0.161  0.5003 -0.0746 -0.2579
15658TIP3    H168389   1.832   0.182   0.220 -0.2335  1.9040  2.0363
15658TIP3    H268390   1.783   0.259   0.099 -0.9758  0.5300  1.4342
15659TIP3   OH268391   6.111   1.264  16.556 -0.0889  0.0255  0.2519
15659TIP3    H168392   6.142   1.195  16.498  0.7767  1.3408 -0.9213
15659TIP3    H268393   6.104   1.341  16.500  0.5475  1.2874  1.8324
15660TIP3   OH268394   5.658   2.143  13.518  0.4652  0.2762 -0.4087
15660TIP3    H168395   5.676   2.162  13.610  1.1905 -0.3207 -0.4181
15660TIP3    H268396   5.636   2.050  13.517 -2.1724  0.8275 -0.4854
15661TIP3   OH268397   6.436   1.195   0.270 -0.0160 -0.2252 -0.0144
15661TIP3    H168398   6.439   1.275   0.217  0.2994  0.1195  0.5148
15661TIP3    H268399   6.393   1.130   0.213 -0.5994  0.4138 -0.3194
15662TIP3   OH268400   1.983   0.623   1.632 -0.3455  0.9424 -0.4068
15662TIP3    H168401   2.033   0.695   1.594  0.9723  1.3143  1.8204
15662TIP3    H268402   1.944   0.661   1.711 -1.7053 -0.1635 -0.5176
15663TIP3   OH268403   4.163   6.494   4.885  0.0835  0.2311  0.4426
15663TIP3    H168404   4.172   6.408   4.925 -0.1394  0.4335  0.9414
15663TIP3    H268405   4.236   6.499   4.823  0.5099 -0.0532  0.9041
15664TIP3   OH268406   6.742   1.280   5.650  0.5383  0.1514  0.2447
15664TIP3    H168407   6.778   1.196   5.678 -0.7933 -0.2411  0.8784
15664TIP3    H268408   6.787   1.345   5.704  1.4111 -0.1637 -0.0860
15665TIP3   OH268409   4.212   6.041   2.600 -0.2026  0.3397 -0.4387
15665TIP3    H168410   4.277   6.015   2.666 -0.1124  1.5620 -0.0353
15665TIP3    H268411   4.207   5.965   2.541  1.3252  0.0776 -0.2766
15666TIP3   OH268412   6.492   2.251   3.356  0.1899  0.2561 -0.2951
15666TIP3    H168413   6.576   2.297   3.353  0.6682 -0.2457  2.3366
15666TIP3    H268414   6.516   2.158   3.361 -0.5817  0.0233 -0.7025
15667TIP3   OH268415   0.533   5.184   0.128  0.0701  0.1506 -0.0400
15667TIP3    H168416   0.478   5.252   0.166  1.1129  0.2209  1.4362
15667TIP3    H268417   0.475   5.108   0.119 -0.7843  0.8521 -0.5291
15668TIP3   OH268418   6.485   1.018  14.903  0.5215 -0.1589 -0.5021
15668TIP3    H168419   6.475   0.948  14.968 -0.5770 -0.0842 -0.5685
15668TIP3    H268420   6.479   0.973  14.818 -1.8434  0.1586 -0.5740
15669TIP3   OH268421   3.795   4.594  14.527 -0.5466  0.1024  0.1739
15669TIP3    H168422   3.840   4.528  14.579  0.5414  0.3376 -0.4331
15669TIP3    H268423   3.849   4.672  14.536 -1.4758  0.7354  0.3714
15670TIP3   OH268424   3.973   0.852  14.933 -0.0388 -0.1194 -0.2060
15670TIP3    H168425   3.918   0.817  14.863  1.1399 -2.5156 -0.0317
15670TIP3    H268426   4.060   0.862  14.894  0.5770 -1.2674  0.8002
15671TIP3   OH268427   4.384   6.344   1.246  0.3408  0.3517  0.1176
15671TIP3    H168428   4.359   6.278   1.311 -0.4212  1.8887  1.4770
15671TIP3    H268429   4.330   6.324   1.170  0.4910 -0.8882  0.3247
15672TIP3   OH268430   5.887   1.348   3.774  0.2399 -0.4479 -0.0598
15672TIP3    H168431   5.816   1.412   3.782 -0.3381 -1.0192 -0.5304
15672TIP3    H268432   5.963   1.401   3.748 -0.2190  0.0665 -0.3885
15673TIP3   OH268433   6.620   0.283  12.344 -0.4044  0.6864  0.2388
15673TIP3    H168434   6.578   0.200  12.323  1.2437 -0.9174  2.7936
15673TIP3    H268435   6.566   0.321  12.413 -2.1402  2.7577 -2.0432
15674TIP3   OH268436   4.854   2.323  16.056 -0.1541 -0.6148  0.1601
15674TIP3    H168437   4.888   2.277  15.980  0.1561 -0.0488 -0.0497
15674TIP3    H268438   4.776   2.368  16.024  1.9009  2.5499 -0.7969
15675TIP3   OH268439   3.414   3.477  16.184  0.2677 -0.0484 -0.0924
15675TIP3    H168440   3.427   3.413  16.254 -0.5447  0.9232  0.9939
15675TIP3    H268441   3.497   3.524  16.180  0.7235 -0.8769 -0.6091
15676TIP3   OH268442   1.100   5.968  14.218  0.9065  0.2492 -0.2467
15676TIP3    H168443   1.078   5.898  14.156  0.2715 -1.5348  1.8690
15676TIP3    H268444   1.102   6.047  14.165 -1.8385 -0.8281 -2.1838
15677TIP3   OH268445   3.613   6.526  11.752 -0.0560 -0.5706 -0.2806
15677TIP3    H168446   3.605   6.587  11.825 -2.7345  1.0305 -1.7740
15677TIP3    H268447   3.525   6.518  11.717  1.2904  0.0330 -4.3582
15678TIP3   OH268448   1.741   5.270  11.839 -0.2737  0.3877  0.5400
15678TIP3    H168449   1.740   5.338  11.772 -0.9997  1.2621  1.4274
15678TIP3    H268450   1.800   5.303  11.907  0.2731 -0.3917  0.4625
15679TIP3   OH268451   4.706   3.647  12.130  0.8442  0.0131 -0.1386
15679TIP3    H168452   4.798   3.674  12.132  1.1104 -0.9015  0.6358
15679TIP3    H268453   4.689   3.631  12.037  1.6381 -0.3597 -0.2361
15680TIP3   OH268454   1.071   4.253  10.459  0.4587 -0.0453  0.1030
15680TIP3    H168455   1.069   4.311  10.535  1.5197  1.2331 -0.7905
15680TIP3    H268456   1.159   4.215  10.460 -0.4143 -2.2561  1.0506
15681TIP3   OH268457   6.509   2.267   1.405 -0.4947 -0.4269 -0.0948
15681TIP3    H168458   6.582   2.259   1.466  0.3187 -0.9275 -1.1119
15681TIP3    H268459   6.436   2.225   1.450  0.0997 -0.8195  0.5187
15682TIP3   OH268460   0.643   6.549  16.617 -0.2211 -0.2857  0.5540
15682TIP3    H168461   0.726   6.516  16.585 -0.8045 -0.6260 -0.6869
15682TIP3    H268462   0.596   6.472  16.647 -1.0359 -0.4805 -1.0662
15683TIP3   OH268463   0.968   1.321   6.083 -0.4888  0.0667 -0.1387
15683TIP3    H168464   0.996   1.231   6.069 -1.4165 -0.2552  0.0214
15683TIP3    H268465   0.958   1.329   6.178 -2.0337 -0.1730 -0.2658
15684TIP3   OH268466   4.881   3.297  15.991 -0.0270 -0.5984 -0.5412
15684TIP3    H168467   4.869   3.386  15.956  1.6334  0.0284  0.3399
15684TIP3    H268468   4.912   3.312  16.081  0.6403 -2.0696 -0.5097
15685TIP3   OH268469   1.763   0.925  13.683 -0.4891  0.3857 -0.2296
15685TIP3    H168470   1.681   0.911  13.634 -0.9150 -1.0211  0.8273
15685TIP3    H268471   1.792   1.012  13.655 -1.8411  0.5290 -1.3454
15686TIP3   OH268472   2.845   0.804   5.523  0.5749 -0.0781  0.0992
15686TIP3    H168473   2.801   0.754   5.454 -0.4794 -0.5509  1.0847
15686TIP3    H268474   2.933   0.819   5.489  0.3264 -0.9886 -1.0056
15687TIP3   OH268475   3.825   5.709  11.892  0.7054 -0.0842 -0.2000
15687TIP3    H168476   3.757   5.685  11.954  1.6174 -1.4883  0.2975
15687TIP3    H268477   3.815   5.804  11.882 -0.0715  0.0356  1.3618
15688TIP3   OH268478   3.940   0.374   5.236  0.4820 -0.1284 -0.2594
15688TIP3    H168479   3.935   0.331   5.321  0.5792 -1.2453 -0.7911
15688TIP3    H268480   3.982   0.309   5.179 -0.0835  0.3777 -1.2842
15689TIP3   OH268481   3.745   5.200   0.490  0.4633 -0.1594 -0.1844
15689TIP3    H168482   3.678   5.220   0.555  1.0302 -1.2096  0.7571
15689TIP3    H268483   3.716   5.247   0.411 -0.2578  1.1144  0.7880
15690TIP3   OH268484   5.755   6.113  15.749  0.9578 -0.7241  0.1761
15690TIP3    H168485   5.789   6.130  15.837 -0.8666  2.4713  0.4229
15690TIP3    H268486   5.681   6.054  15.763  0.0779  0.5286  0.9617
15691TIP3   OH268487   3.877   3.911   5.117 -0.4128  0.2727  0.2501
15691TIP3    H168488   3.967   3.915   5.151 -0.4594  0.9968  0.2983
15691TIP3    H268489   3.872   3.981   5.053 -0.6121 -0.4958 -0.5977
15692TIP3   OH268490   3.317   5.306  13.346  0.1119 -0.3334  0.0038
15692TIP3    H168491   3.256   5.373  13.376  1.1655  1.0155 -0.7315
15692TIP3    H268492   3.394   5.317  13.401  0.5555 -0.4764 -0.5813
15693TIP3   OH268493   3.758   0.076   2.616  0.6425  0.1636  0.4484
15693TIP3    H168494   3.839   0.024   2.615  0.9682  0.6478  1.1222
15693TIP3    H268495   3.788   0.167   2.618  0.0913  0.3329  1.5512
15694TIP3   OH268496   0.366   3.578   5.886  0.2645  0.1078  0.2855
15694TIP3    H168497   0.377   3.484   5.901  1.1384  0.4270  1.7509
15694TIP3    H268498   0.273   3.594   5.906  0.5649 -0.1190  2.0189
15695TIP3   OH268499   3.549   2.359   2.764 -0.0040 -0.1661 -0.2650
15695TIP3    H168500   3.476   2.351   2.824 -0.2133  1.3392 -0.2804
15695TIP3    H268501   3.619   2.398   2.816  0.1340  0.2479 -0.7518
15696TIP3   OH268502   5.240   2.585   1.180  0.1626 -0.2530 -0.4033
15696TIP3    H168503   5.319   2.606   1.230 -1.2546 -1.0473  2.4221
15696TIP3    H268504   5.266   2.515   1.121  1.3879 -1.2534  1.2345
15697TIP3   OH268505   5.114   2.666  15.533 -0.5281 -0.4904 -0.2488
15697TIP3    H168506   5.080   2.603  15.596 -0.2963  0.8092  1.2347
15697TIP3    H268507   5.109   2.621  15.449 -2.3709 -1.7054  0.4472
15698TIP3   OH268508   3.042   3.202  16.580 -0.6338  0.3262  0.5406
15698TIP3    H168509   3.137   3.194  16.582 -0.6934 -2.3934 -1.3730
15698TIP3    H268510   3.011   3.147  16.652 -0.7429 -1.2148 -0.6334
15699TIP3   OH268511   0.880   4.920   0.021  0.1419  0.1890  0.1372
15699TIP3    H168512   0.843   4.986  -0.037  1.5247 -0.2591 -1.3378
15699TIP3    H268513   0.904   4.848  -0.038  1.3826 -0.3916  1.3041
15700TIP3   OH268514   2.146   1.350   1.980 -0.1337  0.0655  0.1645
15700TIP3    H168515   2.159   1.444   1.969 -0.7110  0.1706  0.3565
15700TIP3    H268516   2.055   1.335   1.955 -0.6835 -0.1030  2.0960
15701TIP3   OH268517   2.473   5.137   2.522 -1.0603  0.0699  0.4718
15701TIP3    H168518   2.407   5.138   2.452 -0.4494  1.7526 -0.1440
15701TIP3    H268519   2.553   5.169   2.480 -0.5561  0.6495  1.8235
15702TIP3   OH268520   3.577   0.466  16.775 -0.1620  0.9285 -0.0288
15702TIP3    H168521   3.516   0.478  16.848  0.4355 -0.5140  0.7451
15702TIP3    H268522   3.562   0.376  16.746  1.0757  0.8049 -0.3199
15703TIP3   OH268523   5.147   3.101   4.709 -0.4233  0.9771  0.0609
15703TIP3    H168524   5.230   3.126   4.670  0.7264 -3.4799 -0.9152
15703TIP3    H268525   5.097   3.063   4.637 -1.6039 -0.0582  1.3464
15704TIP3   OH268526   5.277   1.042  10.676  0.7349 -0.1478  0.5573
15704TIP3    H168527   5.268   1.117  10.618 -1.6257 -0.2185  0.7362
15704TIP3    H268528   5.286   0.967  10.618 -0.9964 -0.1480  0.2519
15705TIP3   OH268529   1.181   3.848  12.137 -0.1133  0.0942  0.0038
15705TIP3    H168530   1.170   3.780  12.071  0.5462 -0.1131  0.0939
15705TIP3    H268531   1.092   3.867  12.168 -0.3539 -0.3179 -0.4299
15706TIP3   OH268532   6.487   4.186   3.872 -0.5142 -0.3592  0.5041
15706TIP3    H168533   6.514   4.277   3.873  0.7535 -0.7191  1.0788
15706TIP3    H268534   6.453   4.172   3.783 -1.3961  0.8339  0.6308
15707TIP3   OH268535   2.829   3.486  13.750  0.4339  0.1630  0.4451
15707TIP3    H168536   2.856   3.433  13.675 -1.3856 -0.7345  0.3792
15707TIP3    H268537   2.840   3.429  13.826 -0.4585  0.0516  0.5042
15708TIP3   OH268538   1.336   5.230  14.908  0.4127  0.1429  0.0965
15708TIP3    H168539   1.247   5.221  14.943  1.0895  0.2713  1.9913
15708TIP3    H268540   1.390   5.242  14.986  1.9037  1.6357 -1.1085
15709TIP3   OH268541   3.206   2.853  14.651 -0.1758  0.8609  0.0731
15709TIP3    H168542   3.296   2.871  14.678 -0.8419  2.0925  1.6571
15709TIP3    H268543   3.211   2.773  14.599  1.6687  0.2898  1.0816
15710TIP3   OH268544   6.532   3.387  15.501  0.1922 -0.7208  0.3342
15710TIP3    H168545   6.516   3.335  15.423 -2.4648 -0.6490  0.7642
15710TIP3    H268546   6.567   3.324  15.565  1.1390 -1.0337 -0.4575
15711TIP3   OH268547   0.751   1.684  15.840 -0.5141  0.1599  0.2519
15711TIP3    H168548   0.717   1.612  15.787 -1.0469 -0.0247  0.8318
15711TIP3    H268549   0.675   1.714  15.891  0.4319 -1.0981  2.5432
15712TIP3   OH268550   0.218   2.708  11.530  0.0101 -0.2417  0.7683
15712TIP3    H168551   0.136   2.668  11.501  0.5713 -0.3394 -0.7708
15712TIP3    H268552   0.253   2.647  11.595 -0.2166 -1.1692  0.0423
15713TIP3   OH268553   1.209   1.675  13.576 -0.4215 -0.0070  0.2130
15713TIP3    H168554   1.295   1.714  13.592 -0.3826  0.0873 -0.2042
15713TIP3    H268555   1.150   1.720  13.636 -0.5830  1.4587 -0.9804
15714TIP3   OH268556   4.075   0.458  14.630 -0.5008  0.5452 -0.6225
15714TIP3    H168557   4.020   0.529  14.661 -2.0410 -0.2812 -1.3358
15714TIP3    H268558   4.017   0.382  14.627  1.4205 -1.1455  1.4744
15715TIP3   OH268559   0.755   3.308  12.209 -0.2567 -0.4590  0.3566
15715TIP3    H168560   0.741   3.357  12.128  1.6907  2.3200  1.5307
15715TIP3    H268561   0.849   3.287  12.208  0.1457  0.8844  2.4143
15716TIP3   OH268562   0.670   0.682  11.172  0.5133  0.6236  0.1998
15716TIP3    H168563   0.714   0.627  11.108  1.4033 -0.8930  2.0330
15716TIP3    H268564   0.578   0.658  11.166  0.5624  0.6208 -0.6055
15717TIP3   OH268565   6.341   3.666   3.543 -0.3198  0.1003  0.0423
15717TIP3    H168566   6.283   3.630   3.609 -1.4764 -0.1888 -1.0996
15717TIP3    H268567   6.294   3.655   3.460  1.3833 -0.2283 -0.9408
15718TIP3   OH268568   5.128   1.202  10.962  0.1574  0.0885 -0.2298
15718TIP3    H168569   5.155   1.294  10.964  1.0177 -0.1757  0.8004
15718TIP3    H268570   5.066   1.194  11.034  0.3122 -0.2138 -0.1327
15719TIP3   OH268571   6.157   1.144   1.929  0.0369 -0.0369 -0.4841
15719TIP3    H168572   6.193   1.230   1.952 -0.2229  0.1329 -0.7140
15719TIP3    H268573   6.110   1.158   1.847  1.1436 -0.6866 -1.2554
15720TIP3   OH268574   5.250   2.484  12.893  0.1581  0.3639 -0.2178
15720TIP3    H168575   5.311   2.495  12.821  0.2220 -1.3050 -0.4381
15720TIP3    H268576   5.301   2.508  12.971  0.5444  0.7043 -0.5692
15721TIP3   OH268577   1.049   0.206  14.221  0.7813  0.9595  0.5190
15721TIP3    H168578   1.028   0.254  14.301  0.8975 -0.1129  1.2081
15721TIP3    H268579   0.985   0.239  14.157  0.3153  1.4198  1.1995
15722TIP3   OH268580   0.278   1.516  14.588  0.1046 -0.5498 -0.1329
15722TIP3    H168581   0.234   1.496  14.670  0.7908 -0.7689  0.1869
15722TIP3    H268582   0.362   1.471  14.594  1.0910  1.2228  0.0047
15723TIP3   OH268583   2.219   1.062   2.885  0.4415  0.1904  0.0920
15723TIP3    H168584   2.251   0.973   2.874  0.1402  0.0369  0.4339
15723TIP3    H268585   2.192   1.089   2.797 -0.1471 -0.3231  0.1071
15724TIP3   OH268586   0.297   3.862  16.026  0.2237 -0.2452 -0.5664
15724TIP3    H168587   0.238   3.787  16.019  0.7826 -0.6011 -1.6248
15724TIP3    H268588   0.270   3.921  15.955  0.3657  0.1395 -0.3057
15725TIP3   OH268589   3.284   2.966   2.976 -0.4769  0.2156 -0.0233
15725TIP3    H168590   3.231   3.014   2.913  0.2153  1.5603  0.3779
15725TIP3    H268591   3.373   2.972   2.941 -0.4071 -0.9817 -0.0744
15726TIP3   OH268592   0.066   1.464   2.371 -0.1624  0.3088 -0.1200
15726TIP3    H168593   0.045   1.556   2.360 -1.3562  0.0626 -0.0212
15726TIP3    H268594   0.124   1.461   2.447  1.1280  1.1118 -1.0272
15727TIP3   OH268595   3.796   4.008  13.184 -0.1891  0.4162 -0.0736
15727TIP3    H168596   3.879   3.968  13.211 -0.5685  0.3263  1.0215
15727TIP3    H268597   3.741   3.933  13.160  0.0580  0.4794 -0.8558
15728TIP3   OH268598   2.539   5.045  13.498 -0.4164 -0.1991 -0.2952
15728TIP3    H168599   2.592   4.991  13.557 -1.1292 -1.5015 -0.8073
15728TIP3    H268600   2.602   5.106  13.459  0.8943 -2.1352 -1.4053
15729TIP3   OH268601   0.173   6.385  12.686  0.5312 -0.2430  0.0044
15729TIP3    H168602   0.267   6.402  12.678  0.3245  1.0733  0.1219
15729TIP3    H268603   0.156   6.387  12.780  0.4381 -0.7801 -0.0019
15730TIP3   OH268604   4.114   3.371  14.825 -0.2054 -0.3932  0.0456
15730TIP3    H168605   4.155   3.346  14.742  0.4618 -1.0631  0.5619
15730TIP3    H268606   4.021   3.355  14.812 -0.1849  0.1065 -0.7860
15731TIP3   OH268607   4.654   0.022  17.159  0.4136 -0.3225  0.9831
15731TIP3    H168608   4.700  -0.025  17.089 -1.1370 -0.0733 -0.2539
15731TIP3    H268609   4.705   0.102  17.170  0.0999  0.1474 -0.6608
15732TIP3   OH268610   0.959   4.319  12.071 -0.0885 -0.4709  0.2979
15732TIP3    H168611   1.026   4.272  12.120 -0.8492 -0.7792  1.0625
15732TIP3    H268612   0.883   4.260  12.069  0.5326 -1.3999 -3.0867
15733TIP3   OH268613   6.144   4.786  15.838  0.3462 -0.6659 -0.0916
15733TIP3    H168614   6.121   4.842  15.912  0.3500 -2.5788  1.4218
15733TIP3    H268615   6.073   4.722  15.833  0.8087 -1.1168 -1.1705
15734TIP3   OH268616   6.492   5.054   0.165 -0.4617  0.8998 -0.0903
15734TIP3    H168617   6.441   4.976   0.143  0.7523  0.0970 -0.1522
15734TIP3    H268618   6.496   5.104   0.084 -0.8839  0.8210 -0.1629
15735TIP3   OH268619   1.955   4.039   3.724 -0.0869  0.2358  0.2865
15735TIP3    H168620   1.879   4.080   3.765  0.5017  0.0340  1.6007
15735TIP3    H268621   2.030   4.067   3.776  0.9107  1.2806 -1.5999
15736TIP3   OH268622   0.144   6.196  11.084 -0.8402  0.2851 -0.1455
15736TIP3    H168623   0.081   6.260  11.049  0.0678  1.0859 -0.3671
15736TIP3    H268624   0.142   6.124  11.021  1.5610  2.1557 -2.6144
15737TIP3   OH268625   3.845   1.059  16.579  0.4678 -0.6416  1.0439
15737TIP3    H168626   3.850   0.965  16.563  0.9688 -0.2856 -1.1808
15737TIP3    H268627   3.754   1.082  16.563  0.3503 -0.7321  1.5667
15738TIP3   OH268628   3.662   2.340   1.085 -0.1819  0.1530 -0.1468
15738TIP3    H168629   3.682   2.249   1.062  0.6864  0.2448  0.2143
15738TIP3    H268630   3.685   2.390   1.006  2.0489  0.3740  0.5624
15739TIP3   OH268631   1.402   5.223   2.861  0.5564 -0.4230  0.4761
15739TIP3    H168632   1.344   5.299   2.864  0.8964 -0.1607  0.5133
15739TIP3    H268633   1.431   5.212   2.951  2.3283  0.8440  0.1256
15740TIP3   OH268634   6.472   4.897  11.905 -0.0915  0.0761  1.0902
15740TIP3    H168635   6.517   4.933  11.982 -1.7109  2.0938  1.1673
15740TIP3    H268636   6.497   4.955  11.833 -1.2288  0.2223  0.8046
15741TIP3   OH268637   3.017   1.386  12.512  0.1594 -0.4772  0.4513
15741TIP3    H168638   3.070   1.309  12.534 -0.3763 -0.7902  0.6675
15741TIP3    H268639   3.071   1.434  12.449  0.4448 -1.0973  0.2032
15742TIP3   OH268640   6.080   4.511   2.720  0.2531  0.1546  0.1921
15742TIP3    H168641   6.040   4.481   2.639  0.2643  1.7117 -0.4242
15742TIP3    H268642   6.045   4.453   2.787 -1.1553 -0.0310 -0.6707
15743TIP3   OH268643   2.463   5.913  16.061 -0.0488  0.5818  0.1330
15743TIP3    H168644   2.435   5.928  16.151 -0.0421  0.8744  0.0877
15743TIP3    H268645   2.464   5.818  16.052  1.3311  0.4943  0.8786
15744TIP3   OH268646   6.288   2.482   6.292 -0.1060  0.7805  0.1247
15744TIP3    H168647   6.266   2.510   6.381  1.2734  1.0493  0.4114
15744TIP3    H268648   6.322   2.393   6.303  4.6367  2.3908  0.6788
15745TIP3   OH268649   3.476   0.904  16.350 -0.9935  0.3286  0.4793
15745TIP3    H168650   3.485   0.977  16.288 -0.9694  0.0294  0.1272
15745TIP3    H268651   3.408   0.849  16.312 -0.7593 -0.0211  0.5612
15746TIP3   OH268652   1.428   6.282   1.585 -0.0837 -0.2777  0.2808
15746TIP3    H168653   1.444   6.367   1.544 -1.7767  0.4449  1.0057
15746TIP3    H268654   1.513   6.240   1.586  0.2811  0.1313 -2.8507
15747TIP3   OH268655   0.926   0.799   3.166 -0.4460  0.6125  0.0199
15747TIP3    H168656   0.920   0.768   3.075  0.7329  1.8245 -0.5144
15747TIP3    H268657   0.874   0.737   3.216  1.3762 -1.9582 -1.0316
15748TIP3   OH268658   2.799   4.451  16.486  0.4427 -0.1346  0.4345
15748TIP3    H168659   2.824   4.462  16.578 -0.5062 -1.6083  0.9103
15748TIP3    H268660   2.799   4.540  16.450  1.9710  0.3562  1.5324
15749TIP3   OH268661   4.953   0.071   3.726  0.2876 -0.1419  0.2402
15749TIP3    H168662   4.877   0.043   3.675  0.2857 -0.2977  0.3293
15749TIP3    H268663   5.024   0.076   3.662  0.2296 -0.1080  0.1786
15750TIP3   OH268664   4.767   5.865   2.529 -0.0658 -0.8241 -0.5057
15750TIP3    H168665   4.774   5.881   2.623 -0.4516 -0.0338 -0.6039
15750TIP3    H268666   4.806   5.778   2.517  0.4652 -0.7144  0.3043
15751TIP3   OH268667   0.041   5.885   2.524  0.2899 -0.2313  0.2965
15751TIP3    H168668  -0.023   5.893   2.454 -1.0546 -1.5201  1.3091
15751TIP3    H268669   0.080   5.798   2.510  1.1948  0.1856  0.2012
15752TIP3   OH268670   0.270   2.322   3.793  0.2437  0.1202 -0.2612
15752TIP3    H168671   0.216   2.328   3.714  2.4946 -2.0732 -2.1069
15752TIP3    H268672   0.246   2.238   3.832 -1.1146  1.3419  1.7206
15753TIP3   OH268673   6.786   2.547   3.419 -0.2620  0.4434 -0.7204
15753TIP3    H168674   6.878   2.524   3.432 -0.5811 -1.0713 -0.9566
15753TIP3    H268675   6.783   2.642   3.432  1.1414  0.3790  0.3479
15754TIP3   OH268676   5.650   6.247   6.129 -0.1451 -0.4120 -0.2404
15754TIP3    H168677   5.625   6.158   6.153  0.4508 -0.1457  1.4850
15754TIP3    H268678   5.678   6.287   6.211 -1.0933  1.6061 -0.8339
15755TIP3   OH268679   2.396   5.323   3.114  0.1870  0.0177  0.1811
15755TIP3    H168680   2.345   5.402   3.133 -1.3296 -1.5189  3.0413
15755TIP3    H268681   2.375   5.303   3.023 -1.2628  1.5819  0.1187
15756TIP3   OH268682   5.005   2.294   2.653  0.1202  0.7464  0.0890
15756TIP3    H168683   4.966   2.214   2.690  0.0884  0.4918 -0.4771
15756TIP3    H268684   5.002   2.358   2.724 -0.9056  0.5875  0.1988
15757TIP3   OH268685   6.293   2.976  13.962  0.0447 -0.2963 -0.4221
15757TIP3    H168686   6.340   2.906  14.006  1.9587  0.5833 -0.9595
15757TIP3    H268687   6.355   3.048  13.957 -1.9101  1.5509  0.2821
15758TIP3   OH268688   3.287   2.910  16.096  0.6954  0.2314 -0.1250
15758TIP3    H168689   3.213   2.970  16.092  2.6127  2.6870 -2.4183
15758TIP3    H268690   3.362   2.962  16.066  3.0869 -2.5383  0.5506
15759TIP3   OH268691   0.151   1.018  13.291 -0.2143  0.1558 -0.3920
15759TIP3    H168692   0.153   1.048  13.382 -0.2246  1.4554 -0.7889
15759TIP3    H268693   0.120   0.928  13.296 -0.9756  0.4548  0.8321
15760TIP3   OH268694   2.551   5.543   5.617 -0.1025 -0.0870 -0.0364
15760TIP3    H168695   2.587   5.533   5.705 -0.3643 -1.3414 -0.0538
15760TIP3    H268696   2.539   5.637   5.606  2.5313  0.3644  0.2224
15761TIP3   OH268697   4.516   1.435  15.564  0.1830  0.1133  0.5293
15761TIP3    H168698   4.513   1.384  15.483 -1.2706  2.5197 -1.0704
15761TIP3    H268699   4.608   1.434  15.590  0.7202 -0.5895 -1.2364
15762TIP3   OH268700   4.657   0.514   2.975 -0.2110 -0.2549 -0.2187
15762TIP3    H168701   4.719   0.483   3.041 -0.0270 -0.3610 -0.4412
15762TIP3    H268702   4.675   0.608   2.967 -0.1205 -0.2749 -0.2427
15763TIP3   OH268703   2.154   3.941   4.444 -0.0843  0.1014  0.1204
15763TIP3    H168704   2.093   3.889   4.496  1.1894 -1.3100  0.2966
15763TIP3    H268705   2.222   3.968   4.506 -0.4287  1.5275 -0.0919
15764TIP3   OH268706   1.756   0.655  14.269  0.2058  1.0111 -0.4080
15764TIP3    H168707   1.812   0.680  14.343  0.8015  0.3170 -0.6081
15764TIP3    H268708   1.734   0.737  14.226  0.3240  1.3701  0.2167
15765TIP3   OH268709   6.370   1.357   3.621 -0.2428  0.0570  0.5818
15765TIP3    H168710   6.328   1.427   3.670 -1.6906  0.5643 -1.2784
15765TIP3    H268711   6.413   1.402   3.548  0.2094 -0.8443  0.2755
15766TIP3   OH268712   2.286   2.548  15.570 -0.3009  0.2218 -0.0702
15766TIP3    H168713   2.307   2.616  15.634 -0.8666 -0.9531  1.4399
15766TIP3    H268714   2.210   2.582  15.522  0.0290  1.0545 -0.0045
15767TIP3   OH268715   3.678   4.786   3.376 -0.3873 -0.3178  0.3808
15767TIP3    H168716   3.614   4.857   3.367 -0.3135 -0.2906  0.0430
15767TIP3    H268717   3.736   4.815   3.447 -0.3262 -0.0135  0.2091
15768TIP3   OH268718   6.421   1.612  12.913 -0.3860  0.0817  0.0051
15768TIP3    H168719   6.427   1.520  12.888  0.4144  0.3146 -0.7139
15768TIP3    H268720   6.349   1.616  12.976  0.7778 -1.3431  1.5127
15769TIP3   OH268721   4.570   5.727  14.968  0.4299  0.5966 -0.5244
15769TIP3    H168722   4.484   5.763  14.988  0.6128  0.5725  0.3477
15769TIP3    H268723   4.624   5.804  14.950  0.2250  0.6097 -1.1069
15770TIP3   OH268724   2.417   3.890  14.176  0.2168 -0.4661 -0.0657
15770TIP3    H168725   2.425   3.794  14.173 -0.1455 -0.4844 -0.7803
15770TIP3    H268726   2.459   3.919  14.095 -0.5654 -0.0938 -0.3426
15771TIP3   OH268727   1.840   1.564  15.006  0.3396  0.2512 -0.3044
15771TIP3    H168728   1.860   1.632  14.942  1.2166 -0.0619 -0.3726
15771TIP3    H268729   1.792   1.611  15.075  0.0439  0.7316 -0.8224
15772TIP3   OH268730   1.406   2.007   3.016  0.5864 -0.1708  0.2726
15772TIP3    H168731   1.465   2.083   3.015  1.0491 -0.4679 -2.6660
15772TIP3    H268732   1.443   1.947   2.951 -1.0221 -1.9475  0.9187
15773TIP3   OH268733   4.785   3.986   2.221 -0.4072  0.0079  0.0118
15773TIP3    H168734   4.808   3.919   2.285 -1.5139 -0.5073 -0.1073
15773TIP3    H268735   4.737   3.938   2.153  0.1405  0.6646 -0.8569
15774TIP3   OH268736   5.849   5.829  11.713  0.1557  0.1074  0.6155
15774TIP3    H168737   5.757   5.856  11.721  0.3034  0.6618  0.4972
15774TIP3    H268738   5.865   5.827  11.619  0.0197 -0.8585  0.6026
15775TIP3   OH268739   2.343   5.969   1.010  1.3788  0.3176 -0.0594
15775TIP3    H168740   2.408   5.914   0.965 -0.3850 -0.9151 -1.2740
15775TIP3    H268741   2.341   5.935   1.099  0.6160 -1.4229 -0.6849
15776TIP3   OH268742   3.212   5.924  14.896  0.2871  0.0687 -0.5236
15776TIP3    H168743   3.275   5.869  14.850  1.0160 -0.5554  1.1065
15776TIP3    H268744   3.263   5.999  14.926 -0.3242  0.8040 -1.2835
15777TIP3   OH268745   1.358   3.429  14.323 -0.1362 -0.0037 -0.1554
15777TIP3    H168746   1.411   3.476  14.258 -1.4376  1.6324 -0.1067
15777TIP3    H268747   1.281   3.398  14.274 -0.2724 -0.3090  0.2434
15778TIP3   OH268748   2.425   4.482  16.080  0.0117  0.5250  0.0993
15778TIP3    H168749   2.371   4.526  16.145 -0.5270 -0.9206  0.6696
15778TIP3    H268750   2.384   4.504  15.996 -1.3340 -0.3281  0.5046
15779TIP3   OH268751   3.495   2.140  10.694  0.2616  0.5593 -0.1335
15779TIP3    H168752   3.517   2.170  10.782  0.9575  2.6036 -0.9575
15779TIP3    H268753   3.401   2.160  10.685  0.2044  0.4054  0.1170
15780TIP3   OH268754   3.375   1.983   1.651  0.8644  0.1076  0.1517
15780TIP3    H168755   3.455   1.985   1.599 -0.3936 -1.2730 -1.9720
15780TIP3    H268756   3.314   1.932   1.599 -0.9394 -0.1770  2.4100
15781TIP3   OH268757   4.905   4.581  11.729  0.2441 -0.2667  0.0083
15781TIP3    H168758   4.849   4.579  11.652 -2.8450  0.0913  2.0835
15781TIP3    H268759   4.866   4.518  11.790  2.7713 -0.8211  1.2297
15782TIP3   OH268760   6.729   0.506  15.002 -0.2068  0.1642  0.1398
15782TIP3    H168761   6.673   0.456  15.061 -1.1627  0.1744 -0.7226
15782TIP3    H268762   6.765   0.576  15.056 -1.5379  0.5321  0.5959
15783TIP3   OH268763   3.096   3.104  11.528  0.3877 -0.2263  0.2889
15783TIP3    H168764   3.052   3.070  11.450  1.1775 -0.0659 -0.2376
15783TIP3    H268765   3.029   3.156  11.572 -0.0205 -0.1756 -0.3777
15784TIP3   OH268766   3.222   1.596   0.944  0.5330 -0.4528  0.1323
15784TIP3    H168767   3.261   1.681   0.964 -0.6446  0.3504 -0.8172
15784TIP3    H268768   3.135   1.600   0.982  0.3830 -1.1451 -0.1306
15785TIP3   OH268769   6.259   6.433   0.680 -0.0205 -0.6538  0.4965
15785TIP3    H168770   6.319   6.381   0.626 -1.4823 -2.1531  0.2274
15785TIP3    H268771   6.181   6.444   0.625 -0.4224  0.3262  1.2276
15786TIP3   OH268772   0.180   2.771  12.567 -0.3349  0.1578 -0.0218
15786TIP3    H168773   0.246   2.788  12.635 -1.0083 -0.2997  0.7691
15786TIP3    H268774   0.231   2.764  12.486  0.3147  2.6717  0.0649
15787TIP3   OH268775   4.643   1.896   1.191  0.1058  0.2061  0.5839
15787TIP3    H168776   4.624   1.979   1.148  1.2340  0.0261 -0.3047
15787TIP3    H268777   4.572   1.885   1.254 -0.6288  1.3336 -0.0105
15788TIP3   OH268778   5.132   4.777  15.613 -0.0811 -0.2421 -0.0587
15788TIP3    H168779   5.093   4.691  15.600 -3.1896  0.9395  0.5816
15788TIP3    H268780   5.117   4.797  15.706  1.6057  0.5600  0.0786
15789TIP3   OH268781   4.530   4.466   6.091  0.1027 -0.6756 -0.1291
15789TIP3    H168782   4.468   4.433   6.027 -0.6871  0.1487  0.1892
15789TIP3    H268783   4.554   4.389   6.143  1.3476 -1.5208 -1.8410
15790TIP3   OH268784   3.472   5.398  15.812  0.1061 -0.1841 -0.0460
15790TIP3    H168785   3.540   5.333  15.832  1.0274  0.1331 -1.8734
15790TIP3    H268786   3.404   5.349  15.766  0.6543  0.0377 -1.1397
15791TIP3   OH268787   5.416   2.444   0.608  0.4970  0.2532  0.3367
15791TIP3    H168788   5.511   2.459   0.609  0.2768  1.8174  1.7216
15791TIP3    H268789   5.382   2.518   0.557 -0.1691  1.4578  2.4017
15792TIP3   OH268790   5.656   3.032  12.631  0.2532  0.1305  0.0589
15792TIP3    H168791   5.586   3.031  12.565  0.3231 -0.3439 -0.0060
15792TIP3    H268792   5.721   3.093  12.596 -0.0619  0.4683  0.0539
15793TIP3   OH268793   6.245   3.598  13.812 -0.1454  0.7710 -0.2048
15793TIP3    H168794   6.252   3.507  13.841 -2.0228  0.5060 -0.4633
15793TIP3    H268795   6.255   3.593  13.717 -2.7657  0.4435 -0.5280
15794TIP3   OH268796   4.522   4.029  12.824 -0.3732  0.1758  0.1932
15794TIP3    H168797   4.456   4.006  12.758 -0.0604 -1.2316  0.3480
15794TIP3    H268798   4.601   4.049  12.773 -0.0050 -1.3323  0.1155
15795TIP3   OH268799   0.738   1.282   0.773 -0.1030  0.5978  0.2333
15795TIP3    H168800   0.815   1.259   0.721 -0.5369  0.1041 -0.1967
15795TIP3    H268801   0.733   1.378   0.766 -0.7474  0.4727 -1.5192
15796TIP3   OH268802   0.299   4.711  14.714  0.4075 -0.1723  0.0111
15796TIP3    H168803   0.326   4.799  14.739 -0.2223  0.1915 -0.5393
15796TIP3    H268804   0.209   4.722  14.683  0.1192 -1.1102  0.4925
15797TIP3   OH268805   4.273   3.946  16.165 -0.2564 -0.1578  0.2767
15797TIP3    H168806   4.281   3.878  16.231 -1.1200 -1.0788 -0.5367
15797TIP3    H268807   4.217   4.012  16.205  0.8230  0.2554  1.1794
15798TIP3   OH268808   2.250   5.069   3.290 -0.2332 -0.5947  0.1751
15798TIP3    H168809   2.211   5.135   3.234 -1.9005 -1.9476 -0.3571
15798TIP3    H268810   2.269   4.996   3.231  0.5355 -1.0206  0.9206
15799TIP3   OH268811   1.792   1.052  12.307  0.6894 -0.3888 -0.2035
15799TIP3    H168812   1.868   1.033  12.252 -0.0280  0.5341 -1.5856
15799TIP3    H268813   1.829   1.092  12.386  1.7179 -1.4178 -0.1380
15800TIP3   OH268814   3.533   3.858  16.133  0.5557 -0.3164 -0.1448
15800TIP3    H168815   3.580   3.860  16.050  1.1578  0.5532  0.1962
15800TIP3    H268816   3.473   3.933  16.129  1.0552  0.1302  0.4466
15801TIP3   OH268817   3.353   5.634   2.319  0.3690  0.2855  0.3263
15801TIP3    H168818   3.446   5.644   2.298  0.3215 -0.8627 -0.5178
15801TIP3    H268819   3.315   5.595   2.240 -1.0935  1.9217  0.1441
15802TIP3   OH268820   1.343   4.055  16.137 -0.5769 -0.0854  0.2723
15802TIP3    H168821   1.322   3.987  16.200 -0.1733  0.7915  1.3864
15802TIP3    H268822   1.266   4.059  16.080  0.5452 -3.4961 -1.7694
15803TIP3   OH268823   3.600   2.092   2.753  0.1155 -0.6237 -0.3484
15803TIP3    H168824   3.675   2.145   2.778  0.4801 -0.3619 -1.8799
15803TIP3    H268825   3.531   2.155   2.732 -0.9138 -0.8786  2.0257
15804TIP3   OH268826   3.074   1.476   3.141 -0.0909  0.4940 -0.4458
15804TIP3    H168827   3.019   1.467   3.218 -1.0383 -0.1030 -1.1762
15804TIP3    H268828   3.014   1.473   3.067  0.8780  0.2345 -1.2573
15805TIP3   OH268829   0.786   0.014   3.287 -0.0328  0.1291 -0.1876
15805TIP3    H168830   0.793   0.057   3.372  1.4320 -1.6069  0.6527
15805TIP3    H268831   0.762  -0.077   3.308  0.5425 -0.3796 -1.5791
15806TIP3   OH268832   3.099   2.370   1.898  0.1925  0.3023 -0.1412
15806TIP3    H168833   3.101   2.304   1.830 -1.4186 -0.9503  0.9573
15806TIP3    H268834   3.160   2.338   1.965 -0.1855  0.2078  0.1583
15807TIP3   OH268835   0.253   4.744   2.050 -0.6137 -0.3766 -0.4210
15807TIP3    H168836   0.285   4.682   1.984  2.8304  0.2247  0.5130
15807TIP3    H268837   0.299   4.825   2.031 -4.0852  1.7173 -0.8233
15808TIP3   OH268838   0.932   6.291   5.676  0.1502  0.0904 -0.7404
15808TIP3    H168839   0.854   6.316   5.726  2.0282 -0.4119  2.7397
15808TIP3    H268840   0.924   6.197   5.664  0.3402 -0.0054 -0.1328
15809TIP3   OH268841   5.684   0.887   2.811 -0.1562 -0.4175  0.1458
15809TIP3    H168842   5.724   0.801   2.819  0.0460 -0.3859 -0.4867
15809TIP3    H268843   5.686   0.906   2.718 -1.1964 -0.2023  0.1498
15810TIP3   OH268844   5.997   5.494   1.241  0.6593  0.1225 -0.0495
15810TIP3    H168845   5.934   5.445   1.190  0.8986  0.1002 -0.3246
15810TIP3    H268846   5.986   5.585   1.212 -0.9720  0.5277  1.6622
15811TIP3   OH268847   0.189   6.226  13.998  0.3360  0.7131 -0.3413
15811TIP3    H168848   0.189   6.205  14.092  0.9584  0.8971 -0.2974
15811TIP3    H268849   0.272   6.270  13.983  0.8151 -0.4479 -1.2386
15812TIP3   OH268850   1.450   0.727   3.193 -0.5507  0.3917 -0.6385
15812TIP3    H168851   1.527   0.716   3.248 -0.8426 -1.4632 -0.5435
15812TIP3    H268852   1.376   0.726   3.254 -0.7140  6.4095 -0.1238
15813TIP3   OH268853   6.393   0.852   4.210  0.4483  0.2414  0.2043
15813TIP3    H168854   6.326   0.784   4.214  0.2249  0.3150 -1.6125
15813TIP3    H268855   6.432   0.843   4.123  2.2178  0.7640  0.8831
15814TIP3   OH268856   5.997   2.418  13.283  0.3944 -0.7081  0.7777
15814TIP3    H168857   6.045   2.499  13.298 -0.3536  0.0918 -0.9431
15814TIP3    H268858   5.923   2.422  13.344  0.4694 -0.2044  0.8382
15815TIP3   OH268859   1.790   0.460   6.177 -0.2785  0.0209  0.0615
15815TIP3    H168860   1.768   0.367   6.187 -0.1276  0.0374  0.5562
15815TIP3    H268861   1.789   0.495   6.266 -0.4000  0.5118 -0.1289
15816TIP3   OH268862   3.819   2.946  11.386  0.1265  0.1282 -0.1931
15816TIP3    H168863   3.837   3.040  11.394  1.8746 -0.1671 -0.2302
15816TIP3    H268864   3.738   2.942  11.335  1.8824  1.6351 -3.4514
15817TIP3   OH268865   0.800   1.211  14.001  0.1143  0.1027  0.3156
15817TIP3    H168866   0.709   1.221  14.028  0.7715  2.1884  2.0410
15817TIP3    H268867   0.796   1.157  13.922 -2.6145  0.2987  0.2345
15818TIP3   OH268868   0.373   4.396   0.784  0.3898 -0.1373  0.0684
15818TIP3    H168869   0.439   4.434   0.726  1.1671 -0.1959  0.8949
15818TIP3    H268870   0.382   4.444   0.867 -1.0870  0.3408 -0.0072
15819TIP3   OH268871   2.827   6.696   5.600 -1.2340 -0.3375 -0.5105
15819TIP3    H168872   2.903   6.742   5.635 -2.6602 -0.4270  3.1204
15819TIP3    H268873   2.832   6.608   5.635 -2.1100 -0.9070 -1.7119
15820TIP3   OH268874   3.789   1.291   2.952  0.6115  0.0543 -0.3517
15820TIP3    H168875   3.805   1.269   3.044 -0.6639 -1.9988 -0.5648
15820TIP3    H268876   3.828   1.378   2.941  2.2655 -0.3575  1.6870
15821TIP3   OH268877   1.318   5.983  12.168  0.3427 -0.3348  0.1691
15821TIP3    H168878   1.235   5.970  12.212  0.1150  0.5999  0.0256
15821TIP3    H268879   1.330   6.078  12.164  1.4387 -0.4497  0.2311
15822TIP3   OH268880   6.664   3.670   4.347  0.0119 -0.0866  0.1096
15822TIP3    H168881   6.582   3.691   4.300  0.0108  1.6126  0.7973
15822TIP3    H268882   6.636   3.617   4.421 -0.2364 -1.0218 -0.6346
15823TIP3   OH268883   2.875   6.417   0.978 -0.0843 -0.8073  0.7307
15823TIP3    H168884   2.818   6.452   0.909  0.2593 -0.1810  0.7542
15823TIP3    H268885   2.850   6.465   1.057  1.3424  0.4392  0.4769
15824TIP3   OH268886   1.586   3.754  15.021  0.0883 -0.2137 -0.1724
15824TIP3    H168887   1.649   3.762  14.949  0.8523 -1.1532  0.3613
15824TIP3    H268888   1.561   3.661  15.019 -0.7512 -0.0015  0.0760
15825TIP3   OH268889   4.638   6.182   5.614 -0.2704 -0.3669 -0.0120
15825TIP3    H168890   4.708   6.177   5.549  1.0100  0.7382  1.2292
15825TIP3    H268891   4.562   6.211   5.565 -0.3577 -3.1671 -1.7227
15826TIP3   OH268892   5.088   5.116   5.587  0.4149 -0.3125 -0.4477
15826TIP3    H168893   5.014   5.175   5.601 -0.9900 -1.8231 -1.0961
15826TIP3    H268894   5.155   5.146   5.648 -0.4204  1.6125 -0.4064
15827TIP3   OH268895   3.428   4.351   3.604  0.2210 -0.2228 -0.5315
15827TIP3    H168896   3.491   4.416   3.574 -0.2108  0.2696 -0.3890
15827TIP3    H268897   3.416   4.293   3.529 -0.1404  0.4437 -1.0022
15828TIP3   OH268898   0.982   2.905  16.249  0.5121  0.0264  0.4929
15828TIP3    H168899   0.910   2.869  16.301 -0.3400  2.1814  0.9494
15828TIP3    H268900   0.945   2.915  16.161  0.4941  0.3818  0.5365
15829TIP3   OH268901   3.495   6.218   5.617  0.0485  0.2099  0.3466
15829TIP3    H168902   3.478   6.238   5.709 -0.1859 -0.5914  0.4853
15829TIP3    H268903   3.459   6.130   5.604  0.2239  0.2475 -0.4705
15830TIP3   OH268904   3.736   1.818  12.206  0.3358  0.2181 -0.0093
15830TIP3    H168905   3.653   1.851  12.240  0.4843  0.7771 -0.1791
15830TIP3    H268906   3.761   1.880  12.138  0.9380  0.1050  0.0984
15831TIP3   OH268907   2.255   3.697  15.971 -0.0689 -0.0933 -0.0614
15831TIP3    H168908   2.249   3.621  15.913  0.0876 -0.3400  0.2377
15831TIP3    H268909   2.344   3.694  16.005 -0.6434 -0.9550  1.5109
15832TIP3   OH268910   2.200   5.758   2.225 -0.1562  0.0918  0.0786
15832TIP3    H168911   2.161   5.675   2.199  1.9648 -0.6196 -1.0487
15832TIP3    H268912   2.293   5.738   2.235  0.2704  2.1610  0.5864
15833TIP3   OH268913   6.746   5.815  13.783 -0.7769  1.1028  0.0299
15833TIP3    H168914   6.723   5.755  13.854  2.7994 -2.5129 -1.4843
15833TIP3    H268915   6.834   5.847  13.806  0.2454  0.2535 -2.3916
15834TIP3   OH268916   0.382   3.246  13.839 -0.2632  0.0511  0.4371
15834TIP3    H168917   0.473   3.237  13.867  0.6216  2.6046 -1.2597
15834TIP3    H268918   0.348   3.318  13.892 -0.9067 -0.1012  0.2336
15835TIP3   OH268919   5.259   2.813  12.520  0.1928 -0.1745 -0.4262
15835TIP3    H168920   5.175   2.788  12.559  0.7309 -0.6687  0.4482
15835TIP3    H268921   5.236   2.880  12.456 -0.6163  1.5126  1.5312
15836TIP3   OH268922   3.966   0.042  13.923  0.2228  0.6714  0.2004
15836TIP3    H168923   3.900  -0.028  13.927  0.3609  0.5541  0.4079
15836TIP3    H268924   4.028   0.021  13.992  0.4371  0.8276  0.0568
15837TIP3   OH268925   4.709   2.790  11.818  0.0275  1.0094  0.2281
15837TIP3    H168926   4.721   2.738  11.738  0.7302  1.0767  0.2828
15837TIP3    H268927   4.623   2.829  11.808  0.3423  1.4794 -0.7806
15838TIP3   OH268928   5.720   1.253   1.676 -0.3391  0.6069  0.5639
15838TIP3    H168929   5.674   1.172   1.651  0.6032  0.4127 -0.6355
15838TIP3    H268930   5.808   1.224   1.701 -0.1077  1.2245  0.4838
15839TIP3   OH268931   3.470   2.245  16.785  0.1162  0.5115  0.5776
15839TIP3    H168932   3.384   2.271  16.752 -0.4592 -0.4137  1.2889
15839TIP3    H268933   3.489   2.310  16.853 -0.8879 -0.3229  1.7004
15840TIP3   OH268934   3.135   5.240  13.680  0.5216  0.4668  0.0996
15840TIP3    H168935   3.167   5.152  13.663  0.6777  0.5901 -0.2487
15840TIP3    H268936   3.063   5.252  13.618  1.2041  0.9809 -0.6014
15841TIP3   OH268937   0.747   0.121   1.341  0.5252 -0.1616 -0.3078
15841TIP3    H168938   0.783   0.182   1.277 -0.1683  0.5881  0.0011
15841TIP3    H268939   0.659   0.101   1.309 -0.5426  1.6274  1.2761
15842TIP3   OH268940   0.946   2.457   2.662 -0.1711 -0.1448 -0.2387
15842TIP3    H168941   1.014   2.503   2.711 -0.2904  1.1181 -1.2154
15842TIP3    H268942   0.921   2.518   2.592 -2.9263 -0.1547  0.6003
15843TIP3   OH268943   5.090   2.684   5.010 -0.1035  0.1311  0.8548
15843TIP3    H168944   5.041   2.614   5.053 -0.6591  0.5803  0.9707
15843TIP3    H268945   5.155   2.639   4.957 -0.9059 -0.5033  0.3872
15844TIP3   OH268946   1.809   0.703  13.891 -0.2470  0.5899 -0.8344
15844TIP3    H168947   1.809   0.687  13.797 -0.1674 -0.1570 -0.7140
15844TIP3    H268948   1.863   0.633  13.927 -0.5256  0.6907 -0.2072
15845TIP3   OH268949   0.149   2.961  11.552  0.0577 -0.4056 -0.0725
15845TIP3    H168950   0.057   2.949  11.576  0.1558 -2.5663 -0.5577
15845TIP3    H268951   0.189   2.876  11.569  1.8510  0.3155 -0.4672
15846TIP3   OH268952   2.718   4.411  11.267  0.9337 -0.0518  0.1158
15846TIP3    H168953   2.758   4.357  11.199 -0.4901 -1.1887  0.1470
15846TIP3    H268954   2.741   4.368  11.349 -1.7299 -1.7692  0.0614
15847TIP3   OH268955   2.543   0.144  12.471 -0.0810  0.7201 -0.0640
15847TIP3    H168956   2.539   0.097  12.388 -0.6752  0.1081  0.2950
15847TIP3    H268957   2.555   0.235  12.446 -0.4768  0.5744 -0.8386
15848TIP3   OH268958   1.105   1.201   3.205  0.2723 -0.2319 -0.6063
15848TIP3    H168959   1.036   1.142   3.235  0.9380 -1.5546 -1.5584
15848TIP3    H268960   1.186   1.156   3.227  0.7888 -0.5904 -2.9450
15849TIP3   OH268961   4.581   0.154  12.324 -0.2468  0.4590 -0.1758
15849TIP3    H168962   4.559   0.232  12.274 -2.3733  0.4192  0.6069
15849TIP3    H268963   4.513   0.147  12.390  0.9561 -1.0140  0.9984
15850TIP3   OH268964   4.669   0.675   1.701 -0.1484 -0.0562 -0.5453
15850TIP3    H168965   4.601   0.680   1.634 -0.2271 -2.0891 -0.6874
15850TIP3    H268966   4.745   0.718   1.661 -0.9308  1.0260 -0.9080
15851TIP3   OH268967   5.142   5.608  13.435 -0.2968  0.2950  0.3997
15851TIP3    H168968   5.082   5.554  13.384 -0.0514  0.5540 -0.1740
15851TIP3    H268969   5.165   5.554  13.510 -1.5850  0.3586  0.8647
15852TIP3   OH268970   5.264   3.592  12.003 -0.2828 -0.0520  0.0341
15852TIP3    H168971   5.357   3.588  11.981  0.3623  1.4190  2.1594
15852TIP3    H268972   5.256   3.541  12.084 -1.3298 -0.1276 -0.0948
15853TIP3   OH268973   1.120   1.428   3.631 -0.3332  0.3844 -0.2084
15853TIP3    H168974   1.028   1.403   3.617 -0.2869  0.4808 -0.6870
15853TIP3    H268975   1.163   1.346   3.655 -0.3121  0.1186 -1.1327
15854TIP3   OH268976   5.022   1.651  12.974 -0.1560 -0.1160 -0.1786
15854TIP3    H168977   5.036   1.659  12.879 -1.6976 -0.2796 -0.4386
15854TIP3    H268978   5.034   1.739  13.007  0.8331 -0.1364 -0.4569
15855TIP3   OH268979   4.973   0.656   4.129  0.2002 -0.3787  0.3346
15855TIP3    H168980   4.916   0.646   4.053  0.1496  3.8123 -0.4280
15855TIP3    H268981   4.917   0.695   4.196  0.9408 -1.3830  1.6013
15856TIP3   OH268982   1.521   2.917   1.598  0.4283 -0.2901  0.1296
15856TIP3    H168983   1.429   2.918   1.570  0.2440  1.7764  0.6373
15856TIP3    H268984   1.529   2.837   1.650 -1.1289 -0.4692  0.1550
15857TIP3   OH268985   0.241   5.848   6.475 -0.2779  0.4864  0.0766
15857TIP3    H168986   0.183   5.799   6.417 -0.4921  0.6252  0.1723
15857TIP3    H268987   0.198   5.933   6.486 -0.3808  0.3629  0.6655
15858TIP3   OH268988   3.940   3.681   5.281 -0.2812 -0.3014  0.0803
15858TIP3    H168989   3.889   3.672   5.362 -0.3257  0.4034  0.1448
15858TIP3    H268990   3.894   3.748   5.231 -1.3179 -2.0396 -1.3996
15859TIP3   OH268991   1.146   1.796  11.007  0.5330 -0.3595  0.2166
15859TIP3    H168992   1.238   1.774  11.015  1.6351  3.0269 -0.9511
15859TIP3    H268993   1.124   1.774  10.916  1.3612  2.0054 -0.6514
15860TIP3   OH268994   5.400   5.963   4.826  0.6578  0.2686 -0.1717
15860TIP3    H168995   5.411   5.869   4.832  0.9292  0.2922 -0.2634
15860TIP3    H268996   5.489   5.998   4.828  0.5853  0.4890 -0.6538
15861TIP3   OH268997   3.180   0.987  13.471  0.3390  0.0550  0.3027
15861TIP3    H168998   3.180   1.050  13.543  2.0089 -0.2099  0.5638
15861TIP3    H268999   3.136   1.034  13.400 -2.6087 -0.1614  1.8204
15862TIP3   OH269000   1.667   3.695  14.311 -0.5780  0.0321  0.1687
15862TIP3    H169001   1.703   3.606  14.308 -0.5005 -0.0273  1.8429
15862TIP3    H269002   1.732   3.748  14.264  0.3729 -0.4971  0.8474
15863TIP3   OH269003   3.581   5.784  15.414  0.4835  0.3377  0.1102
15863TIP3    H169004   3.587   5.705  15.468  1.9267 -0.7723 -1.5418
15863TIP3    H269005   3.646   5.770  15.345  0.1999  2.6323 -0.7060
15864TIP3   OH269006   0.386   3.382   6.420 -0.1978  0.0378  0.4042
15864TIP3    H169007   0.413   3.317   6.355 -1.8982  0.6411 -0.9936
15864TIP3    H269008   0.377   3.333   6.502  0.1665 -1.1247 -0.2392
15865TIP3   OH269009   2.427   3.450  15.937  0.7379 -0.4658 -0.1181
15865TIP3    H169010   2.360   3.464  15.871  0.3088  2.0037  0.7071
15865TIP3    H269011   2.392   3.382  15.993 -0.2770 -0.4596 -0.7194
15866TIP3   OH269012   5.465   6.497   1.355 -0.1889  0.0914 -0.4668
15866TIP3    H169013   5.376   6.509   1.321 -0.5816 -1.6446 -0.1188
15866TIP3    H269014   5.466   6.408   1.390  1.6459  0.1387 -0.3075
15867TIP3   OH269015   3.341   6.701  12.372 -0.5730 -0.7187  0.1388
15867TIP3    H169016   3.345   6.774  12.310 -1.1198 -1.0190 -0.2614
15867TIP3    H269017   3.275   6.728  12.436 -0.1741 -0.5078  0.4665
15868TIP3   OH269018   1.434   0.638  11.283  0.3045 -0.1164 -0.0455
15868TIP3    H169019   1.488   0.697  11.336  2.0769 -0.5010 -1.3421
15868TIP3    H269020   1.491   0.563  11.265 -1.0463 -1.0612 -0.5842
15869TIP3   OH269021   3.017   3.995   5.234 -0.1441 -0.2402 -0.8692
15869TIP3    H169022   2.973   4.079   5.248  0.3684 -0.2165  0.8598
15869TIP3    H269023   3.047   3.999   5.143 -1.5281  0.7645 -1.3134
15870TIP3   OH269024   0.818   4.178   1.229  0.0062 -0.7099  0.1483
15870TIP3    H169025   0.805   4.220   1.314 -1.7603 -1.0254  0.0856
15870TIP3    H269026   0.732   4.183   1.187  1.3665  1.5990 -2.6702
15871TIP3   OH269027   5.510   0.663  10.622 -0.6893 -0.0160 -0.6106
15871TIP3    H169028   5.558   0.745  10.636 -0.3868 -0.3243  0.1627
15871TIP3    H269029   5.457   0.652  10.700  0.8108 -1.6055  0.2408
15872TIP3   OH269030   2.912   3.187  14.774 -0.3576 -0.0312 -0.3125
15872TIP3    H169031   2.862   3.259  14.734 -0.3754  0.3325  0.3601
15872TIP3    H269032   2.874   3.176  14.861 -0.3734 -0.8801 -0.4166
15873TIP3   OH269033   1.051   6.360  12.671  0.0962  0.0446 -0.2606
15873TIP3    H169034   0.984   6.426  12.653 -0.7556 -0.8433 -0.4219
15873TIP3    H269035   1.058   6.310  12.590 -1.0238 -1.5678  0.5733
15874TIP3   OH269036   0.650   3.097  15.487  0.0999 -0.0999  0.4943
15874TIP3    H169037   0.673   3.189  15.477  1.0722 -0.3442  0.3918
15874TIP3    H269038   0.679   3.074  15.575  1.9685 -0.8754 -0.2736
15875TIP3   OH269039   0.541   3.757  15.996  0.3015 -0.4272 -0.4439
15875TIP3    H169040   0.470   3.811  16.031 -0.4885 -1.0167 -1.0830
15875TIP3    H269041   0.580   3.810  15.927  0.9460  0.1776  0.3730
15876TIP3   OH269042   4.699   5.745   1.149  0.2407 -0.4097  0.2888
15876TIP3    H169043   4.753   5.764   1.225 -0.9503  1.1177  0.7941
15876TIP3    H269044   4.630   5.688   1.183 -1.5497  1.9991  0.9286
15877TIP3   OH269045   0.618   2.100   1.101  0.2059  0.8574 -0.7581
15877TIP3    H169046   0.604   2.064   1.014 -0.1752 -1.8684  0.3424
15877TIP3    H269047   0.706   2.072   1.125 -0.5034 -0.3783  0.5489
15878TIP3   OH269048   0.346   2.924   4.586  0.0391 -0.0266 -0.2838
15878TIP3    H169049   0.436   2.946   4.560  1.0675  1.3372  3.7302
15878TIP3    H269050   0.337   2.959   4.674 -3.9250 -1.6718  0.1792
15879TIP3   OH269051   4.771   4.478   3.201  0.6154  0.8995 -0.5644
15879TIP3    H169052   4.754   4.514   3.114  1.3108  0.5496 -0.8509
15879TIP3    H269053   4.787   4.555   3.256 -2.3186  1.3227 -0.1274
15880TIP3   OH269054   3.403   5.968  15.292  0.7312 -0.4662  0.3427
15880TIP3    H169055   3.467   5.907  15.329  0.7043 -0.1984  0.8449
15880TIP3    H269056   3.319   5.923  15.301  0.9111 -1.0942 -0.9167
15881TIP3   OH269057   0.569   4.382   3.668 -0.1563 -0.0550  0.4209
15881TIP3    H169058   0.481   4.414   3.645 -0.5683 -2.1183 -1.2114
15881TIP3    H269059   0.570   4.291   3.637  2.6359 -0.0405  0.2481
15882TIP3   OH269060   4.233   0.652   3.768 -0.1701 -0.3310 -0.3925
15882TIP3    H169061   4.204   0.561   3.767 -0.0872 -0.3747  0.4882
15882TIP3    H269062   4.193   0.691   3.690 -0.9056 -0.9138 -0.3164
15883TIP3   OH269063   5.439   2.339   6.005 -0.1394  0.8517  0.0936
15883TIP3    H169064   5.510   2.393   6.042 -0.4083  0.7533  0.7675
15883TIP3    H269065   5.389   2.399   5.950  1.1294  0.6692 -1.3276
15884TIP3   OH269066   5.505   2.277  10.881 -0.5561  0.1151  0.2256
15884TIP3    H169067   5.501   2.185  10.854 -0.2265 -0.6922  2.6544
15884TIP3    H269068   5.573   2.279  10.948 -0.4169  2.1916  0.0752
15885TIP3   OH269069   6.351   5.928   0.814 -0.2782 -0.2084  0.1859
15885TIP3    H169070   6.336   5.929   0.720 -1.6683 -1.2762  0.3554
15885TIP3    H269071   6.437   5.967   0.825 -0.7388  1.3901 -1.3797
15886TIP3   OH269072   3.638   1.167  14.139 -0.0664 -0.4671 -0.1961
15886TIP3    H169073   3.645   1.196  14.230 -0.1420 -2.4958  0.5088
15886TIP3    H269074   3.554   1.121  14.135  0.2750 -1.0313 -1.1183
15887TIP3   OH269075   2.604   3.155   2.682 -0.0382 -0.9386 -0.0331
15887TIP3    H169076   2.608   3.197   2.768  0.3191 -0.6893 -0.1667
15887TIP3    H269077   2.679   3.191   2.634 -0.5178 -0.7029 -0.6174
15888TIP3   OH269078   1.563   3.946   2.096 -0.0411 -0.0860 -0.4391
15888TIP3    H169079   1.471   3.971   2.088  0.3878  1.0481 -2.5093
15888TIP3    H269080   1.595   3.944   2.006  2.2093  0.5496  0.2948
15889TIP3   OH269081   4.670   3.229   4.378  0.0160 -0.3299 -0.1052
15889TIP3    H169082   4.626   3.176   4.311  0.2358 -2.9611  1.6815
15889TIP3    H269083   4.763   3.212   4.366  0.2118  0.8872 -0.4369
15890TIP3   OH269084   3.286   6.010  11.688  0.0675 -0.4982 -0.4872
15890TIP3    H169085   3.268   6.095  11.648 -0.0047 -0.5529 -0.5729
15890TIP3    H269086   3.219   5.952  11.651 -0.7529 -0.2921  0.5942
15891TIP3   OH269087   3.942   2.050  16.628 -0.3762  0.2500  0.0698
15891TIP3    H169088   3.895   2.043  16.545 -2.0018  0.9666  0.8867
15891TIP3    H269089   3.890   1.999  16.690  1.9341 -2.0701  0.2712
15892TIP3   OH269090   5.148   4.891   1.534 -0.2185 -0.2648 -0.5182
15892TIP3    H169091   5.127   4.875   1.626  1.3530  0.2026 -0.0459
15892TIP3    H269092   5.148   4.804   1.494  1.3406 -0.7431  0.4495
15893TIP3   OH269093   2.795   3.797  13.093  0.1601 -0.1655 -0.0361
15893TIP3    H169094   2.857   3.730  13.062  0.1487 -1.0125  1.6702
15893TIP3    H269095   2.846   3.878  13.090  0.9391 -0.6321  0.0936
15894TIP3   OH269096   5.685   2.357  14.670  0.0040  0.6800 -0.3027
15894TIP3    H169097   5.702   2.272  14.629  0.4880  0.4276  0.4021
15894TIP3    H269098   5.590   2.367  14.665 -0.0889 -0.0315 -0.1602
15895TIP3   OH269099   1.818   3.863  12.129 -0.5090 -0.2850 -0.1228
15895TIP3    H169100   1.858   3.806  12.195  0.9387 -1.5406 -1.9507
15895TIP3    H269101   1.742   3.901  12.172 -0.6153 -2.3782  1.7015
15896TIP3   OH269102   3.072   4.182   3.500  0.2372  0.1689 -0.2850
15896TIP3    H169103   3.143   4.201   3.439 -0.0048  0.6058 -0.4382
15896TIP3    H269104   2.993   4.212   3.455 -0.0603 -0.4335 -0.1689
15897TIP3   OH269105   1.799   0.816   5.015 -0.4063 -0.8727  0.4039
15897TIP3    H169106   1.742   0.763   5.071  0.0287 -1.4301  0.3207
15897TIP3    H269107   1.876   0.761   4.999  1.0942  0.5702  2.1291
15898TIP3   OH269108   2.807   4.976   2.464  0.2111 -0.2983 -0.0531
15898TIP3    H169109   2.796   4.902   2.524 -2.0176  0.8639  1.1049
15898TIP3    H269110   2.876   4.948   2.404  0.4614 -2.7130  1.2261
15899TIP3   OH269111   5.990   1.798  16.348  0.4194 -0.0763  0.4434
15899TIP3    H169112   5.955   1.737  16.413  0.5479 -0.3235  0.2807
15899TIP3    H269113   6.034   1.865  16.400  0.3844 -0.1878  0.6165
15900TIP3   OH269114   1.199   5.532   4.639  0.4286 -0.0789 -0.2470
15900TIP3    H169115   1.215   5.559   4.729 -0.8838 -1.8298  0.5704
15900TIP3    H269116   1.249   5.594   4.586  0.7935  1.3293  1.6438
15901TIP3   OH269117   0.123   1.829  14.192 -0.4807  0.0065  0.0971
15901TIP3    H169118   0.045   1.794  14.234 -0.5571  0.7980  0.6439
15901TIP3    H269119   0.114   1.805  14.100 -0.8136 -0.8712  0.3484
15902TIP3   OH269120   3.518   3.226  16.380 -0.5022 -0.4383 -0.0384
15902TIP3    H169121   3.563   3.150  16.417 -0.2530 -0.2879 -0.0302
15902TIP3    H269122   3.425   3.204  16.387 -0.5339  0.1612  1.9809
15903TIP3   OH269123   3.451   5.801  11.883  0.5566  0.2335 -0.2272
15903TIP3    H169124   3.369   5.818  11.836  0.4773 -0.8264 -0.4989
15903TIP3    H269125   3.437   5.715  11.924  0.7813  0.9599  1.4121
15904TIP3   OH269126   1.223   6.080  11.174 -0.0490 -0.1404 -0.7699
15904TIP3    H169127   1.312   6.062  11.205 -0.2975  0.2809  0.2200
15904TIP3    H269128   1.178   5.995  11.181  0.6652 -0.7251 -2.7207
15905TIP3   OH269129   6.007   0.555   6.084  0.1024 -0.2155 -0.3042
15905TIP3    H169130   6.013   0.635   6.031 -0.2071 -1.0673 -1.6448
15905TIP3    H269131   6.042   0.581   6.169  1.1090  1.0361 -1.0697
15906TIP3   OH269132   4.178   0.351  17.131  0.7609  0.3546  0.2135
15906TIP3    H169133   4.116   0.366  17.202  0.1947 -1.1825  0.0764
15906TIP3    H269134   4.263   0.343  17.174  0.0809 -3.4905  1.1603
15907TIP3   OH269135   5.416   2.423   1.481 -0.3712 -0.4148 -0.1772
15907TIP3    H169136   5.346   2.360   1.463  0.3856 -1.6442  0.9459
15907TIP3    H269137   5.442   2.404   1.571  0.0713  1.3602  0.1076
15908TIP3   OH269138   3.200   1.491  15.509 -0.9634  0.7842  0.1124
15908TIP3    H169139   3.269   1.449  15.561 -1.7501 -0.0768  0.4927
15908TIP3    H269140   3.190   1.578  15.548 -0.4822  0.7098  0.4123
15909TIP3   OH269141   6.676   3.318  11.278 -0.1394 -0.3860 -0.6617
15909TIP3    H169142   6.595   3.276  11.250 -1.1919  0.2495  1.2403
15909TIP3    H269143   6.649   3.403  11.312  1.3579 -0.0481 -0.2198
15910TIP3   OH269144   6.155   5.323   5.735 -0.2916 -0.7505 -0.0212
15910TIP3    H169145   6.074   5.275   5.720 -0.0720 -1.3076  0.5294
15910TIP3    H269146   6.147   5.354   5.826 -1.3599  2.0657 -0.9399
15911TIP3   OH269147   6.059   4.867  13.048 -0.2563 -0.2939  0.1030
15911TIP3    H169148   5.972   4.892  13.078 -0.6635 -0.2157 -1.1048
15911TIP3    H269149   6.105   4.842  13.128 -0.6181  1.8773  1.0555
15912TIP3   OH269150   2.338   0.533   1.856  0.2490  0.6036 -0.3968
15912TIP3    H169151   2.405   0.570   1.799  0.4715 -0.9732 -1.2108
15912TIP3    H269152   2.262   0.521   1.799  0.8191 -2.0150 -0.7335
15913TIP3   OH269153   0.587   6.335   4.974  0.3964  0.4061 -0.2249
15913TIP3    H169154   0.544   6.293   4.900  1.3122 -0.5798 -0.2209
15913TIP3    H269155   0.616   6.420   4.940  2.2397 -0.6681 -1.5292
15914TIP3   OH269156   2.719   6.641   4.858 -0.5272 -0.5356  0.0458
15914TIP3    H169157   2.737   6.584   4.933 -0.3915 -0.8163 -0.1948
15914TIP3    H269158   2.711   6.728   4.896 -2.0173 -0.8830  0.5847
15915TIP3   OH269159   5.956   6.406   4.488 -0.0433  0.1608  0.2418
15915TIP3    H169160   6.005   6.399   4.570 -0.4228 -0.2417  0.4367
15915TIP3    H269161   5.941   6.500   4.476  0.3079  0.2436  0.4570
15916TIP3   OH269162   5.131   4.319  11.670 -0.4133 -0.5739  0.2748
15916TIP3    H169163   5.108   4.280  11.585  0.1757 -0.8735  0.2431
15916TIP3    H269164   5.190   4.254  11.710  0.7441  0.3605  0.1448
15917TIP3   OH269165   0.070   2.575   0.193 -0.0014  0.4950  0.4111
15917TIP3    H169166   0.164   2.589   0.193 -0.0432  0.8706  1.1711
15917TIP3    H269167   0.059   2.480   0.197  0.3228  0.3675 -1.2029
15918TIP3   OH269168   5.335   5.299   0.311  0.1450  0.2178 -0.2561
15918TIP3    H169169   5.394   5.227   0.288  1.6330  0.6421  1.9516
15918TIP3    H269170   5.296   5.325   0.227  2.7669 -0.3621 -1.7744
15919TIP3   OH269171   1.318   0.718  14.212  0.5141 -0.7469  0.0167
15919TIP3    H169172   1.309   0.684  14.301  0.3282 -1.5319 -0.2917
15919TIP3    H269173   1.397   0.675  14.178  1.5121  0.7607  0.3278
15920TIP3   OH269174   4.210   5.571   5.678 -0.3503 -0.0647 -0.0563
15920TIP3    H169175   4.277   5.504   5.686 -0.6247 -0.5191 -1.4048
15920TIP3    H269176   4.208   5.613   5.764 -0.9944 -2.5427  1.2124
15921TIP3   OH269177   5.611   0.076   2.149 -0.0700 -0.0371 -0.1117
15921TIP3    H169178   5.642   0.056   2.060  2.0249 -1.4045  0.8588
15921TIP3    H269179   5.630   0.168   2.161  1.2252 -0.2435 -0.5000
15922TIP3   OH269180   3.270   6.537  11.736 -0.0585  0.1799  0.6471
15922TIP3    H169181   3.267   6.614  11.678  0.2198 -0.6420 -0.4998
15922TIP3    H269182   3.179   6.520  11.759 -0.1415  0.7148  0.7262
15923TIP3   OH269183   5.861   6.713   1.381  0.6762 -0.0339  0.3604
15923TIP3    H169184   5.779   6.757   1.403 -0.1444 -0.9532 -0.7421
15923TIP3    H269185   5.929   6.780   1.395 -0.3185  0.9457  0.6371
15924TIP3   OH269186   4.292   1.820  15.642 -0.5801  0.1063 -0.2654
15924TIP3    H169187   4.339   1.762  15.703 -1.6663 -0.3665  0.1518
15924TIP3    H269188   4.231   1.868  15.698 -0.4772  0.8460 -0.7752
15925TIP3   OH269189   5.499   0.412  15.834 -0.1930  0.2906 -0.0409
15925TIP3    H169190   5.443   0.375  15.766  0.4105  0.4311 -0.6241
15925TIP3    H269191   5.511   0.340  15.896 -0.7737  0.1705 -0.0608
15926TIP3   OH269192   4.445   3.454  16.512 -0.2759 -0.3259  0.4738
15926TIP3    H169193   4.445   3.360  16.496 -0.9373 -0.3955  0.8645
15926TIP3    H269194   4.475   3.464  16.602  1.1318 -0.0699  0.0064
15927TIP3   OH269195   0.679   3.509   1.656 -0.5690 -0.1473  0.4249
15927TIP3    H169196   0.659   3.438   1.716 -0.8870 -0.4148  0.0054
15927TIP3    H269197   0.775   3.515   1.657 -0.5496 -0.4911  0.5636
15928TIP3   OH269198   2.517   0.516   2.290  0.7514 -0.3588  0.0508
15928TIP3    H169199   2.459   0.568   2.234  0.6385  0.8125  1.2134
15928TIP3    H269200   2.458   0.474   2.353  1.0133 -0.5692  0.1583
15929TIP3   OH269201   5.548   0.038   5.636 -0.0605  0.1177  0.2168
15929TIP3    H169202   5.555  -0.057   5.641  0.2820  0.1417  0.1828
15929TIP3    H269203   5.638   0.069   5.630 -0.1782  0.4333  0.0341
15930TIP3   OH269204   0.868   0.803   5.564  0.3147  0.0827  0.1146
15930TIP3    H169205   0.791   0.747   5.573 -0.1613  0.3948 -1.5652
15930TIP3    H269206   0.838   0.890   5.592  0.0155  0.2114 -0.5695
15931TIP3   OH269207   2.570   1.527  13.258 -0.3466 -0.8246  0.3611
15931TIP3    H169208   2.626   1.568  13.324 -0.6148  1.5037 -0.7430
15931TIP3    H269209   2.582   1.433  13.271 -0.7893 -0.5485  4.0549
15932TIP3   OH269210   3.761   0.596   1.322  0.4331  0.3340 -0.2560
15932TIP3    H169211   3.854   0.575   1.332  0.9607  1.6000 -1.9590
15932TIP3    H269212   3.722   0.573   1.406  2.7352  2.0199  1.4272
15933TIP3   OH269213   6.297   1.793  13.866  0.4270 -0.1321  0.6555
15933TIP3    H169214   6.375   1.819  13.916  0.3145  0.3450  0.5930
15933TIP3    H269215   6.311   1.830  13.779  0.4325 -0.6102  0.4511
15934TIP3   OH269216   6.274   1.153  12.692 -0.0636  0.0751  0.1018
15934TIP3    H169217   6.201   1.144  12.631 -1.3019 -0.4635  1.5902
15934TIP3    H269218   6.348   1.110  12.649 -0.6193  0.6014 -1.4239
15935TIP3   OH269219   1.161   1.437  14.941  0.1732  0.4784 -0.1133
15935TIP3    H169220   1.222   1.482  14.999  0.8765 -0.3436 -0.1923
15935TIP3    H269221   1.205   1.437  14.856 -0.2268  0.4515 -0.3222
15936TIP3   OH269222   2.066   1.326   1.458 -0.5477 -0.5932 -0.1287
15936TIP3    H169223   2.074   1.247   1.405 -1.0918 -1.5008  1.1098
15936TIP3    H269224   1.977   1.322   1.493 -0.3416  0.2148  0.5036
15937TIP3   OH269225   2.020   0.653  16.307  0.4279 -0.2515 -0.0543
15937TIP3    H169226   1.999   0.690  16.222  3.0057 -0.6759 -0.9606
15937TIP3    H269227   2.097   0.702  16.337  0.5064 -1.1383  1.2923
15938TIP3   OH269228   2.767   2.399   1.773  0.2704  0.2148  0.2782
15938TIP3    H169229   2.834   2.463   1.796  0.8259 -1.1276  2.7412
15938TIP3    H269230   2.814   2.317   1.762 -0.7678 -0.3718  0.0414
15939TIP3   OH269231   6.460   4.498   1.557  0.2936  0.1638  0.0532
15939TIP3    H169232   6.389   4.445   1.521  0.4213 -0.4522  0.6864
15939TIP3    H269233   6.424   4.586   1.564 -0.5946 -0.2476  0.8814
15940TIP3   OH269234   2.025   0.471   2.504 -0.4974 -0.2674 -0.0238
15940TIP3    H169235   2.120   0.476   2.504 -0.5269  2.5321  2.0019
15940TIP3    H269236   1.999   0.509   2.420  0.1819  1.1222  0.3690
15941TIP3   OH269237   3.067   6.462   0.651 -0.1187 -0.3751 -0.1591
15941TIP3    H169238   2.985   6.441   0.696 -0.7662  0.0388 -1.0993
15941TIP3    H269239   3.124   6.388   0.668 -0.8348 -0.8620  0.1647
15942TIP3   OH269240   6.313   3.923   4.707  0.1132  0.3120  0.3608
15942TIP3    H169241   6.310   3.841   4.659  2.4268  0.7077 -0.6215
15942TIP3    H269242   6.223   3.939   4.735 -0.4826 -2.2568  0.1201
15943TIP3   OH269243   6.520   0.787  11.667 -0.0900 -0.6022  0.3119
15943TIP3    H169244   6.494   0.741  11.747 -1.2750  0.7143  0.7375
15943TIP3    H269245   6.599   0.836  11.691 -0.8227  0.3241  0.9170
15944TIP3   OH269246   2.871   2.037  15.758  0.0777  0.3158 -0.1454
15944TIP3    H169247   2.933   2.108  15.775 -0.5861  0.3473  2.4540
15944TIP3    H269248   2.788   2.082  15.741 -0.0432  0.1779  0.0945
15945TIP3   OH269249   3.716   0.755  13.483  0.0020 -0.1510 -0.3722
15945TIP3    H169250   3.800   0.787  13.516 -0.4961  0.2152  0.5760
15945TIP3    H269251   3.661   0.747  13.561 -1.1926  0.6653 -1.0960
15946TIP3   OH269252   6.699   6.098   1.261  0.7653  0.1869 -0.2665
15946TIP3    H169253   6.628   6.150   1.223  1.3014 -0.1774 -1.8338
15946TIP3    H269254   6.686   6.010   1.226  2.6707  0.3819 -1.6386
15947TIP3   OH269255   4.743   4.634   0.049  0.1718 -0.3112 -0.6066
15947TIP3    H169256   4.778   4.637   0.138 -2.7633 -1.3542  0.7387
15947TIP3    H269257   4.797   4.570   0.003  0.2872 -1.5642  1.1900
15948TIP3   OH269258   4.337   6.642  16.860 -0.1905  0.0007  0.2306
15948TIP3    H169259   4.318   6.708  16.927  0.0371 -1.0407  1.3677
15948TIP3    H269260   4.417   6.599  16.891 -0.4816 -0.9771 -0.3278
15949TIP3   OH269261   1.586   2.788   4.083  0.1989 -0.0578 -0.1089
15949TIP3    H169262   1.664   2.827   4.123  0.6855 -0.4885 -0.6022
15949TIP3    H269263   1.589   2.819   3.992  0.4271 -0.9854 -0.4257
15950TIP3   OH269264   4.774   6.305  11.647 -0.4226 -0.1208 -0.3143
15950TIP3    H169265   4.767   6.304  11.552 -1.6969  0.0896 -0.2336
15950TIP3    H269266   4.798   6.395  11.669 -0.4834 -0.0820 -0.4090
15951TIP3   OH269267   6.192   5.309   0.612 -0.3347 -0.0876 -0.4797
15951TIP3    H169268   6.182   5.390   0.562 -1.3397  1.3750  1.8503
15951TIP3    H269269   6.120   5.254   0.582 -1.7364  1.2834  0.1932
15952TIP3   OH269270   1.940   5.668   6.020  0.1143 -0.4030 -0.1497
15952TIP3    H169271   1.878   5.714   5.964  1.0225 -0.9894 -1.6931
15952TIP3    H269272   1.894   5.657   6.103 -1.4026  0.1748 -0.8831
15953TIP3   OH269273   0.885   6.435  16.712  0.2074 -0.2414 -0.2070
15953TIP3    H169274   0.978   6.444  16.736  0.7030  0.8829 -2.3137
15953TIP3    H269275   0.849   6.377  16.779  2.3274 -0.3617  0.9277
15954TIP3   OH269276   5.983   0.777  12.265 -0.1031  0.3088  0.2817
15954TIP3    H169277   6.065   0.816  12.295  0.7988 -0.7545 -0.7284
15954TIP3    H269278   5.997   0.760  12.172 -1.2507 -0.4700  0.2342
15955TIP3   OH269279   4.488   5.866   4.559  0.4237 -0.3506  0.5386
15955TIP3    H169280   4.418   5.843   4.620 -0.0981 -0.1557  0.0177
15955TIP3    H269281   4.508   5.958   4.578  1.6389 -0.8297  1.7580
15956TIP3   OH269282   2.070   3.153  16.505 -0.4163 -0.0257 -0.0649
15956TIP3    H169283   2.060   3.111  16.591  0.5179  0.0394  0.0885
15956TIP3    H269284   2.062   3.081  16.442 -3.6283  0.2433 -0.1296
15957TIP3   OH269285   5.623   5.868   2.982 -0.5640  0.0822 -0.8605
15957TIP3    H169286   5.694   5.805   2.993  0.3836  1.0963 -0.9837
15957TIP3    H269287   5.594   5.887   3.071  0.0944  0.5152 -0.7315
15958TIP3   OH269288   5.592   1.933   3.642  0.0972 -0.0766 -0.6904
15958TIP3    H169289   5.669   1.904   3.691  0.2421 -0.5636 -1.2059
15958TIP3    H269290   5.557   2.006   3.695  0.1985 -0.6404  0.1822
15959TIP3   OH269291   1.477   5.223   5.786  0.3131  0.4801 -0.2915
15959TIP3    H169292   1.474   5.317   5.803  0.6009  0.2021  1.5887
15959TIP3    H269293   1.431   5.211   5.703 -2.6173  1.9519  0.9865
15960TIP3   OH269294   0.705   1.260  12.993  0.6033 -0.0071  0.5689
15960TIP3    H169295   0.637   1.229  12.933  0.9402  1.1232 -0.4381
15960TIP3    H269296   0.657   1.303  13.064  0.2341 -0.2464  0.4666
15961TIP3   OH269297   3.084   1.860  15.743 -0.7203 -0.0091  0.2277
15961TIP3    H169298   3.005   1.900  15.781  0.5590  2.8196  0.1346
15961TIP3    H269299   3.093   1.902  15.658  0.6997 -0.5651  0.0891
15962TIP3   OH269300   6.683   4.262   4.126  0.1353 -0.2167 -0.1975
15962TIP3    H169301   6.647   4.196   4.067  0.3889 -1.2719  0.8028
15962TIP3    H269302   6.714   4.331   4.068  0.2858 -1.1816 -1.2995
15963TIP3   OH269303   2.615   5.034  10.672 -0.2987  0.2351  0.7958
15963TIP3    H169304   2.656   5.118  10.651  1.0385 -0.6814 -0.4059
15963TIP3    H269305   2.668   4.999  10.744  0.1209 -0.2819  0.2377
15964TIP3   OH269306   5.561   6.639   0.989  0.3600 -0.0853 -0.3440
15964TIP3    H169307   5.465   6.640   0.988  0.3493  0.3191  0.1685
15964TIP3    H269308   5.584   6.573   1.054  0.3869  1.0454  0.8495
15965TIP3   OH269309   1.143   3.995   1.756  0.0751  0.6226 -0.2313
15965TIP3    H169310   1.157   4.090   1.759  2.0771  0.3411  0.3681
15965TIP3    H269311   1.080   3.978   1.826  0.8971  1.3277  0.6895
15966TIP3   OH269312   1.474   6.166   3.053  0.7218 -0.3606 -0.5147
15966TIP3    H169313   1.402   6.212   3.010  2.5108  0.8444 -2.4078
15966TIP3    H269314   1.502   6.227   3.121  1.1165 -0.0104 -0.9875
15967TIP3   OH269315   2.128   4.314  12.784  0.2525  0.7122 -0.1789
15967TIP3    H169316   2.165   4.305  12.696 -0.0995 -1.0308 -0.1986
15967TIP3    H269317   2.196   4.281  12.842 -0.1079  0.3491  0.0450
15968TIP3   OH269318   0.037   1.467  14.057 -0.2610 -0.1108  0.5504
15968TIP3    H169319   0.087   1.416  14.121 -0.4909 -0.3905  0.5118
15968TIP3    H269320  -0.049   1.426  14.056 -1.4172  2.0464  2.6578
15969TIP3   OH269321   5.865   0.243  17.271  0.6772  0.4560 -0.3779
15969TIP3    H169322   5.898   0.173  17.327  0.2057 -0.0529 -0.7198
15969TIP3    H269323   5.940   0.300  17.256  0.7206  0.8284  1.1050
15970TIP3   OH269324   1.259   0.069  16.859 -0.3497  0.1438  0.8998
15970TIP3    H169325   1.189   0.034  16.914 -1.6842  0.9581 -0.2252
15970TIP3    H269326   1.289   0.147  16.905  0.2698 -0.5348  1.6844
15971TIP3   OH269327   3.491   6.658  14.501 -0.4097 -0.6128 -0.3594
15971TIP3    H169328   3.456   6.747  14.496 -0.7414 -0.7228 -0.0396
15971TIP3    H269329   3.585   6.668  14.486 -0.0143  0.1183  2.2026
15972TIP3   OH269330   5.692   2.950  11.326  0.0439  0.2999 -0.4796
15972TIP3    H169331   5.596   2.951  11.331 -0.1129  0.7631 -2.6999
15972TIP3    H269332   5.711   2.906  11.243  1.7308  1.1327 -0.5662
15973TIP3   OH269333   6.001   1.358  15.969  0.2355 -0.6096  0.0443
15973TIP3    H169334   6.000   1.361  16.064  0.6797 -0.0035  0.0351
15973TIP3    H269335   5.944   1.430  15.942  0.1563 -0.7434 -0.1461
15974TIP3   OH269336   0.184   1.062  10.879  0.2264  0.2004  0.0153
15974TIP3    H169337   0.220   0.975  10.860 -0.3608  0.3176 -1.8204
15974TIP3    H269338   0.248   1.123  10.842 -1.4261  0.4191 -2.6967
15975TIP3   OH269339   5.507   1.715   4.754 -0.1095  0.2156  0.3378
15975TIP3    H169340   5.431   1.697   4.809  1.0949 -0.9374  1.7221
15975TIP3    H269341   5.493   1.804   4.721 -0.6022  1.2493  3.0768
15976TIP3   OH269342   4.868   0.959  14.978  0.6442  0.0450 -0.3143
15976TIP3    H169343   4.818   0.921  14.905 -2.7601  1.1106  1.2666
15976TIP3    H269344   4.939   0.897  14.993 -0.7795 -2.1991 -2.0838
15977TIP3   OH269345   2.621   2.441  17.023 -0.2819  0.0282  0.5818
15977TIP3    H169346   2.684   2.373  17.050  0.8690  0.9464  0.2757
15977TIP3    H269347   2.649   2.519  17.069 -1.8401  0.2288  1.2269
15978TIP3   OH269348   6.368   1.289  15.985  0.5165  0.5178  0.9123
15978TIP3    H169349   6.402   1.361  15.931  0.9944  0.4236  1.0814
15978TIP3    H269350   6.348   1.330  16.069 -2.1796  1.1165  0.0904
15979TIP3   OH269351   1.911   0.258  11.808 -0.1551 -0.2743  0.3885
15979TIP3    H169352   1.894   0.319  11.736  1.4585 -0.4782 -0.2021
15979TIP3    H269353   1.983   0.203  11.777 -0.8576 -1.7990  1.3240
15980TIP3   OH269354   5.022   2.886  13.633 -0.0232  0.3033  0.4675
15980TIP3    H169355   4.970   2.839  13.699  3.2889 -1.9138  1.8000
15980TIP3    H269356   5.075   2.947  13.684  0.2228  0.9638 -0.5622
15981TIP3   OH269357   3.456   6.640   4.030 -0.6016  0.0219 -0.5219
15981TIP3    H169358   3.497   6.655   4.115  1.0892 -3.1292 -0.6379
15981TIP3    H269359   3.382   6.582   4.050  0.3532 -1.5027 -1.1993
15982TIP3   OH269360   2.399   6.490  13.839  0.1238  0.4409  0.7897
15982TIP3    H169361   2.478   6.448  13.873  2.1701  2.5966 -0.9834
15982TIP3    H269362   2.362   6.536  13.915  2.5980  2.2439  1.0291
15983TIP3   OH269363   5.648   2.396   3.009  0.4328  0.6040 -0.4445
15983TIP3    H169364   5.596   2.321   2.981  0.3019 -0.1910  1.7248
15983TIP3    H269365   5.590   2.445   3.067  1.0615  1.4914 -0.5450
15984TIP3   OH269366   4.371   1.128   0.625 -0.4356  0.0031 -0.2393
15984TIP3    H169367   4.322   1.078   0.692  0.1658 -1.2786 -0.7216
15984TIP3    H269368   4.462   1.103   0.640 -0.1005  1.1036 -0.4090
15985TIP3   OH269369   1.652   0.096  14.699 -0.1504 -0.0957  0.0105
15985TIP3    H169370   1.590   0.055  14.639  0.4238 -0.1567 -0.5479
15985TIP3    H269371   1.737   0.058  14.676 -0.0637 -0.9537  1.5932
15986TIP3   OH269372   3.918   3.652  12.718  0.0778  0.4333 -0.1952
15986TIP3    H169373   3.835   3.614  12.748 -0.7543  1.6530 -0.8028
15986TIP3    H269374   3.956   3.692  12.796 -0.0310  0.0764  0.0422
15987TIP3   OH269375   1.039   3.965  10.700 -0.0099  0.4173 -0.7922
15987TIP3    H169376   1.130   3.985  10.680  0.8600 -2.0341  0.3369
15987TIP3    H269377   1.018   3.889  10.647 -0.3408 -0.9735  1.2320
15988TIP3   OH269378   6.254   0.592  15.571  0.0541  0.2333  0.3402
15988TIP3    H169379   6.196   0.620  15.642  0.7070  1.7095  0.3110
15988TIP3    H269380   6.195   0.552  15.507 -0.8466  1.0164  0.6598
15989TIP3   OH269381   2.643   5.697  16.400 -0.8135  0.0724 -0.1764
15989TIP3    H169382   2.637   5.792  16.392  0.3378  0.6182  3.4898
15989TIP3    H269383   2.735   5.677  16.383 -1.2943 -0.6427 -2.2018
15990TIP3   OH269384   2.860   2.028   4.650 -0.5806 -0.1620 -0.1284
15990TIP3    H169385   2.814   1.992   4.726  0.4871  1.5076  1.3843
15990TIP3    H269386   2.890   2.114   4.679 -0.0644  0.4921 -2.4431
15991TIP3   OH269387   5.067   1.824   0.231  0.1046  0.3089  1.0800
15991TIP3    H169388   5.073   1.735   0.198  2.9374  0.3272  1.2674
15991TIP3    H269389   4.973   1.841   0.239 -0.6126 -1.5185 -1.8893
15992TIP3   OH269390   4.422   0.856   5.993  0.1059  0.2208  0.3498
15992TIP3    H169391   4.333   0.842   5.960 -0.0612  0.3722  0.7340
15992TIP3    H269392   4.478   0.846   5.916 -0.2953  0.7397 -0.0177
15993TIP3   OH269393   2.896   2.084  16.882  0.1194 -0.3178 -0.2418
15993TIP3    H169394   2.930   2.173  16.885  0.8664 -0.6139  0.2803
15993TIP3    H269395   2.958   2.032  16.933 -0.7035 -1.0090  0.0880
15994TIP3   OH269396   6.178   5.056  14.296 -0.1632 -0.6644 -0.1798
15994TIP3    H169397   6.088   5.046  14.265 -1.2337  1.2162  1.9901
15994TIP3    H269398   6.215   4.968  14.292 -1.1617 -1.0598 -3.5672
15995TIP3   OH269399   0.677   0.655   0.636  0.4183  1.0519 -0.0606
15995TIP3    H169400   0.667   0.579   0.694 -0.5028  1.1763 -0.0324
15995TIP3    H269401   0.602   0.649   0.577  0.2075  2.0669  0.0941
15996TIP3   OH269402   1.714   5.367  16.786  0.3055 -0.2552 -0.4370
15996TIP3    H169403   1.665   5.441  16.751 -2.5768 -1.5658  0.4794
15996TIP3    H269404   1.787   5.356  16.725 -0.3845  1.9710 -1.8119
15997TIP3   OH269405   1.516   1.199  16.476 -0.0147 -0.0955  0.5914
15997TIP3    H169406   1.527   1.262  16.405 -0.5013  0.5861  1.1109
15997TIP3    H269407   1.597   1.206  16.527  1.0570 -1.7395 -0.7509
15998TIP3   OH269408   0.394   1.193  14.938 -0.3107  0.1933  0.2086
15998TIP3    H169409   0.356   1.265  14.988 -1.5661  1.0292 -1.7993
15998TIP3    H269410   0.488   1.200  14.952 -0.5275  1.3132  1.1971
15999TIP3   OH269411   4.013   5.604  15.596  0.3025 -0.1084 -0.1028
15999TIP3    H169412   4.023   5.547  15.673  2.7101  0.1562 -0.1388
15999TIP3    H269413   3.989   5.545  15.525 -1.0202 -0.4926  0.6368
16000TIP3   OH269414   3.890   4.323   5.714 -0.4600 -0.4817  0.3918
16000TIP3    H169415   3.893   4.258   5.785 -0.5246 -0.5101  0.3692
16000TIP3    H269416   3.981   4.338   5.691 -0.4811 -2.2277 -1.1126
16001TIP3   OH269417   2.321   0.603  10.641 -0.3850  0.3459 -0.0052
16001TIP3    H169418   2.410   0.580  10.618 -0.7255 -0.9482 -0.0732
16001TIP3    H269419   2.266   0.539  10.596 -1.2771  0.2664  1.1399
16002TIP3   OH269420   3.572   1.778   1.138 -0.5639  0.4715 -0.3468
16002TIP3    H169421   3.490   1.761   1.093 -0.2886  0.6525 -0.9314
16002TIP3    H269422   3.563   1.867   1.172 -0.0311  1.0824 -1.7420
16003TIP3   OH269423   1.162   0.334   0.530 -0.4568 -0.2635 -0.1752
16003TIP3    H169424   1.231   0.293   0.583 -1.3395 -1.7290 -0.1014
16003TIP3    H269425   1.114   0.390   0.591  1.1167  1.3990 -0.3969
16004TIP3   OH269426   2.423   5.543   2.533 -0.1355 -0.1476 -0.5469
16004TIP3    H169427   2.484   5.574   2.466  0.3715  2.0481  0.8192
16004TIP3    H269428   2.479   5.510   2.603 -0.6622 -2.7674 -1.2606
16005TIP3   OH269429   0.157   5.661  16.512 -1.0531 -0.1149  0.1625
16005TIP3    H169430   0.151   5.565  16.509 -1.7969 -0.1185  1.1203
16005TIP3    H269431   0.250   5.680  16.507 -0.8950 -0.8893  0.0070
16006TIP3   OH269432   4.830   3.985   5.599 -0.1532  0.0653 -0.0029
16006TIP3    H169433   4.767   4.025   5.539 -0.2576 -1.1782 -0.7840
16006TIP3    H269434   4.790   3.901   5.622  1.1785 -0.7377 -0.4826
16007TIP3   OH269435   2.633   1.297   1.043 -0.8620 -0.0130 -0.0758
16007TIP3    H169436   2.589   1.361   0.988  0.9736  1.8783  0.5416
16007TIP3    H269437   2.606   1.317   1.132 -0.3371 -0.1343  0.1180
16008TIP3   OH269438   1.730   5.786   5.258 -0.0082 -1.0903 -0.6619
16008TIP3    H169439   1.745   5.772   5.164  1.8429  0.5488 -0.6628
16008TIP3    H269440   1.802   5.739   5.301  1.7078  1.6088 -0.3388
16009TIP3   OH269441   5.378   3.245  12.103  0.0419  0.0113  0.2360
16009TIP3    H169442   5.432   3.317  12.071  0.9351 -0.4087  0.7556
16009TIP3    H269443   5.328   3.282  12.175 -1.7211  0.8720 -1.3274
16010TIP3   OH269444   3.206   1.136   0.289  0.5907 -0.2375 -0.0469
16010TIP3    H169445   3.166   1.082   0.221 -1.2648 -1.2487  1.7308
16010TIP3    H269446   3.132   1.167   0.342  1.9114  0.9034  1.2182
16011TIP3   OH269447   5.043   1.859   1.805  0.2739  0.2134  0.0161
16011TIP3    H169448   5.137   1.872   1.823  0.3435  0.0230 -0.2116
16011TIP3    H269449   5.024   1.772   1.841 -0.2184  0.9441  1.6463
16012TIP3   OH269450   4.794   0.287  16.615  0.0411  0.0651 -0.7514
16012TIP3    H169451   4.743   0.335  16.681  1.0927 -1.0074  0.9148
16012TIP3    H269452   4.788   0.195  16.642 -0.3353 -0.5511 -2.7681
16013TIP3   OH269453   4.770   0.385  11.339  0.0115  0.6155  0.0234
16013TIP3    H169454   4.676   0.402  11.348  0.3172  3.3108 -0.8196
16013TIP3    H269455   4.789   0.399  11.246  1.4578  1.5456  0.4187
16014TIP3   OH269456   4.164   3.677  14.749 -0.2217 -0.2114 -0.7217
16014TIP3    H169457   4.106   3.625  14.694  1.6952 -2.4140 -0.7981
16014TIP3    H269458   4.249   3.676  14.704  0.7168  0.1882  0.9281
16015TIP3   OH269459   3.829   3.000  11.094  0.0110  0.2453 -0.1892
16015TIP3    H169460   3.821   2.914  11.135 -1.4208  0.6632  0.4578
16015TIP3    H269461   3.777   2.992  11.013  0.6653  0.2234 -0.6147
16016TIP3   OH269462   1.418   2.005  15.509  0.1964 -0.0447 -0.1429
16016TIP3    H169463   1.351   2.017  15.442  0.0438  0.0469  0.0247
16016TIP3    H269464   1.410   2.082  15.565  1.4305  0.7239 -0.9674
16017TIP3   OH269465   5.963   5.709   1.636 -0.4470 -0.0310  0.1976
16017TIP3    H169466   5.956   5.770   1.709  1.4429  2.1334 -1.2909
16017TIP3    H269467   5.892   5.734   1.577 -1.2693 -1.0285  0.7408
16018TIP3   OH269468   0.139   3.011   3.622 -0.3944  0.3047  0.8978
16018TIP3    H169469   0.102   3.019   3.534  2.1353  2.0805 -0.1107
16018TIP3    H269470   0.174   2.922   3.625  1.8641  1.0277 -0.9957
16019TIP3   OH269471   5.885   5.479  15.007 -0.2445  0.1798 -0.6634
16019TIP3    H169472   5.899   5.397  15.054 -0.1274 -0.7934 -2.3256
16019TIP3    H269473   5.801   5.511  15.040 -0.6327 -0.9755 -0.4869
16020TIP3   OH269474   3.383   6.192  17.170 -0.1124  0.3284  0.3398
16020TIP3    H169475   3.341   6.129  17.228  0.2025  0.2304  0.4678
16020TIP3    H269476   3.432   6.139  17.107 -1.6653  0.3895 -0.9857
16021TIP3   OH269477   3.268   1.729  11.714  0.2307  0.4219 -0.0426
16021TIP3    H169478   3.201   1.798  11.710 -0.1399  0.0762  0.1096
16021TIP3    H269479   3.341   1.764  11.663  1.1005  2.0185  2.1398
16022TIP3   OH269480   3.638   2.881  13.661  0.3918  0.0444 -0.0107
16022TIP3    H169481   3.634   2.791  13.693  0.3962 -0.1293 -0.4931
16022TIP3    H269482   3.597   2.878  13.575  2.8279 -0.0411 -1.2442
16023TIP3   OH269483   2.095   5.186   1.243 -0.4089 -0.7980 -0.4174
16023TIP3    H169484   2.024   5.130   1.215 -0.6464 -0.5089 -0.3947
16023TIP3    H269485   2.127   5.146   1.324 -0.0686 -1.3327 -0.8035
16024TIP3   OH269486   1.097   3.163  10.412  0.1542 -0.4544  0.2707
16024TIP3    H169487   1.078   3.196  10.324  0.0170 -0.5518  0.2634
16024TIP3    H269488   1.152   3.231  10.452 -0.5565  0.0234  0.4406
16025TIP3   OH269489   3.208   0.655  15.174 -0.0661  0.4782 -0.5804
16025TIP3    H169490   3.288   0.625  15.217  0.1647 -1.4959 -2.2179
16025TIP3    H269491   3.224   0.747  15.155  0.1531  1.2313  2.6515
16026TIP3   OH269492   4.884   0.971   2.855  0.1469  0.2383  0.3356
16026TIP3    H169493   4.844   1.046   2.811 -0.7537 -0.1080  0.5453
16026TIP3    H269494   4.972   1.001   2.879 -0.3549  1.3738  0.8053
16027TIP3   OH269495   1.695   4.318   4.449 -0.2466  0.3347 -0.1341
16027TIP3    H169496   1.601   4.325   4.433  0.2112  2.4237 -2.7049
16027TIP3    H269497   1.724   4.247   4.393 -0.0125  1.2338 -1.1885
16028TIP3   OH269498   2.691   1.807  15.835  0.0777 -0.4250 -0.1297
16028TIP3    H169499   2.770   1.829  15.883 -0.0095 -1.0832  0.3257
16028TIP3    H269500   2.661   1.891  15.798 -1.3106  0.7031  3.1281
16029TIP3   OH269501   6.359   5.384   3.274  0.4184 -0.0912 -0.2979
16029TIP3    H169502   6.283   5.422   3.232  1.7991  1.7466 -1.2973
16029TIP3    H269503   6.359   5.292   3.245 -1.9035 -0.4196  0.5469
16030TIP3   OH269504   2.175   1.410  13.069 -0.0727  0.0194  0.0968
16030TIP3    H169505   2.218   1.494  13.084 -0.6091  0.2542  0.3500
16030TIP3    H269506   2.117   1.399  13.144  2.4921 -2.2246  1.9177
16031TIP3   OH269507   4.187   0.752   2.061 -0.1526  0.4586  0.1443
16031TIP3    H169508   4.182   0.845   2.080  1.0595  0.3917  0.8995
16031TIP3    H269509   4.278   0.736   2.039 -0.4939 -0.4261 -0.6901
16032TIP3   OH269510   5.290   3.466   1.540  0.1927  0.3680 -0.3367
16032TIP3    H169511   5.385   3.474   1.529  0.4096  0.6733  1.4255
16032TIP3    H269512   5.278   3.377   1.574 -0.2184  0.1348 -1.0757
16033TIP3   OH269513   4.111   6.653   1.961  0.2883  0.0154 -0.0933
16033TIP3    H169514   4.089   6.744   1.980 -0.8456 -0.5090  1.3133
16033TIP3    H269515   4.155   6.656   1.876  1.9328  2.0646  0.7361
16034TIP3   OH269516   5.320   0.978  13.799 -0.2352  0.1511  0.0500
16034TIP3    H169517   5.309   1.070  13.774 -0.7030  0.3357  0.8726
16034TIP3    H269518   5.232   0.940  13.791  0.1916 -0.5862 -1.5607
16035TIP3   OH269519   4.776   4.330  12.898 -0.5792  0.1016 -0.0508
16035TIP3    H169520   4.870   4.326  12.914 -0.5860  0.2365  0.0271
16035TIP3    H269521   4.756   4.249  12.851 -0.3559  0.2716 -0.4436
16036TIP3   OH269522   0.817   5.031   1.259 -0.4562  0.4521 -1.1034
16036TIP3    H169523   0.832   5.125   1.248 -0.9839  0.5343 -1.1307
16036TIP3    H269524   0.894   4.990   1.220  0.9970  0.9298  1.0243
16037TIP3   OH269525   5.441   6.561   2.457 -0.2988  0.2167  0.3428
16037TIP3    H169526   5.394   6.592   2.534 -0.6679  0.9875 -0.1831
16037TIP3    H269527   5.392   6.597   2.383 -0.2772 -0.9667 -0.2767
16038TIP3   OH269528   2.182   2.971   4.104 -0.4123  0.4714  0.1429
16038TIP3    H169529   2.097   2.962   4.061 -0.7587 -1.5352  1.1165
16038TIP3    H269530   2.228   2.890   4.084 -0.3749 -0.3242  2.9936
16039TIP3   OH269531   6.464   2.792   4.866  0.0349  0.1036  0.3028
16039TIP3    H169532   6.544   2.752   4.832  0.7613  0.1498  1.8898
16039TIP3    H269533   6.457   2.875   4.819 -1.4298 -1.6696 -2.9575
16040TIP3   OH269534   2.003   4.535   2.083 -0.2175 -0.1374  0.7473
16040TIP3    H169535   2.056   4.557   2.007 -1.8220  1.2214 -0.0182
16040TIP3    H269536   2.037   4.450   2.112  0.4868 -0.6387 -1.4069
16041TIP3   OH269537   2.194   4.752  11.223  0.4290 -0.1193 -0.4313
16041TIP3    H169538   2.161   4.824  11.169  0.1994 -0.3375 -0.5839
16041TIP3    H269539   2.253   4.794  11.285  0.9669  0.0934 -1.0758
16042TIP3   OH269540   3.307   4.662   4.571  0.0519 -0.2708 -0.0851
16042TIP3    H169541   3.247   4.655   4.645  1.7150 -1.7490  1.2328
16042TIP3    H269542   3.365   4.735   4.594  0.8817 -1.0487  0.3466
16043TIP3   OH269543   2.785   0.420  11.350  0.0398  0.1962  0.5864
16043TIP3    H169544   2.880   0.421  11.336 -0.0128 -2.7952 -0.7844
16043TIP3    H269545   2.749   0.398  11.264 -1.7775 -0.4037  1.4660
16044TIP3   OH269546   0.292   2.032  17.140 -0.1501  0.3924 -0.8287
16044TIP3    H169547   0.198   2.019  17.143 -0.0001 -0.7114  1.3219
16044TIP3    H269548   0.307   2.088  17.064 -2.4593  0.1226 -1.5423
16045TIP3   OH269549   6.718   1.955  16.470 -0.1940 -0.5370  0.1018
16045TIP3    H169550   6.652   2.022  16.454  1.5996  1.2889 -0.0570
16045TIP3    H269551   6.756   1.937  16.384  2.5125  1.7928  0.6733
16046TIP3   OH269552   4.023   0.480  13.855 -0.1897 -0.3206 -0.1697
16046TIP3    H169553   4.048   0.545  13.920  0.6239 -0.8656  0.0781
16046TIP3    H269554   4.094   0.416  13.857  0.0153 -0.1724 -1.8394
16047TIP3   OH269555   1.817   6.129   0.593 -0.6666  0.5109 -0.3210
16047TIP3    H169556   1.798   6.111   0.685  0.3300 -2.0627 -0.5447
16047TIP3    H269557   1.750   6.192   0.567 -2.9235 -1.0076  1.3848
16048TIP3   OH269558   6.771   5.448   5.320  0.1017  0.6001  0.4713
16048TIP3    H169559   6.864   5.466   5.332  0.3200  0.0895 -0.3410
16048TIP3    H269560   6.735   5.530   5.287  0.2155  0.8633  0.9866
16049TIP3   OH269561   3.264   4.698  11.383  0.6699  0.4529 -0.1434
16049TIP3    H169562   3.193   4.636  11.369  0.1701  1.0175 -0.1718
16049TIP3    H269563   3.320   4.689  11.307  0.1337  0.6487 -0.5664
16050TIP3   OH269564   3.880   3.386   2.743  0.0815 -0.3496  0.0432
16050TIP3    H169565   3.931   3.428   2.674 -0.4695  0.5025  0.1518
16050TIP3    H269566   3.935   3.312   2.771  2.5374  2.0000  1.9685
16051TIP3   OH269567   6.195   3.898  17.005  0.0218  0.4162  0.1289
16051TIP3    H169568   6.233   3.847  17.076  0.6782  1.0855  0.2690
16051TIP3    H269569   6.225   3.987  17.021  4.0671  0.0379 -3.3951
16052TIP3   OH269570   3.750   4.932  16.534 -0.0625 -0.3321 -0.3544
16052TIP3    H169571   3.770   4.840  16.517 -0.9504 -0.7049  0.4880
16052TIP3    H269572   3.743   4.938  16.630 -2.3479  0.0571 -0.4756
16053TIP3   OH269573   1.930   0.607  15.083 -0.0074  0.1553 -0.4892
16053TIP3    H169574   1.913   0.694  15.119 -0.0677 -0.3358  0.6938
16053TIP3    H269575   1.955   0.554  15.158  2.9083 -0.1613 -1.5624
16054TIP3   OH269576   0.152   1.052  12.353 -0.0514  0.1945 -0.1456
16054TIP3    H169577   0.072   1.030  12.401  0.7577  3.1116  2.9695
16054TIP3    H269578   0.131   1.133  12.306  0.8810  0.7265  0.3235
16055TIP3   OH269579   6.289   2.782   1.817 -0.2233  0.4762  0.2116
16055TIP3    H169580   6.259   2.730   1.742 -1.5209  2.3847 -0.6537
16055TIP3    H269581   6.380   2.805   1.795  0.6973 -2.0261  1.0123
16056TIP3   OH269582   5.576   5.906  13.834  0.6414 -0.3174  0.1444
16056TIP3    H169583   5.650   5.965  13.849  0.3379 -0.2530  1.4666
16056TIP3    H269584   5.502   5.965  13.818  0.6430 -0.3685 -0.0567
16057TIP3   OH269585   2.413   0.984  12.337 -0.1478  0.1491 -0.4268
16057TIP3    H169586   2.362   1.043  12.281 -0.6259 -0.9302 -1.1601
16057TIP3    H269587   2.354   0.911  12.356 -0.1259  0.6304  1.7982
16058TIP3   OH269588   5.906   2.602   6.597  0.1898  0.3535 -0.3680
16058TIP3    H169589   5.819   2.639   6.579  0.0108  0.0153 -0.1943
16058TIP3    H269590   5.889   2.521   6.644  0.6445  1.1459  1.2467
16059TIP3   OH269591   3.572   4.113   3.210  0.3422  0.1434  0.7854
16059TIP3    H169592   3.562   4.192   3.156  0.9158  0.5744  1.2941
16059TIP3    H269593   3.620   4.052   3.155 -1.8000 -0.6252 -0.3574
16060TIP3   OH269594   5.910   2.174  15.531  0.0514  0.1306  0.7281
16060TIP3    H169595   5.999   2.170  15.568  0.4858 -0.5358 -0.3265
16060TIP3    H269596   5.867   2.243  15.580  1.2542  0.6662  1.0708
16061TIP3   OH269597   0.922   4.308   0.875 -0.1694  0.5946  0.4748
16061TIP3    H169598   1.006   4.355   0.878 -0.3686  0.9177  1.4340
16061TIP3    H269599   0.944   4.219   0.904 -0.1886  0.7330  0.9198
16062TIP3   OH269600   4.698   2.830  14.108 -0.0903  0.1525  0.1612
16062TIP3    H169601   4.777   2.789  14.142 -0.5592  0.0091  1.1057
16062TIP3    H269602   4.663   2.767  14.045 -0.8101 -0.9547  1.6003
16063TIP3   OH269603   1.316   2.875   1.915 -0.0091  0.7468  0.2225
16063TIP3    H169604   1.393   2.839   1.871 -0.3196  1.1229 -0.6325
16063TIP3    H269605   1.352   2.922   1.991  0.5815  0.7003 -0.0221
16064TIP3   OH269606   4.329   5.637  14.446  0.4652  0.1580 -0.0383
16064TIP3    H169607   4.282   5.557  14.471 -0.3094  0.7855  0.5427
16064TIP3    H269608   4.263   5.689  14.400  1.0152  0.3981 -0.5641
16065TIP3   OH269609   4.497   5.708  11.617  0.0919 -0.3452  0.0653
16065TIP3    H169610   4.497   5.794  11.661  2.1604 -0.5073  0.4721
16065TIP3    H269611   4.463   5.727  11.529 -0.8910  0.5973  0.6084
16066TIP3   OH269612   0.818   4.262  12.535  0.0754  0.1036 -0.4541
16066TIP3    H169613   0.836   4.243  12.627 -1.2478  0.3511 -0.1299
16066TIP3    H269614   0.776   4.184  12.501 -1.4904  0.8215 -0.2402
16067TIP3   OH269615   6.597   2.463   4.536 -0.4316 -0.0814  0.3338
16067TIP3    H169616   6.692   2.453   4.528 -0.5007  0.6226 -2.2514
16067TIP3    H269617   6.561   2.386   4.493 -1.0605 -0.1534  0.9636
16068TIP3   OH269618   2.062   4.900  17.269 -0.6872 -0.3659 -0.7905
16068TIP3    H169619   2.081   4.994  17.271  0.9429 -0.6243 -2.0130
16068TIP3    H269620   2.069   4.872  17.361 -0.7743  0.6131 -0.4724
16069TIP3   OH269621   4.741   5.458  13.654  0.3915 -0.0474  0.0178
16069TIP3    H169622   4.723   5.428  13.565  1.5038  0.7139 -0.4872
16069TIP3    H269623   4.809   5.399  13.686  1.5329  0.9737 -0.4459
16070TIP3   OH269624   5.356   2.521   3.886  0.1392 -0.8047 -0.3279
16070TIP3    H169625   5.299   2.496   3.813 -1.9085  2.0743  0.1071
16070TIP3    H269626   5.442   2.532   3.846 -0.6486 -0.5590 -2.0799
16071TIP3   OH269627   4.811   3.838  13.109 -0.4177  0.3700  0.7202
16071TIP3    H169628   4.837   3.803  13.024  1.0783 -0.8156  1.6190
16071TIP3    H269629   4.715   3.841  13.105 -0.4577 -1.0611 -0.4874
16072TIP3   OH269630   4.280   2.525  17.045 -0.0721 -0.3158 -0.1951
16072TIP3    H169631   4.261   2.460  16.978 -0.8679 -2.0974  1.6455
16072TIP3    H269632   4.209   2.588  17.039  0.1516 -0.1653 -1.3547
16073TIP3   OH269633   2.949   4.156  12.643  0.0929 -0.1830 -0.3321
16073TIP3    H169634   2.912   4.076  12.606 -0.8706 -0.7129  1.6328
16073TIP3    H269635   2.991   4.128  12.724 -0.7706  1.3661  0.7027
16074TIP3   OH269636   0.150   3.088  13.997 -0.5065  0.4449  0.4893
16074TIP3    H169637   0.221   3.144  13.967 -0.8069  1.4594  1.6032
16074TIP3    H269638   0.089   3.148  14.040 -1.4806 -0.5685  0.5593
16075TIP3   OH269639   3.308   3.985   3.531  0.4336  0.1568  0.5956
16075TIP3    H169640   3.318   3.903   3.483 -0.7864 -0.3537  1.1410
16075TIP3    H269641   3.288   4.050   3.464 -0.0531 -0.2987  0.2874
16076TIP3   OH269642   4.456   3.703  14.984 -0.3013 -0.1735  0.3101
16076TIP3    H169643   4.414   3.623  14.953 -1.3844  0.2536  0.6520
16076TIP3    H269644   4.451   3.764  14.911 -1.1619  0.1975  0.6619
16077TIP3   OH269645   1.918   5.551  15.851  0.2771 -0.0414 -0.8682
16077TIP3    H169646   1.980   5.582  15.918  0.1362  0.9305 -1.1684
16077TIP3    H269647   1.930   5.456  15.849  1.8097  0.1259 -0.9730
16078TIP3   OH269648   0.252   4.169   3.690 -0.0365 -0.6290 -0.0008
16078TIP3    H169649   0.256   4.265   3.689  0.4955 -0.6400  0.4489
16078TIP3    H269650   0.302   4.142   3.613 -2.0269 -0.5159 -1.3895
16079TIP3   OH269651   6.667   0.960  13.144  0.1661  0.0266  0.1649
16079TIP3    H169652   6.600   0.899  13.112  0.4027 -1.3595  2.1012
16079TIP3    H269653   6.748   0.930  13.105  0.2668 -0.9064  1.0365
16080TIP3   OH269654   1.546   5.712   3.365  0.6227  0.3013 -0.3803
16080TIP3    H169655   1.505   5.675   3.442 -1.7263  0.7277 -1.3358
16080TIP3    H269656   1.527   5.650   3.295  2.7499 -0.1051 -0.6698
16081TIP3   OH269657   1.747   0.280  15.133 -0.4486 -0.0512 -0.7927
16081TIP3    H169658   1.702   0.238  15.206  0.0888 -2.0474 -1.5458
16081TIP3    H269659   1.839   0.286  15.161 -0.3748 -0.1263 -1.0139
16082TIP3   OH269660   4.567   5.845   5.902 -0.0599 -0.3057 -0.0016
16082TIP3    H169661   4.559   5.835   5.997 -0.3530  0.9174  0.1146
16082TIP3    H269662   4.533   5.932   5.883  1.1887 -0.0082 -1.0798
16083TIP3   OH269663   0.922   0.452  15.026  0.0550 -0.1534  0.2506
16083TIP3    H169664   0.888   0.460  14.937  1.3852  0.6212 -0.2299
16083TIP3    H269665   0.845   0.442  15.081 -0.8967  0.9417 -0.8286
16084TIP3   OH269666   2.017   4.432   3.055  0.3696  0.2479 -0.2391
16084TIP3    H169667   1.972   4.423   3.139  3.1958 -0.0119  1.3983
16084TIP3    H269668   1.988   4.517   3.021 -1.0379  0.2294  0.8521
16085TIP3   OH269669   3.893   6.459  14.219  0.2954 -0.0463 -0.4983
16085TIP3    H169670   3.828   6.420  14.276 -0.3799  1.4350 -0.2056
16085TIP3    H269671   3.946   6.386  14.188 -0.6670 -1.1103  0.3273
16086TIP3   OH269672   4.010   4.741  15.413 -0.6522  0.1416 -0.7204
16086TIP3    H169673   4.080   4.736  15.348  0.4934  4.1963 -0.0982
16086TIP3    H269674   4.054   4.728  15.497 -0.7085  1.9392 -0.3735
16087TIP3   OH269675   1.882   5.305   2.939  0.0177  0.0353  0.4671
16087TIP3    H169676   1.849   5.216   2.926 -1.8033  0.5773  1.0438
16087TIP3    H269677   1.973   5.294   2.967 -0.3486 -1.6680  1.0672
16088TIP3   OH269678   6.737   4.054   5.082  0.2858 -0.3796 -0.6126
16088TIP3    H169679   6.772   4.141   5.063  2.8968 -1.5965 -1.8096
16088TIP3    H269680   6.680   4.034   5.007  2.7281 -1.1510 -2.3928
16089TIP3   OH269681   6.665   6.509  15.630 -0.0925  0.1669 -0.3232
16089TIP3    H169682   6.743   6.472  15.588 -0.5781 -1.2801 -0.0087
16089TIP3    H269683   6.636   6.578  15.570  0.6056 -0.2482 -1.1587
16090TIP3   OH269684   6.254   0.987  12.924 -0.0566  0.5378  0.1763
16090TIP3    H169685   6.279   1.053  12.859 -0.8489  1.8494  1.1686
16090TIP3    H269686   6.162   0.968  12.904 -0.4180  1.2356  1.1380
16091TIP3   OH269687   1.123   2.578   3.267 -0.8561 -0.0150 -0.1272
16091TIP3    H169688   1.191   2.537   3.213 -1.7030 -1.3636 -0.2238
16091TIP3    H269689   1.041   2.554   3.225 -1.4246  1.4833  0.0641
16092TIP3   OH269690   5.812   2.029  11.018 -0.1218  0.9066  0.8936
16092TIP3    H169691   5.897   2.064  11.042  0.2823 -0.0486  0.9139
16092TIP3    H269692   5.750   2.071  11.078  0.2777  1.8664  0.6513
16093TIP3   OH269693   1.292   1.530   2.907  0.6832 -0.4039  0.0962
16093TIP3    H169694   1.223   1.548   2.971  2.1337 -1.6867  2.1153
16093TIP3    H269695   1.279   1.438   2.883 -0.9150  0.4491 -2.9539
16094TIP3   OH269696   4.606   6.401  12.488 -1.0812 -0.7415  0.7871
16094TIP3    H169697   4.645   6.409  12.401 -1.3142  0.8011  0.7950
16094TIP3    H269698   4.681   6.398  12.548 -0.9346 -0.6807  0.6075
16095TIP3   OH269699   4.932   1.538  14.377  0.0476  0.0441 -0.2041
16095TIP3    H169700   4.845   1.550  14.341  0.1508  1.3464 -0.0543
16095TIP3    H269701   4.990   1.584  14.317  0.5408 -0.1319  0.1256
16096TIP3   OH269702   1.411   5.162   6.343 -0.0434  0.1036 -0.4977
16096TIP3    H169703   1.372   5.246   6.320  1.0917  0.7047 -0.3152
16096TIP3    H269704   1.503   5.182   6.359  0.0381 -1.0012  0.5588
16097TIP3   OH269705   1.958   4.502   2.505  0.0697  0.2056  0.4606
16097TIP3    H169706   1.935   4.591   2.481 -0.7199 -0.0973  0.0696
16097TIP3    H269707   2.026   4.477   2.443 -0.4856  0.1602 -0.1462
16098TIP3   OH269708   0.902   5.819   3.894 -0.0807 -0.0101 -0.0966
16098TIP3    H169709   0.944   5.738   3.866 -1.0710 -0.0743 -1.5037
16098TIP3    H269710   0.972   5.884   3.894  0.6175 -0.7504  0.5531
16099TIP3   OH269711   3.957   3.004  13.973  0.4857 -0.0369 -0.3715
16099TIP3    H169712   3.879   2.983  14.024  0.2634  0.2288 -0.6049
16099TIP3    H269713   3.963   2.935  13.907  0.1537  0.2337 -0.6867
16100TIP3   OH269714   5.974   2.962   5.480  0.1791 -0.0972  0.0226
16100TIP3    H169715   5.918   2.895   5.442 -0.3000 -0.9214  2.0308
16100TIP3    H269716   6.057   2.953   5.435 -0.1268 -1.4954 -0.3061
16101TIP3   OH269717   3.288   5.292  15.647  0.3632  0.0780  0.0568
16101TIP3    H169718   3.222   5.362  15.643 -1.1746 -1.2924  0.1298
16101TIP3    H269719   3.298   5.264  15.556  0.4442 -0.0631  0.1089
16102TIP3   OH269720   4.789   0.581   3.234  0.0410 -0.0483  0.1583
16102TIP3    H169721   4.728   0.605   3.303 -2.5580 -1.1741 -1.5760
16102TIP3    H269722   4.813   0.664   3.193 -2.1461  0.3240 -0.4941
16103TIP3   OH269723   0.412   5.764  14.498  0.2142  0.4587  0.6412
16103TIP3    H169724   0.346   5.740  14.562  0.2334 -1.8240 -0.0915
16103TIP3    H269725   0.467   5.686  14.489 -1.0702 -0.2516 -3.6726
16104TIP3   OH269726   4.094   1.953   2.377 -0.5249  0.0372 -0.2543
16104TIP3    H169727   4.184   1.935   2.405  0.2027  0.4824 -2.1056
16104TIP3    H269728   4.062   1.870   2.344  0.1326  0.3615 -1.8382
16105TIP3   OH269729   4.163   0.453  12.912  0.2298 -0.4512  0.0487
16105TIP3    H169730   4.089   0.409  12.870  0.7122 -1.2040 -0.0375
16105TIP3    H269731   4.221   0.477  12.839  0.8431 -1.3344  0.2385
16106TIP3   OH269732   0.272   4.568   1.832 -0.1627  0.3933 -0.2487
16106TIP3    H169733   0.315   4.523   1.759 -0.6158 -1.1846  0.4208
16106TIP3    H269734   0.182   4.581   1.801 -0.4290 -0.5214  0.1046
16107TIP3   OH269735   3.863   4.266  12.273 -0.0822 -0.0109 -0.2422
16107TIP3    H169736   3.866   4.338  12.210 -0.9770  0.7498  0.5525
16107TIP3    H269737   3.951   4.261  12.309  0.5599 -0.7257 -1.8078
16108TIP3   OH269738   4.761   0.798  17.048  0.7132 -0.7147  0.3869
16108TIP3    H169739   4.737   0.713  17.085  1.1934 -0.6939  0.7639
16108TIP3    H269740   4.785   0.778  16.958  0.3662 -0.9028  0.3342
16109TIP3   OH269741   6.133   4.025   0.647  0.1606  0.0351  0.0889
16109TIP3    H169742   6.161   4.086   0.715 -0.4626 -0.5839  0.9118
16109TIP3    H269743   6.215   3.989   0.613  0.4672  0.0078  0.8309
16110TIP3   OH269744   4.448   5.507  11.352  0.0280  0.6580 -0.3349
16110TIP3    H169745   4.423   5.478  11.265 -1.3069  0.3631  0.1274
16110TIP3    H269746   4.425   5.600  11.355  1.2091  0.9808 -0.6886
16111TIP3   OH269747   3.428   5.013  11.656 -0.0407 -0.1042  0.1119
16111TIP3    H169748   3.409   5.103  11.683  1.2137  0.2375 -0.0707
16111TIP3    H269749   3.395   5.007  11.567  1.8525  0.9170 -0.7235
16112TIP3   OH269750   1.475   2.836   2.934  0.0324 -0.2064  0.0817
16112TIP3    H169751   1.432   2.750   2.932 -2.5579  0.9413  1.8381
16112TIP3    H269752   1.512   2.842   3.022 -0.6709  0.8162  0.3256
16113TIP3   OH269753   4.425   5.521   3.087 -0.6994  0.0478  0.9239
16113TIP3    H169754   4.465   5.504   3.001 -1.0598 -1.0564  0.9618
16113TIP3    H269755   4.489   5.575   3.133  0.4132 -1.0396  0.7014
16114TIP3   OH269756   1.975   3.353   0.348 -0.3503  0.2808 -0.2165
16114TIP3    H169757   2.023   3.435   0.357 -0.7349  0.4763  0.0791
16114TIP3    H269758   2.032   3.287   0.387  0.4544  0.2163 -1.4471
16115TIP3   OH269759   5.542   2.908   3.192  0.1208  0.3362 -0.1941
16115TIP3    H169760   5.487   2.837   3.225 -0.7996  0.8431 -0.6022
16115TIP3    H269761   5.613   2.864   3.147 -0.2549 -0.3313 -0.1470
16116TIP3   OH269762   5.232   6.420   5.069 -0.0785 -0.1048  0.5332
16116TIP3    H169763   5.285   6.477   5.125  0.2582 -0.5662  0.6884
16116TIP3    H269764   5.248   6.453   4.980  0.1422  0.0211  0.6169
16117TIP3   OH269765   4.106   4.196   2.083 -0.1866  0.5753 -0.2050
16117TIP3    H169766   4.162   4.133   2.038 -0.6534  0.8825 -1.2364
16117TIP3    H269767   4.153   4.279   2.076  0.8362  0.2354  1.8815
16118TIP3   OH269768   6.295   4.201  14.012 -0.0628  0.0966  0.1164
16118TIP3    H169769   6.288   4.270  13.946 -1.5667 -0.3950 -0.2788
16118TIP3    H269770   6.263   4.243  14.092  0.3261  0.2550  0.1886
16119TIP3   OH269771   6.282   3.952   6.695  0.4694 -0.0371 -0.1712
16119TIP3    H169772   6.233   3.958   6.613  0.0010 -2.7925 -0.1835
16119TIP3    H269773   6.241   4.018   6.752 -1.1614 -0.1044 -1.1980
16120TIP3   OH269774   3.009   1.949  11.452 -0.6274 -0.2178  0.2179
16120TIP3    H169775   2.972   2.033  11.425 -0.5191  0.1096  1.0844
16120TIP3    H269776   3.080   1.933  11.390  0.1020  0.8860  0.7414
16121TIP3   OH269777   0.098   3.259   1.973 -0.2039 -0.1329 -0.0420
16121TIP3    H169778   0.183   3.296   1.999 -0.5474  0.9812 -0.4523
16121TIP3    H269779   0.103   3.256   1.877 -0.7168  0.1753 -0.0793
16122TIP3   OH269780   0.954   3.692   3.329 -0.3714  0.1305 -0.4730
16122TIP3    H169781   0.908   3.683   3.412  1.0388  0.0025  0.3279
16122TIP3    H269782   0.999   3.608   3.317  0.0375  0.4151 -0.9926
16123TIP3   OH269783   2.731   6.064   5.280  0.0796  0.1229  0.7712
16123TIP3    H169784   2.776   6.010   5.346 -0.4695 -2.8613 -1.1129
16123TIP3    H269785   2.801   6.098   5.225  0.3188 -1.0222  0.3396
16124TIP3   OH269786   3.966   4.025   1.295 -0.2113 -0.0827  0.8443
16124TIP3    H169787   3.991   4.117   1.290 -1.5617  0.2665  0.1834
16124TIP3    H269788   3.872   4.024   1.280  0.1806 -1.8607 -2.3848
16125TIP3   OH269789   1.409   1.660   0.172  0.6041  0.0202 -0.2792
16125TIP3    H169790   1.387   1.747   0.139 -0.9500 -0.6681 -1.1377
16125TIP3    H269791   1.325   1.617   0.188  1.3037 -1.6827 -0.8512
16126TIP3   OH269792   4.688   0.004   0.435  0.1216  0.7629  0.2530
16126TIP3    H169793   4.772   0.006   0.389 -0.0517 -1.3986 -0.2892
16126TIP3    H269794   4.703  -0.054   0.510 -1.1482 -0.6668 -0.5268
16127TIP3   OH269795   1.321   5.718  11.020 -0.3396 -0.1074  0.5307
16127TIP3    H169796   1.383   5.789  11.003  0.2322 -0.7961 -0.3362
16127TIP3    H269797   1.332   5.658  10.946 -0.4298 -1.3584  1.4932
16128TIP3   OH269798   0.406   3.112  16.649 -0.2260 -0.1336 -0.3098
16128TIP3    H169799   0.324   3.125  16.697  0.0520 -1.1633  0.4830
16128TIP3    H269800   0.419   3.194  16.601 -1.3658  0.2985  0.0868
16129TIP3   OH269801   3.476   6.583   5.435 -0.4424  0.2172  0.4366
16129TIP3    H169802   3.426   6.560   5.357  0.3679  1.3641 -0.4404
16129TIP3    H269803   3.410   6.587   5.505 -1.2430 -0.3569 -0.2597
16130TIP3   OH269804   5.944   2.294   2.690  1.0429  0.5353 -0.2853
16130TIP3    H169805   6.005   2.259   2.755 -0.2037 -0.3660  0.4432
16130TIP3    H269806   5.987   2.373   2.657  1.6816  1.0891  1.7225
16131TIP3   OH269807   4.113   4.090   4.163  0.5406  0.4462 -0.0820
16131TIP3    H169808   4.179   4.053   4.104 -1.8307 -0.4702 -2.3881
16131TIP3    H269809   4.112   4.183   4.143 -0.1925  0.1553 -1.5481
16132TIP3   OH269810   3.267   1.937   1.396 -0.5025  0.1382  0.6931
16132TIP3    H169811   3.201   1.890   1.446 -3.2799  2.0306 -0.9074
16132TIP3    H269812   3.249   1.914   1.305  1.1419  0.6634  0.1916
16133TIP3   OH269813   0.620   4.902   2.835  0.3087  0.1840 -0.2296
16133TIP3    H169814   0.537   4.866   2.804  1.1233 -2.1728  0.1007
16133TIP3    H269815   0.620   4.885   2.929  2.2566 -2.4746 -0.5849
16134TIP3   OH269816   0.838   2.553   3.117  0.1098 -0.1477 -0.1092
16134TIP3    H169817   0.810   2.467   3.086 -0.8195  0.8047 -2.0755
16134TIP3    H269818   0.765   2.611   3.096  1.1719  1.3310  0.1498
16135TIP3   OH269819   4.727   0.995   3.809 -0.2694 -0.3104  0.0489
16135TIP3    H169820   4.676   1.040   3.741  0.3227 -1.5701 -1.2896
16135TIP3    H269821   4.798   0.954   3.761  0.3517 -0.9924  1.5061
16136TIP3   OH269822   2.477   3.992   2.230  0.8525  0.1846  0.0760
16136TIP3    H169823   2.441   4.080   2.243  0.0647 -0.2168  0.7932
16136TIP3    H269824   2.482   3.956   2.319 -0.2216 -1.0053 -0.3218
16137TIP3   OH269825   3.704   0.614   3.128 -0.4604  0.0498 -0.4505
16137TIP3    H169826   3.676   0.689   3.076  0.9688  0.2167 -1.0355
16137TIP3    H269827   3.749   0.557   3.065 -0.6053 -0.7967  0.1931
16138TIP3   OH269828   2.457   2.166  11.659 -0.0442  0.3038  0.0037
16138TIP3    H169829   2.362   2.159  11.649 -0.1969  1.9290  0.1861
16138TIP3    H269830   2.472   2.254  11.693  1.5011 -0.1257  0.5162
16139TIP3   OH269831   1.681   5.626   4.011  0.0592  0.1280 -0.4148
16139TIP3    H169832   1.730   5.657   3.935  0.1763 -0.1707 -0.4602
16139TIP3    H269833   1.739   5.564   4.054 -0.4523 -0.5752 -0.7256
16140TIP3   OH269834   0.026   1.751  14.816 -0.0458  0.2284 -0.0940
16140TIP3    H169835   0.075   1.705  14.885 -1.0772 -0.7549  0.0032
16140TIP3    H269836   0.092   1.771  14.750  0.6194 -0.5064  0.3270
16141TIP3   OH269837   2.158   5.924   2.830  0.1613 -0.2431  0.2856
16141TIP3    H169838   2.220   5.996   2.827  1.0420 -0.9851 -0.0731
16141TIP3    H269839   2.211   5.847   2.807 -0.8090 -0.9518  0.3837
16142TIP3   OH269840   1.020   1.756   1.080  0.6590  0.0542 -0.5243
16142TIP3    H169841   1.069   1.703   1.017 -0.6471  0.7739 -2.2212
16142TIP3    H269842   1.053   1.728   1.165  0.7012 -2.7969 -1.3739
16143TIP3   OH269843   1.218   6.016   3.320  0.1553  0.5799 -0.0184
16143TIP3    H169844   1.124   6.014   3.302  0.2794  0.1565 -0.6345
16143TIP3    H269845   1.223   6.031   3.415 -0.5140  1.4418 -0.1095
16144TIP3   OH269846   2.284   4.188   2.531  0.0279 -0.5281  0.2034
16144TIP3    H169847   2.275   4.277   2.566 -1.2397 -0.5642  0.0324
16144TIP3    H269848   2.198   4.169   2.494  0.6801 -1.3163 -0.9804
16145TIP3   OH269849   5.461   0.995   1.169  0.8396 -0.3470 -0.1813
16145TIP3    H169850   5.481   1.070   1.113 -1.4355 -0.2633 -0.9674
16145TIP3    H269851   5.444   0.924   1.108 -0.7970 -0.4880  0.4086
16146TIP3   OH269852   4.044   3.006   4.105  0.4178 -0.2797  0.4441
16146TIP3    H169853   3.971   2.954   4.140  0.0489  0.9484  1.5853
16146TIP3    H269854   4.082   2.951   4.037 -0.7817 -1.4821  0.7012
16147TIP3   OH269855   1.836   4.304   2.310 -0.0600 -0.1217 -0.4021
16147TIP3    H169856   1.911   4.247   2.292 -1.0408 -1.5106 -0.2147
16147TIP3    H269857   1.856   4.344   2.395  0.9483  0.3812 -0.8495
16148TIP3   OH269858   4.036   1.331   4.161  0.5777 -0.2132 -0.1234
16148TIP3    H169859   4.056   1.240   4.139 -1.1355 -0.4544 -0.8637
16148TIP3    H269860   4.082   1.383   4.094 -0.7586 -0.7175 -1.5035
16149TIP3   OH269861   2.963   4.689  17.089  0.1424 -0.7530  0.0249
16149TIP3    H169862   2.964   4.737  17.006  1.1232 -0.2980  0.2833
16149TIP3    H269863   2.878   4.646  17.091 -0.0561 -0.4345 -1.0278
16150TIP3   OH269864   0.653   1.935   3.127  0.0113 -0.6216  0.0024
16150TIP3    H169865   0.688   1.853   3.162 -1.0941 -0.5867  1.2727
16150TIP3    H269866   0.558   1.927   3.139 -0.2773  0.0459 -1.6485
16151TIP3   OH269867   2.543   1.215  16.429 -0.0344 -0.1458  0.0602
16151TIP3    H169868   2.577   1.300  16.456  0.9409 -0.8306  1.0324
16151TIP3    H269869   2.602   1.186  16.359  0.2200 -0.4570  0.4018
16152TIP3   OH269870   1.901   1.195   2.131 -0.9440 -0.3850  0.3440
16152TIP3    H169871   1.846   1.181   2.208 -0.2192  1.1597  1.1721
16152TIP3    H269872   1.873   1.279   2.096 -1.2415 -1.0413 -1.1089
16153TIP3   OH269873   1.221   1.733  14.199  0.1218 -0.0820 -1.0121
16153TIP3    H169874   1.190   1.691  14.119  0.3010 -0.3654 -0.9327
16153TIP3    H269875   1.296   1.785  14.170  0.5047 -0.5902 -0.9407
16154TIP3   OH269876   4.649   4.269   1.855 -0.0045 -0.0422 -0.0838
16154TIP3    H169877   4.579   4.208   1.879 -1.5800  1.4250 -0.6608
16154TIP3    H269878   4.708   4.269   1.930 -1.4230 -0.2640  1.0883
16155TIP3   OH269879   3.964   1.572   0.745 -0.4424  0.4628 -0.1293
16155TIP3    H169880   3.981   1.487   0.706 -2.2080  0.0327 -0.0453
16155TIP3    H269881   3.935   1.627   0.672 -0.3963  0.6661  0.0038
16156TIP3   OH269882   5.325   3.897   1.694  0.6617  0.3365  0.1491
16156TIP3    H169883   5.405   3.893   1.746 -0.4335 -0.1617  1.8792
16156TIP3    H269884   5.256   3.912   1.758 -0.6828  0.3922 -1.2641
16157TIP3   OH269885   4.713   0.369   1.538 -1.1927 -0.1136  0.4404
16157TIP3    H169886   4.711   0.419   1.457 -0.1760 -0.9164 -0.0976
16157TIP3    H269887   4.805   0.370   1.565 -0.9858 -2.3545 -0.0315
16158TIP3   OH269888   0.033   0.595   1.785 -0.4328  0.0427  0.6181
16158TIP3    H169889   0.052   0.623   1.695  0.9363  0.0865  0.8905
16158TIP3    H269890  -0.049   0.640   1.807 -0.5356  0.4094 -0.4428
16159TIP3   OH269891   3.688   2.455  14.709 -0.3470 -0.1683  0.3538
16159TIP3    H169892   3.629   2.487  14.778  2.1067 -0.9937  3.0748
16159TIP3    H269893   3.702   2.363  14.731  0.0513 -0.6487 -1.7122
16160TIP3   OH269894   0.664   3.783   5.473 -0.3438 -0.1355  0.1815
16160TIP3    H169895   0.586   3.805   5.524  0.6188  3.5852  0.3096
16160TIP3    H269896   0.639   3.797   5.382  0.1645  1.2843  0.2359
16161TIP3   OH269897   3.871   3.133  11.819  0.0074  0.0132  0.5165
16161TIP3    H169898   3.852   3.139  11.913 -0.2605 -2.3110  0.6730
16161TIP3    H269899   3.854   3.221  11.786 -0.3345  0.7847  2.5624
16162TIP3   OH269900   6.085   1.322  11.671  0.5305  0.0843 -0.2423
16162TIP3    H169901   6.060   1.245  11.620  0.4720  0.9543 -1.5627
16162TIP3    H269902   6.054   1.303  11.760 -3.5721  0.4460 -1.3881
16163TIP3   OH269903   0.660   5.688   5.244 -0.2676 -0.4734  0.3426
16163TIP3    H169904   0.690   5.769   5.203 -1.0289 -1.6614 -2.8828
16163TIP3    H269905   0.662   5.706   5.338  2.6239  2.1517 -0.0869
16164TIP3   OH269906   3.460   1.176   3.579  0.2243  0.2123  0.2448
16164TIP3    H169907   3.521   1.250   3.577 -1.5850  1.7578 -1.1972
16164TIP3    H269908   3.393   1.202   3.642 -0.9285  0.2769 -0.9622
16165TIP3   OH269909   0.727   6.221   0.038  0.2156 -0.2295 -0.0339
16165TIP3    H169910   0.635   6.205   0.015 -0.0480  0.2096  0.6829
16165TIP3    H269911   0.724   6.298   0.094  1.1216  0.3209 -0.7344
16166TIP3   OH269912   0.330   1.203   1.872 -0.3470  0.3319  0.0479
16166TIP3    H169913   0.388   1.145   1.921  1.4498  1.5608 -0.5201
16166TIP3    H269914   0.376   1.217   1.789 -2.1440  0.2514 -1.0025
16167TIP3   OH269915   0.790   5.317   1.789  0.6848  0.3790 -0.3900
16167TIP3    H169916   0.861   5.355   1.737  2.2862  0.1650  1.5072
16167TIP3    H269917   0.710   5.344   1.743  1.9037  2.0217 -1.7177
16168TIP3   OH269918   2.259   2.027   4.741 -0.4747  0.3880  0.0425
16168TIP3    H169919   2.340   2.071   4.766 -1.0313  0.3567  2.0833
16168TIP3    H269920   2.207   2.094   4.697  0.2635  0.6675 -0.4077
16169TIP3   OH269921   1.379   3.510  14.763 -0.3952 -0.4721  0.6795
16169TIP3    H169922   1.472   3.489  14.753 -0.5226 -0.8295  0.1705
16169TIP3    H269923   1.341   3.432  14.803 -0.4126 -0.1817  1.2318
16170TIP3   OH269924   1.219   2.458  10.997  0.3385 -0.1656  0.3606
16170TIP3    H169925   1.126   2.461  11.017  0.8081 -0.0370  2.9123
16170TIP3    H269926   1.237   2.365  10.982 -0.1045 -0.2582  0.3860
16171TIP3   OH269927   5.972   3.585   1.655  0.0112 -0.0388  0.5652
16171TIP3    H169928   5.896   3.529   1.667 -0.5423  0.8612  1.4400
16171TIP3    H269929   6.031   3.561   1.727  0.5354 -0.6928 -0.0758
16172TIP3   OH269930   0.516   3.765  12.521  0.8404 -0.6218 -0.3571
16172TIP3    H169931   0.462   3.702  12.568 -1.2856  0.6404 -0.9905
16172TIP3    H269932   0.471   3.778  12.437  1.9318  0.7420 -0.7756
16173TIP3   OH269933   4.218   2.186  13.120 -0.2049  0.3936  0.6524
16173TIP3    H169934   4.290   2.163  13.179  0.7929  0.0838 -0.6479
16173TIP3    H269935   4.173   2.104  13.104  1.7768 -0.3115 -1.9057
16174TIP3   OH269936   2.604   5.054   4.045  0.2334  0.7518 -0.1271
16174TIP3    H169937   2.697   5.056   4.023  0.2502  0.7350 -0.0584
16174TIP3    H269938   2.573   5.142   4.024  0.1445  0.5892 -0.6696
16175TIP3   OH269939   1.150   3.367   5.582 -0.4511 -0.3398 -0.6103
16175TIP3    H169940   1.135   3.397   5.493 -0.7887  0.4427 -0.3017
16175TIP3    H269941   1.068   3.324   5.608 -0.7142  0.3090 -0.3427
16176TIP3   OH269942   5.604   0.180   2.690 -0.2780 -0.3728 -0.4098
16176TIP3    H169943   5.673   0.157   2.753 -0.2821  0.9149  0.0826
16176TIP3    H269944   5.632   0.138   2.609  0.5608 -0.7262  0.0419
16177TIP3   OH269945   2.927   4.477  15.767  0.0736  0.1148 -0.1892
16177TIP3    H169946   2.899   4.562  15.733  1.9325  0.1531 -1.8804
16177TIP3    H269947   2.945   4.425  15.688 -1.3417 -2.0007  0.7926
16178TIP3   OH269948   0.231   3.218   0.665  0.2594  0.1306 -0.3273
16178TIP3    H169949   0.172   3.197   0.738 -0.6829  2.0313 -0.4792
16178TIP3    H269950   0.305   3.263   0.706 -0.6130  1.8623 -0.5349
16179TIP3   OH269951   3.833   0.272   3.794  0.5812  0.3514 -0.1770
16179TIP3    H169952   3.840   0.193   3.740  0.4555 -0.3615  0.8295
16179TIP3    H269953   3.756   0.317   3.758 -0.7276 -1.1102  0.6129
16180TIP3   OH269954   0.876   0.785   6.174  0.1350 -0.1658 -0.4817
16180TIP3    H169955   0.950   0.773   6.234 -0.1271 -2.8436 -0.5847
16180TIP3    H269956   0.798   0.771   6.228 -0.2471  0.5375 -0.8250
16181TIP3   OH269957   0.436   2.124   5.226 -0.1707  0.0966 -0.4987
16181TIP3    H169958   0.449   2.038   5.265 -0.4672  0.1094 -0.3657
16181TIP3    H269959   0.481   2.120   5.142 -0.2766 -0.2212 -0.5397
16182TIP3   OH269960   4.437   4.100  14.493  0.0386 -0.1945 -0.3645
16182TIP3    H169961   4.413   4.145  14.412  0.8677  0.2182 -0.3924
16182TIP3    H269962   4.458   4.171  14.554 -0.2839 -0.5116  0.1138
16183TIP3   OH269963   3.951   0.510  13.242  0.0550 -0.0042  0.3600
16183TIP3    H169964   3.983   0.600  13.232 -0.6584  0.1434 -0.8451
16183TIP3    H269965   4.012   0.457  13.190 -0.7835  0.0979 -0.7786
16184TIP3   OH269966   3.882   1.809  11.102  0.8521 -0.4292 -0.4709
16184TIP3    H169967   3.801   1.837  11.060  0.4545 -1.7181 -0.6120
16184TIP3    H269968   3.902   1.725  11.061 -0.1948 -2.3993  2.6619
16185TIP3   OH269969   3.366   0.178  15.298  0.2285 -0.6489 -0.4785
16185TIP3    H169970   3.334   0.088  15.305 -0.6909 -0.5174 -2.3868
16185TIP3    H269971   3.376   0.193  15.204  0.5159  1.1996 -0.1952
16186TIP3   OH269972   5.874   4.776  16.705  0.5228  0.3647  0.0299
16186TIP3    H169973   5.889   4.760  16.611  0.3187 -0.3395  0.1113
16186TIP3    H269974   5.868   4.871  16.712 -0.4739  0.3854 -0.8379
16187TIP3   OH269975   4.208   2.017  14.818 -0.3162 -0.5914 -0.1457
16187TIP3    H169976   4.232   1.934  14.859  0.7772  0.5975  1.8119
16187TIP3    H269977   4.127   2.043  14.862  0.4750  0.3415  0.8428
16188TIP3   OH269978   4.292   3.804   0.327 -0.6968 -0.3498  0.6848
16188TIP3    H169979   4.207   3.818   0.370 -0.9285 -3.0222  1.2786
16188TIP3    H269980   4.337   3.740   0.383  1.0295 -0.2450 -0.5047
16189TIP3   OH269981   1.474   4.877  13.583  0.3836  0.2147 -0.2912
16189TIP3    H169982   1.541   4.945  13.580 -1.0304  1.6819  0.1263
16189TIP3    H269983   1.429   4.884  13.498 -2.4152  2.7018  1.2110
16190TIP3   OH269984   2.105   5.635   1.822 -0.1040  0.1555  0.5066
16190TIP3    H169985   2.193   5.620   1.789 -0.6243  1.3025 -1.5782
16190TIP3    H269986   2.111   5.718   1.870 -0.0246  0.1712  0.4690
16191TIP3   OH269987   6.719   4.524   1.714  0.0732  0.2428  0.5650
16191TIP3    H169988   6.701   4.434   1.740  1.8883  0.2792  2.1799
16191TIP3    H269989   6.699   4.526   1.620  0.3738 -1.9413  0.3908
16192TIP3   OH269990   5.435   3.573   6.461  0.1381 -0.2606 -0.1768
16192TIP3    H169991   5.423   3.666   6.442 -1.1230  0.2076  2.4157
16192TIP3    H269992   5.511   3.571   6.519 -0.0527 -0.7953  0.0559
16193TIP3   OH269993   3.807   1.558   0.093 -0.2608 -0.1697 -0.2356
16193TIP3    H169994   3.750   1.482   0.102 -0.1449 -0.5430 -2.1773
16193TIP3    H269995   3.892   1.522   0.067  0.3811  0.5020  0.8326
16194TIP3   OH269996   4.159   3.662   1.938  0.0889  0.2275  0.2955
16194TIP3    H169997   4.094   3.635   2.004  0.7358  0.7119  1.1571
16194TIP3    H269998   4.136   3.612   1.860  1.5698 -3.2926  1.9302
16195TIP3   OH269999   1.679   4.831   4.444 -0.0835 -0.5194 -0.2841
16195TIP3    H170000   1.768   4.861   4.423  1.0903 -1.7822  2.4213
16195TIP3    H270001   1.642   4.805   4.360  2.4580 -0.8096 -1.4008
16196TIP3   OH270002   2.262   2.908   2.303  0.1816  0.1418  0.0147
16196TIP3    H170003   2.169   2.930   2.299  0.4022  1.0034 -3.2427
16196TIP3    H270004   2.298   2.968   2.368 -1.2553  0.9416  0.1185
16197TIP3   OH270005   1.611   2.842  11.179  0.4972  0.1011 -0.1743
16197TIP3    H170006   1.544   2.791  11.132  0.4297 -1.6231  1.6934
16197TIP3    H270007   1.561   2.891  11.244  0.9281 -0.4809  0.6102
16198TIP3   OH270008   3.286   1.488   1.671 -0.5209 -0.7249  0.2202
16198TIP3    H170009   3.349   1.539   1.619 -0.0298  0.2443  1.6816
16198TIP3    H270010   3.224   1.553   1.704 -3.1302 -1.7966 -2.1623
16199TIP3   OH270011   1.218   4.057   0.200  0.0479  0.1900  0.0625
16199TIP3    H170012   1.241   4.060   0.293  2.3999  2.4508 -0.4709
16199TIP3    H270013   1.288   4.106   0.156 -0.5836 -1.3892 -3.0084
16200TIP3   OH270014   6.144   5.059  17.023  0.6160 -0.3690  0.0385
16200TIP3    H170015   6.060   5.027  17.058 -0.2523  0.6949 -0.9786
16200TIP3    H270016   6.162   5.002  16.948 -0.0646  0.4168 -0.7442
16201TIP3   OH270017   4.389   1.234  16.693  0.7034 -0.0674 -0.3464
16201TIP3    H170018   4.377   1.154  16.745  1.7865  0.2608  0.4317
16201TIP3    H270019   4.367   1.207  16.604 -1.4047 -0.5819  0.2684
16202TIP3   OH270020   2.268   6.117   0.762 -0.0373  0.4544  0.1145
16202TIP3    H170021   2.307   6.076   0.840 -1.0116 -1.1247 -0.1865
16202TIP3    H270022   2.228   6.198   0.795  0.1914  0.1682  1.1272
16203TIP3   OH270023   5.840   0.111   6.605  0.3276  0.0750 -0.2436
16203TIP3    H170024   5.919   0.067   6.635  0.2758  0.5520  0.6395
16203TIP3    H270025   5.841   0.195   6.650 -0.4074  0.3143 -0.6469
16204TIP3   OH270026   5.907   4.424  10.508 -0.3534  0.0150 -0.7219
16204TIP3    H170027   5.868   4.394  10.591 -0.9492 -0.3095 -1.1152
16204TIP3    H270028   5.983   4.367  10.496 -0.4722 -0.1735 -0.5840
16205TIP3   OH270029   0.682   2.567  11.974  0.7921 -0.3913  0.0952
16205TIP3    H170030   0.625   2.520  12.034  0.2306 -0.3047 -0.3691
16205TIP3    H270031   0.702   2.649  12.020 -3.0894  1.6777 -1.4925
16206TIP3   OH270032   3.743   5.160  11.963 -0.1327  0.1181 -0.2617
16206TIP3    H170033   3.675   5.195  12.021  0.6705  0.2431  0.6243
16206TIP3    H270034   3.803   5.233  11.949  1.0308 -0.5996  0.8083
16207TIP3   OH270035   0.865   1.520  13.533  0.4321  0.1777  0.5400
16207TIP3    H170036   0.842   1.530  13.441 -1.6672  0.5835  1.0675
16207TIP3    H270037   0.958   1.546  13.537  0.5808  0.1313 -1.4301
16208TIP3   OH270038   1.829   5.035  15.609  0.0698  0.5465  0.3948
16208TIP3    H170039   1.851   5.004  15.697 -0.4074  0.6541  0.5520
16208TIP3    H270040   1.740   5.004  15.594  0.0629  0.7351  0.0439
16209TIP3   OH270041   6.361   5.666  16.192 -0.0341 -0.3688 -0.1999
16209TIP3    H170042   6.433   5.706  16.142  1.0898 -1.3968  0.5328
16209TIP3    H270043   6.295   5.735  16.199  0.7700  0.5306 -1.1075
16210TIP3   OH270044   3.192   5.765  15.284 -1.3745  0.2993  0.2175
16210TIP3    H170045   3.097   5.768  15.295 -1.3109  0.8832  0.6456
16210TIP3    H270046   3.227   5.769  15.373 -0.9040  2.6540 -0.0069
16211TIP3   OH270047   6.188   1.181  17.093 -0.5617  0.0920 -0.2267
16211TIP3    H170048   6.113   1.147  17.044 -1.6822  1.4819  0.4434
16211TIP3    H270049   6.257   1.191  17.027 -1.0678 -0.8493 -0.9316
16212TIP3   OH270050   3.045   0.987  15.010  0.1904  0.3058 -0.8618
16212TIP3    H170051   3.130   0.945  15.019 -1.3418 -2.4707  3.2792
16212TIP3    H270052   3.062   1.079  15.029  2.1567 -0.3794  1.1191
16213TIP3   OH270053   2.678   0.392   3.782  0.0728 -0.7650 -0.2460
16213TIP3    H170054   2.768   0.411   3.808 -0.6161  0.7867  1.1979
16213TIP3    H270055   2.635   0.366   3.864 -1.1339 -0.0099 -0.6180
16214TIP3   OH270056   3.207   3.690  12.290  0.2247 -0.3278 -0.8113
16214TIP3    H170057   3.218   3.595  12.295 -0.8836 -0.4149  1.3460
16214TIP3    H270058   3.289   3.726  12.324  0.9703 -0.4463 -2.3936
16215TIP3   OH270059   0.140   0.412   1.512 -0.3413 -0.2357  0.0015
16215TIP3    H170060   0.114   0.501   1.490 -2.4206 -1.2642 -2.2187
16215TIP3    H270061   0.086   0.389   1.588  0.7182  0.5806  1.0294
16216TIP3   OH270062   3.715   5.481   3.351  0.3615 -0.5066  0.2564
16216TIP3    H170063   3.747   5.477   3.261  1.3079 -0.6019  0.5947
16216TIP3    H270064   3.621   5.498   3.341  0.5271 -0.0750 -0.7393
16217TIP3   OH270065   0.521   2.413   0.896  0.2639 -0.1072  0.2992
16217TIP3    H170066   0.490   2.428   0.807  0.0774  0.1604  0.4081
16217TIP3    H270067   0.581   2.339   0.888 -1.2824 -1.4127  0.2661
16218TIP3   OH270068   5.459   2.396   3.531 -0.4319 -0.1766  0.3189
16218TIP3    H170069   5.493   2.485   3.518 -1.7493  0.3300  0.1819
16218TIP3    H270070   5.369   2.409   3.560  0.1255 -1.4076  2.9446
16219TIP3   OH270071   2.350   5.515   0.176 -0.4671 -0.8397 -0.0891
16219TIP3    H170072   2.310   5.431   0.152 -1.5751 -0.0605 -1.0595
16219TIP3    H270073   2.278   5.567   0.210 -0.3424  0.5693 -1.8322
16220TIP3   OH270074   2.655   2.876  10.723 -0.1346 -0.0799  0.3762
16220TIP3    H170075   2.631   2.906  10.811  1.8337 -0.7704  1.2199
16220TIP3    H270076   2.577   2.831  10.691 -1.0093  0.4614  1.6323
16221TIP3   OH270077   5.140   0.752  14.097 -0.6225  0.4293 -0.3826
16221TIP3    H170078   5.082   0.767  14.173  0.3608 -0.2144  0.5193
16221TIP3    H270079   5.080   0.747  14.023 -1.7722 -0.3865  0.5469
16222TIP3   OH270080   4.074   3.251   1.758  0.0221 -0.2863  0.1572
16222TIP3    H170081   4.124   3.170   1.746 -0.7358 -0.9022  0.9776
16222TIP3    H270082   3.984   3.226   1.736 -0.1852  0.3812  0.2513
16223TIP3   OH270083   5.303   1.961  16.134 -0.3559  0.6556  0.0721
16223TIP3    H170084   5.300   1.928  16.223  0.8906 -0.5250 -0.3004
16223TIP3    H270085   5.395   1.953  16.108 -0.7700  0.5756 -1.4656
16224TIP3   OH270086   6.376   5.348  12.523  0.1364  0.0871 -0.8190
16224TIP3    H170087   6.376   5.417  12.588  0.5060 -0.7678  0.1140
16224TIP3    H270088   6.380   5.394  12.439 -0.4776  1.2039 -0.2563
16225TIP3   OH270089   6.582   3.486  12.566 -0.1880  0.2468 -0.1717
16225TIP3    H170090   6.491   3.506  12.589 -0.9529 -1.3856 -1.4784
16225TIP3    H270091   6.597   3.399  12.603  0.5879  0.2050 -0.5698
16226TIP3   OH270092   1.131   2.221  16.923  0.6349 -0.3465  0.4014
16226TIP3    H170093   1.163   2.131  16.918  1.9222  0.1380 -0.8180
16226TIP3    H270094   1.210   2.274  16.931  0.0425  0.7929 -0.8964
16227TIP3   OH270095   3.773   1.503   4.032 -0.5653  0.0355  1.1519
16227TIP3    H170096   3.696   1.540   3.989 -0.9571  1.0299  2.6087
16227TIP3    H270097   3.831   1.578   4.046  0.2879 -0.5556  0.8456
16228TIP3   OH270098   3.618   6.427  15.258  0.3397  0.0764 -0.3585
16228TIP3    H170099   3.590   6.421  15.167  0.7542 -0.4176 -0.4559
16228TIP3    H270100   3.690   6.365  15.265 -0.1195 -0.3709  0.4739
16229TIP3   OH270101   6.058   0.759  11.478 -0.0116 -0.0053  0.0427
16229TIP3    H170102   6.093   0.678  11.440 -0.6037  0.2875 -1.1805
16229TIP3    H270103   6.136   0.812  11.496  0.2645  0.7655 -2.9346
16230TIP3   OH270104   4.300   4.177  17.240 -0.4183  0.3735 -0.1895
16230TIP3    H170105   4.319   4.260  17.198 -1.2196  0.5851 -0.1487
16230TIP3    H270106   4.377   4.123  17.223  0.9634  1.7258  1.3889
16231TIP3   OH270107   5.699   1.100  14.179  0.6449 -0.2148  0.7409
16231TIP3    H170108   5.741   1.014  14.172  1.7936  0.3510  0.3668
16231TIP3    H270109   5.706   1.137  14.092 -5.0100 -1.9260 -0.8173
16232TIP3   OH270110   4.863   5.110  15.483 -0.1811 -0.0365  0.2152
16232TIP3    H170111   4.916   5.032  15.469 -0.7811 -0.4513  0.2136
16232TIP3    H270112   4.884   5.138  15.572  1.5170  0.9706 -0.4422
16233TIP3   OH270113   0.084   4.026   0.718 -0.0345 -0.1261  0.2095
16233TIP3    H170114   0.110   4.057   0.631 -0.6005  2.8701  1.0171
16233TIP3    H270115   0.146   4.067   0.778 -0.2649 -1.3618  1.3340
16234TIP3   OH270116   4.821   4.994  12.948  0.5121 -0.0050 -0.7073
16234TIP3    H170117   4.837   4.899  12.945 -1.2182 -0.4540  1.4862
16234TIP3    H270118   4.864   5.028  12.870  1.6938 -2.5176 -1.2573
16235TIP3   OH270119   1.831   0.877   3.443  0.2498  0.2825  0.2493
16235TIP3    H170120   1.807   0.785   3.442  0.9354  0.0399  2.0764
16235TIP3    H270121   1.920   0.880   3.407 -0.9784  0.7504 -3.1693
16236TIP3   OH270122   0.591   0.087  14.569  0.2683  0.2695  0.3963
16236TIP3    H170123   0.681   0.056  14.576  0.3517  0.0050 -1.2687
16236TIP3    H270124   0.591   0.140  14.489 -0.7006  1.6057  1.2381
16237TIP3   OH270125   0.387   4.587   0.393  0.3444 -0.0173 -0.1727
16237TIP3    H170126   0.341   4.517   0.346  2.2851 -0.0410 -2.1945
16237TIP3    H270127   0.440   4.630   0.327  1.7806  1.2273  1.6742
16238TIP3   OH270128   4.741   4.013   3.334 -0.5530  0.6267  0.1628
16238TIP3    H170129   4.775   4.058   3.410  0.4377 -1.0943  0.8082
16238TIP3    H270130   4.646   4.009   3.348 -0.3550  0.0490  1.5007
16239TIP3   OH270131   0.385   0.398   5.093 -0.0324 -0.4614  0.0093
16239TIP3    H170132   0.417   0.346   5.020 -0.4155 -0.7458  0.0394
16239TIP3    H270133   0.438   0.370   5.168 -0.5023 -1.1038  0.1110
16240TIP3   OH270134   5.381   5.641   0.942 -0.0075 -0.1943  0.4867
16240TIP3    H170135   5.358   5.550   0.959 -0.4404  0.0424  1.2090
16240TIP3    H270136   5.347   5.689   1.018 -1.8556  0.8956 -0.9265
16241TIP3   OH270137   1.081   2.610  15.313  0.3047 -0.3374 -0.0701
16241TIP3    H170138   1.174   2.632  15.308 -0.1075  1.6267  0.1306
16241TIP3    H270139   1.037   2.678  15.262 -1.2235  0.4350  2.1161
16242TIP3   OH270140   5.610   5.092   4.852  0.2324  0.1926  0.0785
16242TIP3    H170141   5.681   5.040   4.888 -1.3563 -1.3870  1.1028
16242TIP3    H270142   5.530   5.048   4.882 -1.1920  1.6011 -1.4189
16243TIP3   OH270143   4.327   5.783   3.188  0.1297  0.2798  0.3388
16243TIP3    H170144   4.324   5.709   3.128 -1.4607  2.0700 -1.9574
16243TIP3    H270145   4.256   5.767   3.250 -0.5647  0.1611 -0.4835
16244TIP3   OH270146   1.078   3.236  14.283  0.0744 -0.0611  0.2799
16244TIP3    H170147   1.030   3.222  14.201  0.0866 -1.6058  0.5040
16244TIP3    H270148   1.081   3.331  14.294  0.8514  0.2184 -1.9670
16245TIP3   OH270149   5.148   0.741  11.224  0.6417 -0.1764  0.3876
16245TIP3    H170150   5.093   0.799  11.277 -0.2092 -0.8822  0.3042
16245TIP3    H270151   5.179   0.797  11.153 -0.1336  0.2057  0.3324
16246TIP3   OH270152   1.021   1.418   0.008  0.1282  0.6093 -0.2064
16246TIP3    H170153   0.930   1.444   0.020  0.4043  0.8252  1.5815
16246TIP3    H270154   1.069   1.460   0.079  1.3432 -0.9548 -0.0307
16247TIP3   OH270155   2.555   1.008  13.015 -0.2177 -0.4023  0.4580
16247TIP3    H170156   2.471   1.042  13.048 -0.0885  0.6382 -0.2314
16247TIP3    H270157   2.602   0.981  13.093 -0.7737  0.0040  0.9442
16248TIP3   OH270158   2.363   1.941   1.799 -0.1369  0.3165 -0.6079
16248TIP3    H170159   2.283   1.952   1.851  1.5903  1.2700  2.0484
16248TIP3    H270160   2.346   1.865   1.744 -2.7061  0.2477  0.1714
16249TIP3   OH270161   3.312   5.600  11.129  0.2997  0.0151 -0.0739
16249TIP3    H170162   3.400   5.581  11.095  0.0502 -2.3836  0.4865
16249TIP3    H270163   3.327   5.632  11.218  0.5863 -1.5730  0.4729
16250TIP3   OH270164   1.353   4.315  11.425 -0.2891 -0.3439  0.2399
16250TIP3    H170165   1.353   4.271  11.509 -1.9272 -1.3814 -0.2616
16250TIP3    H270166   1.416   4.267  11.372  0.4345  0.0527  0.7305
16251TIP3   OH270167   5.572   3.986  14.337  0.2482 -0.1337 -0.8682
16251TIP3    H170168   5.657   3.943  14.326  0.8492  0.5052  0.9282
16251TIP3    H270169   5.589   4.057  14.398 -1.6194 -0.0639 -0.3787
16252TIP3   OH270170   5.685   5.442   5.100 -0.3641  0.2341 -0.3143
16252TIP3    H170171   5.767   5.414   5.141 -0.3324  1.3269  0.3974
16252TIP3    H270172   5.711   5.508   5.036 -0.7501  1.1691  0.4757
16253TIP3   OH270173   1.746   4.693  15.913 -0.6730 -0.7527 -1.0978
16253TIP3    H170174   1.764   4.633  15.985 -2.4633 -0.7942 -0.6430
16253TIP3    H270175   1.652   4.713  15.921 -0.0220  2.9029 -0.5820
16254TIP3   OH270176   6.292   4.817  16.598 -0.8868 -1.2461  0.0836
16254TIP3    H170177   6.366   4.862  16.556  0.2696 -1.7146  1.5311
16254TIP3    H270178   6.238   4.786  16.525  0.9116 -1.8287 -1.0672
16255TIP3   OH270179   6.094   3.467   2.179  0.0541  0.0966 -0.4801
16255TIP3    H170180   6.176   3.508   2.152 -0.8137  0.0438 -3.5931
16255TIP3    H270181   6.104   3.375   2.155  0.1859 -0.5969  2.0214
16256TIP3   OH270182   4.958   0.974  10.477 -0.2899  0.0126 -0.0574
16256TIP3    H170183   5.016   1.028  10.423  1.2589 -0.5626  0.9866
16256TIP3    H270184   4.951   1.021  10.560 -0.5598 -0.3874  0.1506
16257TIP3   OH270185   0.476   2.441   5.044 -0.2594  0.4871 -0.5751
16257TIP3    H170186   0.399   2.389   5.020 -0.5370  0.9026 -0.6093
16257TIP3    H270187   0.482   2.507   4.975 -0.5996  1.2110  0.0659
16258TIP3   OH270188   6.637   5.680   4.517  0.4037  0.5361 -0.1812
16258TIP3    H170189   6.635   5.751   4.582  0.4386  0.1976  0.1943
16258TIP3    H270190   6.718   5.632   4.537  0.2063  0.1870 -0.2153
16259TIP3   OH270191   2.068   2.606   1.372 -0.2903 -0.6194 -0.0956
16259TIP3    H170192   2.086   2.512   1.372 -2.7724 -1.1980  2.1881
16259TIP3    H270193   1.988   2.615   1.320 -1.3074 -0.1073  1.5071
16260TIP3   OH270194   3.677   3.917   3.691  0.2724 -0.2677 -0.1223
16260TIP3    H170195   3.728   3.997   3.680  1.1083 -0.6876  0.5876
16260TIP3    H270196   3.645   3.896   3.603  2.2153 -0.5712 -0.8015
16261TIP3   OH270197   5.560   2.882   6.320 -0.4565 -0.4398  0.0177
16261TIP3    H170198   5.498   2.948   6.288 -0.4085  0.1786  1.1240
16261TIP3    H270199   5.511   2.834   6.387  0.4031  0.4479  1.3313
16262TIP3   OH270200   1.045   1.147  12.090  0.1604 -0.4320 -0.1005
16262TIP3    H170201   1.062   1.230  12.045  1.0481 -1.2248 -1.3036
16262TIP3    H270202   0.983   1.101  12.032 -0.5399 -0.4953  0.6903
16263TIP3   OH270203   6.472   2.223  11.353  0.0201  0.4928 -0.9175
16263TIP3    H170204   6.505   2.246  11.440 -0.1455  0.5761 -0.8775
16263TIP3    H270205   6.537   2.161  11.319 -0.2427 -0.0362 -0.4770
16264TIP3   OH270206   2.389   1.342   2.414 -0.1987 -0.0626  0.2325
16264TIP3    H170207   2.335   1.289   2.355  1.0738 -0.6036 -0.5006
16264TIP3    H270208   2.479   1.329   2.382  0.4033  0.5831  1.5771
16265TIP3   OH270209   6.034   6.669   3.556  0.1477 -0.2927  0.3389
16265TIP3    H170210   6.054   6.740   3.618  0.2837  0.6551 -0.7519
16265TIP3    H270211   6.105   6.673   3.492  0.8004 -2.1956  0.8791
16266TIP3   OH270212   5.546   2.834   6.019  0.5480 -0.1154  0.4748
16266TIP3    H170213   5.641   2.835   6.010  0.6213 -1.2731  0.9811
16266TIP3    H270214   5.526   2.913   6.068  0.9820  1.5012 -1.7777
16267TIP3   OH270215   3.214   3.071  14.968 -0.2760 -0.0287 -0.2075
16267TIP3    H170216   3.175   3.128  15.034  0.7580 -1.0751  1.3706
16267TIP3    H270217   3.305   3.100  14.962 -0.4776  0.3907 -1.5828
16268TIP3   OH270218   2.069   5.528  11.891  0.2090  0.0674 -0.0995
16268TIP3    H170219   2.003   5.592  11.865 -0.9284  0.0976  2.6169
16268TIP3    H270220   2.028   5.443  11.877  0.0962  0.0473  0.3575
16269TIP3   OH270221   4.749   6.138   2.750  0.0556 -0.2185 -0.0269
16269TIP3    H170222   4.674   6.123   2.694 -2.1348  3.0484  1.7130
16269TIP3    H270223   4.808   6.192   2.697 -0.6791  0.4798 -0.1547
16270TIP3   OH270224   0.135   1.244  12.845  0.3764  0.5323  0.0869
16270TIP3    H170225   0.174   1.223  12.760 -0.0233  1.8281 -0.4311
16270TIP3    H270226   0.211   1.262  12.901  0.6230  0.2549 -0.1529
16271TIP3   OH270227   5.074   6.133   0.195 -0.0872  0.3219 -0.3151
16271TIP3    H170228   5.102   6.042   0.205  0.0795  0.3866 -0.1765
16271TIP3    H270229   5.131   6.182   0.254 -1.4728  0.2947  1.0994
16272TIP3   OH270230   1.376   2.062  13.709 -0.3784 -0.1267 -0.3685
16272TIP3    H170231   1.386   2.131  13.643  0.2884  0.9986  0.8347
16272TIP3    H270232   1.282   2.055  13.721 -0.5043 -0.2746 -1.3568
16273TIP3   OH270233   1.208   6.096   4.689 -0.2269 -0.2893 -0.4437
16273TIP3    H170234   1.244   6.152   4.621 -0.3167  1.0966  0.6052
16273TIP3    H270235   1.129   6.059   4.650 -0.7769  1.2007 -0.8149
16274TIP3   OH270236   5.083   4.634   0.498 -0.4925  0.4632  0.3151
16274TIP3    H170237   5.070   4.647   0.592  0.2275  2.0193  0.2312
16274TIP3    H270238   5.074   4.721   0.460  1.3395  0.2239 -0.7847
16275TIP3   OH270239   3.086   1.205  11.958  0.5889 -0.0359  0.1224
16275TIP3    H170240   3.179   1.184  11.947  0.1594 -1.3412 -1.6078
16275TIP3    H270241   3.054   1.217  11.868 -0.7589  1.1994  0.7244
16276TIP3   OH270242   2.725   3.685  13.955  0.5392 -0.2329 -0.1210
16276TIP3    H170243   2.805   3.737  13.956  1.4071 -1.4999 -0.9421
16276TIP3    H270244   2.738   3.621  13.885 -0.9827 -0.7918  0.0622
16277TIP3   OH270245   2.754   2.727   1.852  0.0552 -0.3254 -0.1589
16277TIP3    H170246   2.844   2.697   1.839 -0.6818 -2.2639 -1.3574
16277TIP3    H270247   2.728   2.688   1.936  0.3710  0.3888  0.2786
16278TIP3   OH270248   1.036   2.170  13.671  0.4779 -0.0007 -0.0606
16278TIP3    H170249   1.023   2.114  13.594  0.3231 -0.0136 -0.0261
16278TIP3    H270250   0.947   2.183  13.706 -0.0119  2.9635 -1.9753
16279TIP3   OH270251   0.532   0.703   4.827 -0.1723 -0.0995  0.2358
16279TIP3    H170252   0.530   0.689   4.922 -0.3040 -0.9106  0.1234
16279TIP3    H270253   0.457   0.652   4.795 -0.0713  0.1001 -0.3140
16280TIP3   OH270254   2.242   3.966   4.761 -0.5318  0.0325  0.5888
16280TIP3    H170255   2.154   4.002   4.776 -0.4849  0.7068 -0.6603
16280TIP3    H270256   2.299   4.043   4.756  0.3192 -0.4260  2.2865
16281TIP3   OH270257   6.343   5.640   1.522  0.1606 -0.2878  0.0403
16281TIP3    H170258   6.434   5.626   1.549  0.8433  0.7773 -1.5857
16281TIP3    H270259   6.322   5.728   1.554 -0.7307 -0.9542  1.4143
16282TIP3   OH270260   2.461   1.935   3.760 -0.3322  0.5838  0.6277
16282TIP3    H170261   2.446   1.861   3.819 -2.1898 -1.8361 -2.5576
16282TIP3    H270262   2.436   2.012   3.812 -2.7474 -1.4243  2.7597
16283TIP3   OH270263   3.240   6.094  14.557 -0.6943  0.1718  0.0086
16283TIP3    H170264   3.160   6.068  14.602  0.2469 -0.6052  1.2855
16283TIP3    H270265   3.260   6.021  14.499  1.2409 -1.5427  2.6500
16284TIP3   OH270266   6.717   4.412  17.075  0.5371  0.3599  0.5269
16284TIP3    H170267   6.716   4.333  17.128  1.7063  1.1195  1.7493
16284TIP3    H270268   6.633   4.454  17.093 -0.9201 -1.4468 -1.5713
16285TIP3   OH270269   5.873   6.711  16.613  0.5064 -0.4863 -0.2083
16285TIP3    H170270   5.778   6.716  16.624  0.6179  2.8908  0.2355
16285TIP3    H270271   5.888   6.738  16.522  1.0666 -0.5386 -0.1352
16286TIP3   OH270272   1.378   2.019  12.816 -0.6869  0.0262  0.6926
16286TIP3    H170273   1.329   1.938  12.832 -0.8416  0.1097  0.6424
16286TIP3    H270274   1.402   2.014  12.724  0.7946 -0.7802  1.0810
16287TIP3   OH270275   6.024   5.519   2.130  0.0819  0.4152  0.2094
16287TIP3    H170276   6.015   5.447   2.067  0.0037  0.5514  0.0638
16287TIP3    H270277   6.022   5.477   2.215  0.6333  0.1796  0.1135
16288TIP3   OH270278   0.956   1.285   5.358  0.2842 -0.5948  0.1839
16288TIP3    H170279   0.902   1.335   5.297 -0.9702 -1.7775  0.2856
16288TIP3    H270280   1.002   1.222   5.303 -1.3042 -2.0635  0.4746
16289TIP3   OH270281   3.648   3.780   3.184  0.1503 -0.0891  0.0203
16289TIP3    H170282   3.708   3.717   3.226  1.7049  0.3020 -1.5030
16289TIP3    H270283   3.695   3.809   3.106 -1.8174  0.7054 -0.9211
16290TIP3   OH270284   0.405   1.778   1.522 -0.1403 -0.4309  0.4934
16290TIP3    H170285   0.375   1.868   1.510  0.9019  0.1223  1.7179
16290TIP3    H270286   0.368   1.750   1.606 -1.1289 -1.4576 -0.2581
16291TIP3   OH270287   5.203   4.056  14.529 -0.5017  0.0185 -0.1806
16291TIP3    H170288   5.194   4.147  14.501  0.8532 -0.2603 -1.6289
16291TIP3    H270289   5.182   4.005  14.451  0.5329 -0.8714  0.1083
16292TIP3   OH270290   6.569   1.728   0.613  0.1560  0.4967 -0.4886
16292TIP3    H170291   6.545   1.641   0.580  0.1739  0.6006 -0.7755
16292TIP3    H270292   6.617   1.769   0.541 -0.5218  1.0368 -0.6509
16293TIP3   OH270293   5.904   3.130   2.309  0.4510  0.3763 -0.0622
16293TIP3    H170294   5.884   3.224   2.312 -0.9179  0.0959  0.8233
16293TIP3    H270295   5.947   3.117   2.225 -2.0875  1.3188 -1.6254
16294TIP3   OH270296   4.673   5.671   0.873 -0.5787 -0.3611 -1.0009
16294TIP3    H170297   4.630   5.752   0.846 -1.7397 -0.2873  0.8866
16294TIP3    H270298   4.712   5.692   0.958  1.0852 -1.1625 -1.5212
16295TIP3   OH270299   3.765   6.686   1.344 -0.1474  0.1941 -0.5562
16295TIP3    H170300   3.791   6.654   1.257 -1.7649  1.3441 -1.5293
16295TIP3    H270301   3.734   6.609   1.391  0.1238 -0.3425 -1.2436
16296TIP3   OH270302   1.581   5.709   2.625 -0.1610 -0.3487 -0.0207
16296TIP3    H170303   1.529   5.728   2.703 -1.3142 -0.1023 -0.8297
16296TIP3    H270304   1.656   5.768   2.631 -0.5400  0.0839  0.6052
16297TIP3   OH270305   0.932   6.557   1.590 -0.5559 -0.2446 -0.0477
16297TIP3    H170306   1.026   6.574   1.598 -0.0967 -1.3076 -2.3538
16297TIP3    H270307   0.926   6.464   1.567 -2.1247 -0.0537 -0.5649
16298TIP3   OH270308   0.952   2.228   0.566  0.2124 -0.2305  0.7300
16298TIP3    H170309   1.002   2.153   0.534  0.1939  0.5921 -1.3692
16298TIP3    H270310   0.871   2.190   0.599 -0.0918 -1.1185 -0.9315
16299TIP3   OH270311   3.064   5.509   5.349  0.4607 -0.5850  0.4563
16299TIP3    H170312   3.024   5.550   5.426  1.3903 -3.0326  2.4118
16299TIP3    H270313   3.153   5.544   5.347  0.2601 -0.0811  0.1091
16300TIP3   OH270314   2.742   0.997  11.913  0.1902  0.0450 -0.2541
16300TIP3    H170315   2.773   1.055  11.982  1.5897 -0.7118 -0.1965
16300TIP3    H270316   2.712   1.055  11.844  0.1919  0.8170  0.3845
16301TIP3   OH270317   4.788   1.527   1.104 -0.3741 -0.2102 -0.7729
16301TIP3    H170318   4.860   1.502   1.162 -0.3540  0.2819 -0.5823
16301TIP3    H270319   4.789   1.460   1.036 -1.4850 -1.7989  0.6827
16302TIP3   OH270320   5.522   5.810  11.366  0.1074 -0.4366 -0.1915
16302TIP3    H170321   5.514   5.740  11.430 -2.4985 -2.7918 -2.8250
16302TIP3    H270322   5.574   5.772  11.295  1.3501  1.4732 -0.3879
16303TIP3   OH270323   2.448   1.479   1.049 -0.1595  0.0835 -0.1117
16303TIP3    H170324   2.411   1.511   0.967 -0.4737 -2.1429 -0.9112
16303TIP3    H270325   2.374   1.438   1.095  0.7383 -2.3265 -0.6575
16304TIP3   OH270326   5.740   2.481  15.513 -0.3490  0.2302  0.2669
16304TIP3    H170327   5.650   2.449  15.503 -0.3080  0.3744 -0.7130
16304TIP3    H270328   5.765   2.508  15.425  0.9322 -0.5399  0.3656
16305TIP3   OH270329   0.079   0.810   3.499  0.3381 -0.9542 -0.5077
16305TIP3    H170330   0.155   0.758   3.474  0.3727 -0.9795 -0.3511
16305TIP3    H270331   0.115   0.895   3.526  0.2541 -0.7212 -1.1023
16306TIP3   OH270332   4.381   0.742  16.913 -0.4377 -0.6485 -0.4070
16306TIP3    H170333   4.369   0.683  16.987  0.3778 -0.7692 -0.3629
16306TIP3    H270334   4.433   0.692  16.850  2.5723  0.8288  0.7169
16307TIP3   OH270335   3.578   0.329   3.221 -0.2364 -0.3776 -0.4710
16307TIP3    H170336   3.597   0.421   3.239  0.4103 -0.7523  0.9281
16307TIP3    H270337   3.538   0.329   3.134  2.6575  0.8874 -1.9256
16308TIP3   OH270338   4.910   6.482   1.187 -0.2520  0.4288  0.1880
16308TIP3    H170339   4.872   6.421   1.123  0.0414 -0.2338  0.6306
16308TIP3    H270340   4.834   6.527   1.225 -0.3928  1.2226 -1.0050
16309TIP3   OH270341   3.069   2.722   2.753 -0.3182 -0.3544  0.5648
16309TIP3    H170342   2.977   2.701   2.773 -0.2772  0.3580  1.5377
16309TIP3    H270343   3.114   2.638   2.760 -1.0506 -0.9212 -0.9773
16310TIP3   OH270344   4.884   4.569   3.569 -0.0619 -0.2850  0.1040
16310TIP3    H170345   4.849   4.628   3.636 -0.5995  0.0308 -0.4489
16310TIP3    H270346   4.976   4.557   3.594 -0.1370  0.2038  0.6352
16311TIP3   OH270347   0.442   2.463   0.058 -0.1244  0.8068 -0.0854
16311TIP3    H170348   0.442   2.512   0.139 -0.7112  0.5827  0.0587
16311TIP3    H270349   0.413   2.375   0.083 -1.9220  1.1682 -0.7676
16312TIP3   OH270350   6.060   2.746   5.654  0.6244 -0.3824 -0.1644
16312TIP3    H170351   6.092   2.691   5.583 -0.0005  0.7484 -1.3706
16312TIP3    H270352   6.050   2.833   5.615  1.6378  0.6356  1.6886
16313TIP3   OH270353   2.993   0.349   4.463  0.1231  0.2409 -0.2080
16313TIP3    H170354   3.004   0.305   4.548  0.2072  1.2541  0.3182
16313TIP3    H270355   3.032   0.289   4.400 -1.8163 -1.5565  0.1631
16314TIP3   OH270356   6.780   2.951  16.521  0.5205  0.0577 -0.0852
16314TIP3    H170357   6.686   2.941  16.530  0.7910 -1.1024  1.9549
16314TIP3    H270358   6.797   3.041  16.550 -0.0646  0.8136 -1.9260
16315TIP3   OH270359   0.227   0.329   2.864 -0.1319  0.1307  0.5985
16315TIP3    H170360   0.132   0.320   2.857  0.0901 -1.3210 -0.9242
16315TIP3    H270361   0.253   0.375   2.784  0.5601 -0.4872  0.4598
16316TIP3   OH270362   2.849   5.449  17.104 -0.0524  0.3025 -0.0697
16316TIP3    H170363   2.884   5.360  17.099 -1.3183 -0.3108  1.1739
16316TIP3    H270364   2.880   5.482  17.189 -1.6829  0.0536  0.6724
16317TIP3   OH270365   5.797   3.141  14.139 -0.2080  0.1940 -0.5379
16317TIP3    H170366   5.722   3.113  14.087 -0.2286 -0.4906 -0.1482
16317TIP3    H270367   5.869   3.144  14.077 -0.2455 -0.5629 -0.6293
16318TIP3   OH270368   1.905   4.889  16.324 -0.1733 -0.7196  0.2009
16318TIP3    H170369   1.836   4.830  16.293 -0.8512 -0.3037  0.9033
16318TIP3    H270370   1.895   4.967  16.269  1.0694 -1.4178 -1.1069
16319TIP3   OH270371   2.260   4.657  15.122  0.4425 -0.1911 -0.0061
16319TIP3    H170372   2.312   4.697  15.191 -1.8847 -0.0684  1.7645
16319TIP3    H270373   2.209   4.729  15.084  0.4077 -0.5557 -0.6831
16320TIP3   OH270374   3.292   5.303  12.168  0.1655 -0.3319 -0.0300
16320TIP3    H170375   3.319   5.216  12.140  0.9353 -0.4256  0.9602
16320TIP3    H270376   3.216   5.323  12.113  0.4796 -1.2751 -0.8408
16321TIP3   OH270377   2.763   3.298  10.959  0.2587  0.1765  0.2493
16321TIP3    H170378   2.685   3.256  10.997  3.0192 -4.1077  2.0010
16321TIP3    H270379   2.763   3.270  10.868  0.3054 -0.8461  0.5493
16322TIP3   OH270380   5.680   2.700  13.352  0.3787  0.4613 -0.0405
16322TIP3    H170381   5.628   2.663  13.423  0.0716 -1.0734 -1.0009
16322TIP3    H270382   5.615   2.732  13.290  0.5621 -0.4551 -0.7344
16323TIP3   OH270383   2.922   4.029   0.525 -0.4771 -0.2159  0.5911
16323TIP3    H170384   2.854   3.971   0.561 -0.5770  0.0238  0.7941
16323TIP3    H270385   2.994   4.023   0.588 -0.7953  0.4890  1.0292
16324TIP3   OH270386   2.486   6.329   3.255  0.2472 -0.0392 -0.2991
16324TIP3    H170387   2.518   6.303   3.342 -1.4209 -0.1692  0.3344
16324TIP3    H270388   2.410   6.385   3.274 -1.6752 -2.0405 -1.6230
16325TIP3   OH270389   3.211   1.791  11.056  0.4779  0.0404 -0.7817
16325TIP3    H170390   3.152   1.766  10.984  0.0487  2.1274 -1.2165
16325TIP3    H270391   3.293   1.747  11.036 -0.7950 -2.7729 -0.2906
16326TIP3   OH270392   5.011   2.328   1.197  0.3382 -0.0194  0.3352
16326TIP3    H170393   5.083   2.358   1.142  0.5930  1.9307  1.6286
16326TIP3    H270394   5.053   2.289   1.273 -0.0097 -1.6806 -0.2921
16327TIP3   OH270395   1.254   5.357   1.270 -0.1202 -0.5052 -0.1101
16327TIP3    H170396   1.343   5.323   1.260  1.1363  2.0184  1.3213
16327TIP3    H270397   1.214   5.303   1.337  1.1572 -0.3197  0.8279
16328TIP3   OH270398   0.214   1.114   1.519  0.8270 -0.2681 -0.3658
16328TIP3    H170399   0.214   1.064   1.600 -2.2769  1.9815  1.2395
16328TIP3    H270400   0.291   1.170   1.524 -0.6111  1.7286  2.5152
16329TIP3   OH270401   5.675   5.336  15.838  0.4892  0.1181  0.3653
16329TIP3    H170402   5.625   5.417  15.847  0.6845  0.0405  3.3299
16329TIP3    H270403   5.763   5.364  15.813 -0.0213  0.5860 -0.9630
16330TIP3   OH270404   0.378   4.761   4.748 -0.3717 -0.0318 -0.3745
16330TIP3    H170405   0.418   4.837   4.706 -1.5116 -0.0370 -1.5509
16330TIP3    H270406   0.286   4.787   4.762 -0.0376 -0.0070  2.2542
16331TIP3   OH270407   2.037   1.117   1.292  0.1540  0.0269 -0.3045
16331TIP3    H170408   2.047   1.120   1.196  0.8170 -0.6797 -0.2699
16331TIP3    H270409   1.958   1.065   1.306  0.7538 -0.9469 -0.4536
16332TIP3   OH270410   2.584   0.179  14.147 -0.3056  0.4179  0.6669
16332TIP3    H170411   2.651   0.121  14.111 -0.6106  0.4691 -0.0059
16332TIP3    H270412   2.623   0.215  14.226  0.1429 -0.1911  0.7307
16333TIP3   OH270413   6.079   3.674   6.022  0.0036 -0.2188  0.5001
16333TIP3    H170414   6.152   3.690   6.082 -1.4560  0.2942  2.2294
16333TIP3    H270415   6.078   3.752   5.965  0.5338 -0.0271  0.7475
16334TIP3   OH270416   6.629   5.992  11.936 -0.0655  0.0243  0.2503
16334TIP3    H170417   6.687   5.922  11.967  0.0850 -0.6228 -1.3553
16334TIP3    H270418   6.565   5.946  11.881 -0.3933  1.0747 -0.2565
16335TIP3   OH270419   1.682   2.615   2.863 -0.3054 -0.6299  0.5754
16335TIP3    H170420   1.701   2.703   2.896  0.1705 -0.6296  0.3117
16335TIP3    H270421   1.598   2.592   2.903 -0.8062  0.2465  0.0499
16336TIP3   OH270422   6.641   4.613  15.822 -0.1560 -0.1274 -0.3512
16336TIP3    H170423   6.549   4.605  15.845  0.0037  1.5034  1.0946
16336TIP3    H270424   6.642   4.673  15.747 -0.2590  0.3694  0.0353
16337TIP3   OH270425   3.540   2.472  16.927  0.0838  0.1054 -0.7526
16337TIP3    H170426   3.475   2.538  16.954  1.6945  0.4832  2.7641
16337TIP3    H270427   3.621   2.521  16.916  0.7302 -0.9267 -0.7110
16338TIP3   OH270428   3.113   6.208   4.322 -0.4791 -0.1334  0.5656
16338TIP3    H170429   3.063   6.256   4.256  0.3382  0.1421  0.1362
16338TIP3    H270430   3.128   6.123   4.283 -1.7121 -0.6927  1.2271
16339TIP3   OH270431   5.207   5.743   4.872 -0.4416 -0.0615 -0.9341
16339TIP3    H170432   5.230   5.671   4.931  0.9367 -0.8137 -2.3245
16339TIP3    H270433   5.188   5.700   4.788 -0.7271  1.1023 -1.4880
16340TIP3   OH270434   6.584   3.602  13.018 -0.0808  0.3481 -0.1665
16340TIP3    H170435   6.638   3.676  12.990  1.4697 -0.4850  0.5102
16340TIP3    H270436   6.500   3.615  12.973  0.8226  1.4216 -1.6284
16341TIP3   OH270437   5.095   3.906  16.758  0.1814 -0.0603  0.9566
16341TIP3    H170438   5.105   3.816  16.729  0.5635 -0.3539  1.9422
16341TIP3    H270439   5.118   3.959  16.682 -0.0327 -0.7920  0.3790
16342TIP3   OH270440   0.323   4.138  10.918 -0.1077  0.2852 -0.0217
16342TIP3    H170441   0.327   4.119  10.824  0.6474  1.2357 -0.2002
16342TIP3    H270442   0.242   4.097  10.947 -1.4396  1.7453 -1.5046
16343TIP3   OH270443   1.233   2.292  10.718 -0.3994 -0.0838  0.7747
16343TIP3    H170444   1.234   2.200  10.746 -1.1160 -0.0772  0.8309
16343TIP3    H270445   1.168   2.295  10.647  0.6063  0.1142 -0.1746
16344TIP3   OH270446   1.784   6.418   5.596 -0.4198 -0.5086 -0.1507
16344TIP3    H170447   1.724   6.451   5.530 -1.7029 -0.2853  1.0805
16344TIP3    H270448   1.849   6.488   5.607  0.8914 -1.2711 -2.4013
16345TIP3   OH270449   3.714   0.279   5.597 -0.0012 -0.3360 -0.2510
16345TIP3    H170450   3.804   0.311   5.599  0.3896 -1.4455  1.5184
16345TIP3    H270451   3.722   0.186   5.578 -0.4477 -1.2299  3.2791
16346TIP3   OH270452   6.543   0.021   4.340 -0.7533 -0.0457  0.3054
16346TIP3    H170453   6.593   0.053   4.265 -1.3056  1.9276  0.7302
16346TIP3    H270454   6.553  -0.074   4.336 -0.9077 -0.0271 -2.3540
16347TIP3   OH270455   6.723   0.992   4.765 -0.3550  0.3482 -0.0585
16347TIP3    H170456   6.771   1.068   4.732 -0.3761  0.9348  1.1700
16347TIP3    H270457   6.778   0.960   4.837 -2.0283  1.3992  1.7745
16348TIP3   OH270458   3.042   2.252  12.043 -0.1728 -0.1120 -0.0494
16348TIP3    H170459   3.027   2.293  11.957 -0.7026  0.8375  0.4735
16348TIP3    H270460   3.069   2.163  12.023 -1.5767 -0.3259 -1.1905
16349TIP3   OH270461   2.542   2.197   4.824 -0.3092 -0.8274  0.0384
16349TIP3    H170462   2.611   2.130   4.828 -0.4045 -1.0167 -1.0962
16349TIP3    H270463   2.563   2.247   4.745 -0.0287  0.7303  1.0660
16350TIP3   OH270464   4.414   0.444  16.922 -0.1331  0.3530 -0.3183
16350TIP3    H170465   4.400   0.486  17.007  1.8931  0.8564 -0.1866
16350TIP3    H270466   4.327   0.412  16.897 -0.8650  0.5639  1.7309
16351TIP3   OH270467   5.051   2.893   5.172 -0.0932  0.4382 -0.0682
16351TIP3    H170468   5.057   2.829   5.101 -0.7653 -0.7748  0.9216
16351TIP3    H270469   5.123   2.953   5.157  1.5610 -1.4635 -0.1734
16352TIP3   OH270470   6.441   2.739  15.575 -0.0717 -0.5879  0.0990
16352TIP3    H170471   6.436   2.767  15.667 -0.0032 -3.2539  1.0131
16352TIP3    H270472   6.529   2.701  15.567  0.2713  0.4517 -1.3757
16353TIP3   OH270473   2.980   3.124   0.104 -0.7708 -0.1078  0.4097
16353TIP3    H170474   2.984   3.156   0.194  0.7974 -0.6102  0.5427
16353TIP3    H270475   2.906   3.063   0.104 -1.9328  1.2596  0.8765
16354TIP3   OH270476   3.772   4.633  16.499  0.0572  0.3734 -0.1004
16354TIP3    H170477   3.770   4.629  16.404 -0.3357  1.4162 -0.1432
16354TIP3    H270478   3.685   4.607  16.527 -0.6823  2.5802 -0.1567
16355TIP3   OH270479   1.419   6.668  17.062 -0.2420  0.4292  1.0074
16355TIP3    H170480   1.468   6.614  16.999 -0.9564 -1.3435  1.9016
16355TIP3    H270481   1.463   6.753  17.060  0.0839  0.2678 -1.4766
16356TIP3   OH270482   3.420   5.819   5.952 -0.6766 -0.3791 -0.0332
16356TIP3    H170483   3.515   5.813   5.943 -0.5632  0.1139  0.7263
16356TIP3    H270484   3.387   5.737   5.915  0.0134 -0.3638 -0.6921
16357TIP3   OH270485   6.362   5.994  14.418 -0.6588 -0.4547  0.1772
16357TIP3    H170486   6.306   6.072  14.421  1.0951  1.0024 -1.7741
16357TIP3    H270487   6.336   5.949  14.338 -0.7653 -1.1697  0.6098
16358TIP3   OH270488   3.330   5.649  13.404  0.0529 -0.2837  0.0959
16358TIP3    H170489   3.319   5.744  13.395 -0.5863 -0.2469  1.0834
16358TIP3    H270490   3.251   5.613  13.364 -0.5310 -0.3105  1.2262
16359TIP3   OH270491   1.993   3.956  16.093  0.2309  0.0833 -0.0493
16359TIP3    H170492   1.985   3.954  15.997 -0.5375  0.5162 -0.0022
16359TIP3    H270493   2.043   3.877  16.114 -0.8241 -0.7949 -0.7012
16360TIP3   OH270494   3.541   0.816   3.016  0.2428 -0.1872  0.1621
16360TIP3    H170495   3.568   0.908   3.021 -0.3504 -0.0423  0.8214
16360TIP3    H270496   3.477   0.814   2.945  1.9178 -0.5376 -1.4348
16361TIP3   OH270497   5.432   5.959  10.837  0.2000 -0.0931 -0.3207
16361TIP3    H170498   5.414   5.870  10.869 -0.8421  0.2313  0.0181
16361TIP3    H270499   5.428   5.951  10.742 -0.6061 -0.2637 -0.2755
16362TIP3   OH270500   4.212   5.598   3.774 -0.0106  0.1070 -0.1897
16362TIP3    H170501   4.146   5.590   3.705 -0.5919  0.8666  0.2608
16362TIP3    H270502   4.191   5.681   3.818  2.7008  1.6564 -1.5564
16363TIP3   OH270503   1.825   3.300  15.336 -0.1142  0.2887 -0.2222
16363TIP3    H170504   1.826   3.390  15.368 -1.0352  0.2864 -0.1512
16363TIP3    H270505   1.737   3.287  15.302  0.0711 -0.5188 -0.4360
16364TIP3   OH270506   3.164   3.502  16.500  0.4674 -0.2317  0.9027
16364TIP3    H170507   3.117   3.498  16.416  2.9086 -0.5494 -0.5483
16364TIP3    H270508   3.098   3.532  16.562 -1.2930  0.6857 -1.2482
16365TIP3   OH270509   5.370   6.515   4.539 -0.0444  0.1164 -0.1358
16365TIP3    H170510   5.323   6.482   4.462  1.3818 -2.4350 -0.0295
16365TIP3    H270511   5.462   6.499   4.519  0.5065  1.4064  1.2426
16366TIP3   OH270512   6.115   5.632  15.627 -0.0804 -0.5630  0.2229
16366TIP3    H170513   6.037   5.662  15.673  0.3576 -0.2069  0.7454
16366TIP3    H270514   6.160   5.575  15.690  1.2267  1.0151  0.7804
16367TIP3   OH270515   2.561   6.555   0.462  0.2754  0.0117  0.1923
16367TIP3    H170516   2.504   6.505   0.520 -0.7205  0.1614 -0.6188
16367TIP3    H270517   2.612   6.611   0.520 -2.8566  2.4375  0.8380
16368TIP3   OH270518   1.698   3.877  13.281 -0.2161 -0.0841 -0.3525
16368TIP3    H170519   1.686   3.882  13.376  2.6189 -0.6474  0.1503
16368TIP3    H270520   1.629   3.932  13.244 -2.0432 -0.6812  1.9417
16369TIP3   OH270521   3.236   4.389   3.794 -0.1685 -0.0446 -0.0381
16369TIP3    H170522   3.284   4.388   3.712  0.3305  2.0596  0.1898
16369TIP3    H270523   3.192   4.474   3.796  1.2045  0.7123  2.6037
16370TIP3   OH270524   5.783   1.918   5.417  0.0541 -0.0880  0.5849
16370TIP3    H170525   5.864   1.958   5.385 -0.6381  0.2599 -0.8416
16370TIP3    H270526   5.761   1.969   5.495 -1.1231  2.9142 -1.4976
16371TIP3   OH270527   5.266   0.177   6.443  0.0998 -0.1287  0.3180
16371TIP3    H170528   5.276   0.090   6.482  1.0316  0.2598  0.9750
16371TIP3    H270529   5.180   0.174   6.400  0.7377 -1.8798 -0.9751
16372TIP3   OH270530   3.504   1.967  13.446 -0.2514  1.1016  0.2653
16372TIP3    H170531   3.497   1.947  13.539  0.9323 -0.8341 -0.0103
16372TIP3    H270532   3.451   2.046  13.435  0.7493  2.2664  2.8411
16373TIP3   OH270533   2.390   4.720  16.777  0.2437 -0.0638 -0.3537
16373TIP3    H170534   2.428   4.804  16.805  3.1839 -1.9835  2.0045
16373TIP3    H270535   2.399   4.721  16.681 -1.7316  3.0354 -0.6507
16374TIP3   OH270536   2.138   3.917  15.594  0.1155 -0.1107  0.3826
16374TIP3    H170537   2.145   3.992  15.653 -0.5989  0.5034 -0.2918
16374TIP3    H270538   2.162   3.951  15.508 -0.2624 -0.6471  0.0563
16375TIP3   OH270539   6.267   6.547  11.166  0.2804 -0.2896 -0.3807
16375TIP3    H170540   6.210   6.477  11.132 -0.3271  0.1533 -0.2890
16375TIP3    H270541   6.230   6.567  11.252  0.8330 -0.2827 -0.1441
16376TIP3   OH270542   5.758   1.515  14.320  0.2311  0.1104  0.4028
16376TIP3    H170543   5.736   1.444  14.380 -0.2661  0.1578  0.2807
16376TIP3    H270544   5.851   1.502  14.300 -0.0877 -1.1201 -0.4031
16377TIP3   OH270545   4.458   4.455   5.310  0.0714  0.0588 -0.3670
16377TIP3    H170546   4.395   4.397   5.268  0.8247 -1.3460  0.3741
16377TIP3    H270547   4.420   4.475   5.396  0.3506 -0.3073 -0.1555
16378TIP3   OH270548   3.452   2.743  16.486  0.1898  0.0498  0.1857
16378TIP3    H170549   3.400   2.821  16.467  1.6207  0.8576 -0.5754
16378TIP3    H270550   3.395   2.689  16.540 -1.5687  0.7194 -0.9253
16379TIP3   OH270551   4.278   5.750   0.798 -0.1694  0.1624 -0.3229
16379TIP3    H170552   4.295   5.737   0.704  0.8153 -0.2286 -0.1080
16379TIP3    H270553   4.265   5.661   0.832 -0.7098  0.3180 -0.1212
16380TIP3   OH270554   3.416   2.127   5.608  0.2293 -0.1805 -0.3039
16380TIP3    H170555   3.364   2.077   5.671 -0.4653 -1.0527 -1.5207
16380TIP3    H270556   3.494   2.074   5.594 -0.5233 -0.9932 -1.6209
16381TIP3   OH270557   2.859   0.168  11.159  0.2098 -0.2307  0.1917
16381TIP3    H170558   2.909   0.225  11.101 -2.5632  0.8306 -1.3481
16381TIP3    H270559   2.768   0.199  11.151 -1.0196 -3.1542  1.3742
16382TIP3   OH270560   5.600   0.296   0.060  0.1257  0.0716  0.6241
16382TIP3    H170561   5.582   0.257   0.145  1.0588  0.5966  1.0722
16382TIP3    H270562   5.691   0.276   0.042 -0.3526 -1.0452 -0.8157
16383TIP3   OH270563   2.385   4.986   5.336  0.5272 -1.1253  0.7322
16383TIP3    H170564   2.451   4.922   5.360  1.3104 -0.2987  0.8358
16383TIP3    H270565   2.390   4.993   5.241  0.7877 -0.8683  0.7617
16384TIP3   OH270566   4.426   4.000   3.352  0.3148 -0.3383  0.2418
16384TIP3    H170567   4.421   4.062   3.425 -0.2558 -1.4154  1.1515
16384TIP3    H270568   4.387   4.047   3.278  0.1849  0.5023  0.8311
16385TIP3   OH270569   4.094   2.214  12.361  0.1753 -0.5625  0.0546
16385TIP3    H170570   4.077   2.170  12.278  1.6823  1.4895 -1.4517
16385TIP3    H270571   4.139   2.148  12.414  0.5836 -1.4821 -1.3574
16386TIP3   OH270572   0.382   6.147  12.339 -0.0528  0.4084 -0.4219
16386TIP3    H170573   0.420   6.201  12.409  1.4674  3.8248 -3.5060
16386TIP3    H270574   0.450   6.082  12.320 -0.0709  0.0729  0.6124
16387TIP3   OH270575   5.631   4.754  14.100  0.5030  0.0420  0.4462
16387TIP3    H170576   5.602   4.781  14.013 -1.3780 -1.1244  0.6721
16387TIP3    H270577   5.661   4.664  14.089 -1.2129 -0.6619  1.2614
16388TIP3   OH270578   2.614   3.408   3.526 -0.0656 -0.4071 -0.1190
16388TIP3    H170579   2.568   3.412   3.442  0.9257  1.7236 -0.6324
16388TIP3    H270580   2.663   3.490   3.530  0.0914 -0.5613  2.4715
16389TIP3   OH270581   1.464   3.790   1.279 -0.1089  0.6632  0.1067
16389TIP3    H170582   1.375   3.812   1.252 -0.5595 -0.2883  0.7640
16389TIP3    H270583   1.454   3.750   1.365  0.8967 -0.0856 -0.1054
16390TIP3   OH270584   5.622   6.161   4.396  0.1411  0.6601  0.1068
16390TIP3    H170585   5.646   6.171   4.488 -0.2316  1.9666  0.0723
16390TIP3    H270586   5.659   6.237   4.352  1.1206 -0.4199 -1.0185
16391TIP3   OH270587   5.986   0.966  14.556  0.0214  0.3915 -0.0669
16391TIP3    H170588   6.010   0.899  14.493  0.6349  0.3544  0.2008
16391TIP3    H270589   6.069   0.998  14.591 -0.3159 -0.2487  1.4157
16392TIP3   OH270590   4.728   2.576   4.551  0.3709  0.2719  0.1150
16392TIP3    H170591   4.638   2.595   4.526  0.0472 -1.5025 -0.1944
16392TIP3    H270592   4.739   2.483   4.531  1.6872 -0.0070  1.9326
16393TIP3   OH270593   1.401   1.104   0.647  0.2037 -0.7905 -0.3493
16393TIP3    H170594   1.371   1.180   0.697  0.9898 -0.1583 -0.8192
16393TIP3    H270595   1.333   1.038   0.661 -1.0058  0.3255 -0.7376
16394TIP3   OH270596   5.350   3.886   3.756  0.2925 -0.0164 -0.0299
16394TIP3    H170597   5.395   3.907   3.838 -0.1604  2.2677 -0.3216
16394TIP3    H270598   5.295   3.810   3.778  1.1116 -0.2351  1.4263
16395TIP3   OH270599   4.652   3.596   4.352  0.2022  0.3335 -0.4080
16395TIP3    H170600   4.675   3.566   4.440 -0.3793  1.7312  0.2472
16395TIP3    H270601   4.559   3.578   4.344 -0.4326  2.7809  0.4230
16396TIP3   OH270602   1.003   5.642   4.331 -0.4914  0.0111  0.7475
16396TIP3    H170603   1.066   5.580   4.366  0.9469  0.6511 -0.6247
16396TIP3    H270604   1.046   5.727   4.339 -1.7753  0.6609  1.0969
16397TIP3   OH270605   4.155   4.266   2.792 -0.0195 -0.7146 -0.6841
16397TIP3    H170606   4.240   4.269   2.838 -0.9841 -0.1485  1.1741
16397TIP3    H270607   4.157   4.183   2.745  2.1275 -0.0659 -1.8685
16398TIP3   OH270608   1.826   0.375  12.852  0.4015 -0.2680 -0.5443
16398TIP3    H170609   1.897   0.313  12.835  0.5036 -0.7247  1.2751
16398TIP3    H270610   1.752   0.342  12.801  0.9920 -0.8016 -1.0751
16399TIP3   OH270611   3.237   4.967   5.633 -0.0372  0.2424 -0.1038
16399TIP3    H170612   3.200   5.013   5.558  2.4464  0.4961 -1.2750
16399TIP3    H270613   3.216   5.022   5.708 -2.3876  0.0922 -0.5754
16400TIP3   OH270614   6.712   3.789   4.068  0.1216 -0.2271  0.0843
16400TIP3    H170615   6.701   3.701   4.105 -0.0915 -0.6400 -0.9274
16400TIP3    H270616   6.789   3.824   4.112  0.3809 -1.0360  0.2906
16401TIP3   OH270617   4.149   6.669  15.087 -0.0410  0.0138  0.2079
16401TIP3    H170618   4.189   6.600  15.139 -0.7894  0.2184  1.0662
16401TIP3    H270619   4.210   6.681  15.013  0.7019 -0.7126  0.6826
16402TIP3   OH270620   0.088   6.470  13.873  0.3639  0.5716  0.0073
16402TIP3    H170621   0.008   6.463  13.925  1.4125  1.2296  1.7981
16402TIP3    H270622   0.137   6.391  13.894  0.3914  0.3676 -0.7722
16403TIP3   OH270623   6.002   3.749   2.271  0.1235  0.5345 -0.6830
16403TIP3    H170624   5.980   3.721   2.359  0.5327  2.0665 -0.0562
16403TIP3    H270625   6.090   3.714   2.256  0.2142  0.6005 -0.3195
16404TIP3   OH270626   6.597   0.591   5.096  0.3239 -0.2239  0.4746
16404TIP3    H170627   6.532   0.654   5.126 -0.0713 -0.4003  0.0088
16404TIP3    H270628   6.546   0.519   5.060  0.7572  0.4731 -1.6687
16405TIP3   OH270629   2.170   5.323   0.990  0.0349 -0.6061  0.1150
16405TIP3    H170630   2.092   5.365   1.026  0.2202 -0.8016  0.7516
16405TIP3    H270631   2.215   5.285   1.065  0.7221 -0.5430 -0.2452
16406TIP3   OH270632   0.662   6.634   3.461 -0.0227 -0.1706 -0.9078
16406TIP3    H170633   0.617   6.550   3.465 -2.6574  1.1017 -1.7073
16406TIP3    H270634   0.717   6.635   3.539 -2.2836 -1.4109  0.8173
16407TIP3   OH270635   6.715   5.195  10.676  0.1761  0.4834  0.2760
16407TIP3    H170636   6.754   5.138  10.609  1.6326  1.1962  0.4799
16407TIP3    H270637   6.643   5.144  10.712  3.3570 -2.7180  2.7918
16408TIP3   OH270638   0.893   5.272   5.252 -0.4705  0.1448  0.2108
16408TIP3    H170639   0.928   5.343   5.198  1.2923 -0.5114  0.4147
16408TIP3    H270640   0.902   5.194   5.197 -1.7349 -0.0595  0.2545
16409TIP3   OH270641   1.031   4.301  16.498  0.1568  0.0265  0.6140
16409TIP3    H170642   0.956   4.258  16.457  1.4605 -1.5874 -0.2190
16409TIP3    H270643   0.993   4.358  16.565 -1.8849  0.4875 -0.8419
16410TIP3   OH270644   4.965   0.027  12.872 -0.1877 -0.0017 -0.0389
16410TIP3    H170645   4.995   0.104  12.920  1.5032  0.7303 -2.1469
16410TIP3    H270646   5.001  -0.047  12.921 -1.7285  0.4524  1.9369
16411TIP3   OH270647   0.852   2.751  12.463 -0.3392 -0.3863 -0.1916
16411TIP3    H170648   0.827   2.795  12.544  0.3088  1.4299 -0.9037
16411TIP3    H270649   0.803   2.798  12.395  1.2320  0.0149 -1.0952
16412TIP3   OH270650   5.647   1.972  11.396 -0.0142 -0.2318 -0.5122
16412TIP3    H170651   5.567   1.963  11.447 -0.0280 -1.1486 -0.6819
16412TIP3    H270652   5.639   1.906  11.327  0.2415  0.6379 -1.3876
16413TIP3   OH270653   5.694   0.033   5.951  0.1580  0.5674 -0.3095
16413TIP3    H170654   5.711   0.024   5.857  1.3610 -0.0076 -0.0605
16413TIP3    H270655   5.638  -0.042   5.972  0.0060  0.6143 -0.5389
16414TIP3   OH270656   6.171   2.330   4.915  0.4399  0.9482  0.2840
16414TIP3    H170657   6.144   2.350   4.825  1.3088  1.7762  0.1962
16414TIP3    H270658   6.214   2.410   4.946 -0.2697  0.8373  1.6147
16415TIP3   OH270659   3.167   6.240  12.002 -0.5769  0.1796  0.6173
16415TIP3    H170660   3.090   6.257  12.055 -0.2000 -1.0345  1.6083
16415TIP3    H270661   3.149   6.282  11.918 -0.4816  3.6598  2.1806
16416TIP3   OH270662   1.460   3.713   4.334  0.0141  0.1441 -0.1274
16416TIP3    H170663   1.365   3.718   4.344  0.0054 -1.0055  0.5597
16416TIP3    H270664   1.474   3.710   4.239 -0.6929 -0.3750 -0.2278
16417TIP3   OH270665   0.720   2.376  15.166 -0.5786 -0.3291 -0.3490
16417TIP3    H170666   0.679   2.299  15.127 -1.0146 -1.3005  1.8831
16417TIP3    H270667   0.809   2.347  15.186 -0.2286  0.2926 -0.9651
16418TIP3   OH270668   6.650   0.742  17.060 -0.2485  0.4373 -0.2965
16418TIP3    H170669   6.588   0.746  17.133  0.4087 -0.8843  0.3773
16418TIP3    H270670   6.642   0.827  17.017 -1.5470  0.7873  0.5719
16419TIP3   OH270671   3.001   3.772  13.455  0.4401  0.0475 -0.2231
16419TIP3    H170672   3.069   3.759  13.522 -0.7491 -0.5558  0.9309
16419TIP3    H270673   3.048   3.773  13.372  1.9116  0.2515  0.5819
16420TIP3   OH270674   2.013   4.794   1.942  0.6338 -0.0217 -0.3742
16420TIP3    H170675   1.988   4.729   2.007  0.8912  0.3256  0.0808
16420TIP3    H270676   1.963   4.771   1.863 -0.2260 -0.0202  0.1621
16421TIP3   OH270677   0.362   2.070   1.666  0.1231  0.8384  0.2402
16421TIP3    H170678   0.301   2.137   1.635 -1.6290 -0.9347 -0.3339
16421TIP3    H270679   0.422   2.056   1.593 -1.1954 -0.1087 -0.7022
16422TIP3   OH270680   0.140   3.679   6.036  0.4710 -0.0549  0.0828
16422TIP3    H170681   0.102   3.755   5.991  0.9954 -0.8609 -1.8254
16422TIP3    H270682   0.095   3.676   6.120 -2.4244  0.0860 -1.3211
16423TIP3   OH270683   2.618   0.057  12.722 -0.3865  0.3420  0.3019
16423TIP3    H170684   2.634  -0.033  12.696 -1.0825 -0.1346  1.4420
16423TIP3    H270685   2.575   0.097  12.646  2.4472  0.5501 -1.3020
16424TIP3   OH270686   4.185   3.024  14.414 -0.2169 -0.0149  0.2495
16424TIP3    H170687   4.201   2.939  14.455  0.3906  0.2467  0.5692
16424TIP3    H270688   4.245   3.026  14.339 -2.2314 -1.0311 -1.4921
16425TIP3   OH270689   3.393   3.711   3.422  0.0976 -0.1723 -0.3360
16425TIP3    H170690   3.340   3.717   3.342  0.8655 -1.9080 -1.0440
16425TIP3    H270691   3.471   3.762   3.403  0.5048 -0.9830 -0.9387
16426TIP3   OH270692   3.435   5.943   1.212  0.5509  0.2683 -0.2064
16426TIP3    H170693   3.421   5.997   1.289  2.5737  2.2903 -1.1383
16426TIP3    H270694   3.442   5.854   1.246  2.0642  1.1664  2.0826
16427TIP3   OH270695   5.046   4.979   3.460 -0.0857  0.7011 -0.8505
16427TIP3    H170696   5.000   5.060   3.483 -2.0108 -0.3918 -0.6470
16427TIP3    H270697   4.992   4.941   3.391  0.7144 -0.4790 -0.8355
16428TIP3   OH270698   4.593   5.079   4.455  0.6224  0.6711  0.2465
16428TIP3    H170699   4.586   5.041   4.367  0.4738 -0.5582  0.7760
16428TIP3    H270700   4.655   5.151   4.444  1.8207 -0.4257 -0.5740
16429TIP3   OH270701   0.921   3.983   1.896  0.4151 -0.0750  0.1941
16429TIP3    H170702   0.854   4.034   1.851  0.3095 -0.1326  0.2881
16429TIP3    H270703   0.904   3.996   1.989  1.5887  1.3187  0.2458
16430TIP3   OH270704   2.141   0.109  15.059  0.0704  0.1666  0.4680
16430TIP3    H170705   2.229   0.080  15.083  0.6073  1.9049  0.7457
16430TIP3    H270706   2.124   0.068  14.974  2.8974  2.9829 -1.7196
16431TIP3   OH270707   1.044   1.147  13.856 -0.4520 -0.3247  0.4621
16431TIP3    H170708   0.978   1.159  13.924 -0.5904 -1.7172  0.6001
16431TIP3    H270709   1.053   1.233  13.816 -1.6124  0.1175  1.1088
16432TIP3   OH270710   5.696   2.095   3.464 -0.2176  0.3355  0.1978
16432TIP3    H170711   5.648   2.042   3.528  0.1187 -0.5304 -0.2378
16432TIP3    H270712   5.634   2.108   3.392 -0.7529  1.7066  0.8735
16433TIP3   OH270713   3.039   6.030   0.535  0.0880  0.3760  0.1288
16433TIP3    H170714   3.100   6.075   0.476 -0.6275 -1.1113 -1.8806
16433TIP3    H270715   2.952   6.059   0.506 -0.2554  0.2292  1.0055
16434TIP3   OH270716   6.535   2.661  17.143 -0.7869 -0.4409 -1.0272
16434TIP3    H170717   6.529   2.719  17.067 -2.1144 -0.4508 -0.9605
16434TIP3    H270718   6.612   2.691  17.191 -1.5649  1.4468 -0.8639
16435TIP3   OH270719   0.761   3.621  16.828 -0.4826 -0.5814  0.0884
16435TIP3    H170720   0.786   3.571  16.905 -1.3300 -0.0301  0.7378
16435TIP3    H270721   0.718   3.557  16.771  1.7108 -1.3885 -0.7508
16436TIP3   OH270722   2.506   0.209   1.477  0.4769 -0.3426  0.0114
16436TIP3    H170723   2.583   0.153   1.486  0.0273 -1.2697 -1.4711
16436TIP3    H270724   2.432   0.147   1.473  0.1741 -0.0650 -4.7520
16437TIP3   OH270725   1.297   4.841  12.104  0.2691 -0.1317 -0.4575
16437TIP3    H170726   1.355   4.811  12.174  0.3933 -0.3740 -0.6604
16437TIP3    H270727   1.237   4.768  12.090 -0.9226  0.6133  0.6400
16438TIP3   OH270728   1.200   5.175   0.883 -0.2818  0.2971 -0.5352
16438TIP3    H170729   1.159   5.110   0.825  1.3205 -1.9834  0.7052
16438TIP3    H270730   1.127   5.223   0.921 -1.6718 -1.7900 -0.4323
16439TIP3   OH270731   1.652   4.659   2.728  0.2452 -0.0725 -0.3806
16439TIP3    H170732   1.632   4.584   2.785  0.3516  0.6040  0.5624
16439TIP3    H270733   1.647   4.623   2.640  0.2995 -1.2003  0.0544
16440TIP3   OH270734   2.680   1.519  16.871  0.0886  0.5723  0.7361
16440TIP3    H170735   2.762   1.474  16.848 -1.0177 -1.1964  0.0584
16440TIP3    H270736   2.697   1.557  16.957  1.8175  0.7979  0.3439
16441TIP3   OH270737   4.381   5.781  13.871 -0.7946 -0.2861  0.3461
16441TIP3    H170738   4.472   5.811  13.871 -1.5098  2.0794 -0.1981
16441TIP3    H270739   4.382   5.703  13.927  1.5492 -0.3694  0.3063
16442TIP3   OH270740   5.720   6.130  13.481 -0.2360 -0.6368  0.0339
16442TIP3    H170741   5.739   6.057  13.540 -1.5439 -0.2341  1.0125
16442TIP3    H270742   5.784   6.121  13.410  2.2215 -0.4423  2.0872
16443TIP3   OH270743   6.668   6.044   2.711 -0.8161 -0.5341 -0.2856
16443TIP3    H170744   6.747   5.994   2.688  0.1126  1.1696 -0.9379
16443TIP3    H270745   6.598   6.002   2.660 -0.1465 -1.3987 -0.5241
16444TIP3   OH270746   0.281   3.628  12.641 -0.0807  0.1285  0.3771
16444TIP3    H170747   0.189   3.618  12.666 -0.0371 -1.6340 -0.0116
16444TIP3    H270748   0.280   3.622  12.545  0.1861  2.8027  0.1298
16445TIP3   OH270749   0.203   0.119   4.434 -0.1224 -0.0509  0.0422
16445TIP3    H170750   0.185   0.046   4.375  0.8559 -0.2380 -0.0436
16445TIP3    H270751   0.151   0.192   4.400  0.8392 -0.0043 -1.3620
16446TIP3   OH270752   6.516   2.359  12.015 -0.0418 -0.1655  0.4267
16446TIP3    H170753   6.555   2.284  12.060  1.4321  2.0925  3.2590
16446TIP3    H270754   6.591   2.409  11.983 -0.9521  0.6256 -0.5315
16447TIP3   OH270755   0.026   5.659  14.857  0.7704  0.2149  0.2168
16447TIP3    H170756  -0.048   5.719  14.849  0.3750 -0.3364 -0.3178
16447TIP3    H270757   0.016   5.620  14.944 -0.8454 -1.4780 -0.6388
16448TIP3   OH270758   5.816   3.373  14.253  0.4365 -0.2719  0.0094
16448TIP3    H170759   5.895   3.377  14.307  1.7945  1.6909 -1.9443
16448TIP3    H270760   5.821   3.289  14.209  0.1139 -1.2105  1.6772
16449TIP3   OH270761   1.750   4.141   2.669 -0.9222  0.4289 -0.1219
16449TIP3    H170762   1.805   4.217   2.649  0.7784 -1.0678 -1.4988
16449TIP3    H270763   1.678   4.146   2.607 -0.7471  0.8411 -0.2956
16450TIP3   OH270764   0.660   6.066   3.157 -0.0658  0.3308 -0.6202
16450TIP3    H170765   0.629   6.120   3.084 -2.2848 -1.1341 -0.8465
16450TIP3    H270766   0.653   5.976   3.125  1.7966 -0.2364  0.3881
16451TIP3   OH270767   4.597   4.136  13.948 -0.6686 -0.1756  0.4884
16451TIP3    H170768   4.584   4.049  13.985 -1.4633 -0.3899 -0.2823
16451TIP3    H270769   4.535   4.142  13.876 -0.5055  0.9678  0.4174
16452TIP3   OH270770   1.539   3.615   6.215  0.4074  0.4412  0.5918
16452TIP3    H170771   1.597   3.685   6.184  0.9561  0.5647  1.8675
16452TIP3    H270772   1.474   3.660   6.270 -0.7741  0.2665 -0.5974
16453TIP3   OH270773   3.438   0.981   2.600 -0.2030 -0.6440  0.8599
16453TIP3    H170774   3.523   0.949   2.571 -0.6311 -0.9265 -0.1299
16453TIP3    H270775   3.391   1.001   2.519 -0.9997 -0.2790  1.3968
16454TIP3   OH270776   6.073   4.069   5.649 -0.1256  0.1607 -0.7043
16454TIP3    H170777   6.003   4.133   5.636 -1.9599 -1.5745  0.0180
16454TIP3    H270778   6.050   4.025   5.731  2.9605  0.8383  0.6635
16455TIP3   OH270779   4.839   5.828   2.121  0.4859  0.1254 -0.3798
16455TIP3    H170780   4.757   5.777   2.116  0.9913 -0.5895 -2.1970
16455TIP3    H270781   4.862   5.826   2.214 -0.6537 -1.1419 -0.0834
16456TIP3   OH270782   4.102   5.518   0.250  0.0912  0.0528  0.0877
16456TIP3    H170783   4.078   5.441   0.198 -0.0935  0.5819 -0.6242
16456TIP3    H270784   4.031   5.581   0.235  0.9694  0.9253 -0.5295
16457TIP3   OH270785   2.704   3.657   0.454 -0.2428  0.4602  0.0199
16457TIP3    H170786   2.620   3.621   0.424 -0.5646  1.9807 -1.0381
16457TIP3    H270787   2.754   3.672   0.374  0.4995  0.8763  0.5452
16458TIP3   OH270788   1.636   6.122   3.999  0.3830 -0.2132 -0.1700
16458TIP3    H170789   1.660   6.214   4.007  0.3360  0.0952 -2.5789
16458TIP3    H270790   1.543   6.123   3.979  0.1451 -0.8616  0.8718
16459TIP3   OH270791   2.144   6.059   2.255 -0.0625 -0.2864  0.2217
16459TIP3    H170792   2.143   5.964   2.247  0.6663 -0.6230  2.9024
16459TIP3    H270793   2.235   6.084   2.236  0.5182 -0.5552  2.3531
16460TIP3   OH270794   4.147   0.157   1.361 -0.1222  0.3420  0.1761
16460TIP3    H170795   4.070   0.126   1.408 -0.5040  0.9382 -0.0423
16460TIP3    H270796   4.126   0.143   1.269 -0.4681  1.5804  0.0501
16461TIP3   OH270797   5.625   0.519   1.416 -0.5360 -0.1694 -0.3850
16461TIP3    H170798   5.573   0.599   1.410  0.3544  0.5254  0.6682
16461TIP3    H270799   5.567   0.450   1.386 -1.1100  0.9563 -2.0193
16462TIP3   OH270800   1.224   5.045   1.140  0.1714  0.3949  0.0427
16462TIP3    H170801   1.296   4.984   1.129  0.7564  0.8765  1.0122
16462TIP3    H270802   1.230   5.104   1.065  0.4200  0.0680 -0.1922
16463TIP3   OH270803   5.231   3.462  12.248 -0.3747  0.5517 -0.3537
16463TIP3    H170804   5.245   3.520  12.323  1.3283  0.7240 -0.7672
16463TIP3    H270805   5.160   3.404  12.276 -1.0488  1.8050  0.6645
16464TIP3   OH270806   0.135   2.277  12.759 -0.3319 -0.8000  0.1856
16464TIP3    H170807   0.184   2.219  12.701  1.2258  0.4160  0.2146
16464TIP3    H270808   0.174   2.263  12.845  0.5943  0.8079  0.0542
16465TIP3   OH270809   5.721   4.519  16.003 -0.6213  0.0720  0.2894
16465TIP3    H170810   5.786   4.462  16.044  0.5236  0.8350 -0.3874
16465TIP3    H270811   5.688   4.468  15.929 -1.0022 -0.4232  0.7913
16466TIP3   OH270812   6.303   0.487   2.694  0.1673  0.4416 -0.2920
16466TIP3    H170813   6.263   0.416   2.644  2.1934 -0.2018 -1.1058
16466TIP3    H270814   6.300   0.457   2.785  1.5637 -1.0230 -0.6909
16467TIP3   OH270815   3.413   6.669  15.866 -0.0686 -0.0401 -0.7776
16467TIP3    H170816   3.480   6.703  15.925  0.0129  0.0921 -0.9491
16467TIP3    H270817   3.340   6.647  15.924 -0.0327  0.2014 -0.6394
16468TIP3   OH270818   1.457   1.840   0.649 -0.1659 -0.2492  0.5916
16468TIP3    H170819   1.439   1.932   0.669  1.5600  0.1082  0.6731
16468TIP3    H270820   1.431   1.831   0.557  2.2963  1.1592 -0.3458
16469TIP3   OH270821   4.657   0.388  10.954  0.4646 -0.1594 -0.0252
16469TIP3    H170822   4.682   0.297  10.944  0.1009 -0.1761 -0.8598
16469TIP3    H270823   4.601   0.406  10.878  0.8891  0.8747 -0.1089
16470TIP3   OH270824   4.381   5.281   3.239 -0.0241  0.6047  1.0596
16470TIP3    H170825   4.390   5.374   3.220  1.8628  0.1084 -0.9105
16470TIP3    H270826   4.289   5.270   3.264 -1.3106  2.4734 -2.1856
16471TIP3   OH270827   0.196   5.828  14.077  0.2112 -0.1089 -0.0652
16471TIP3    H170828   0.222   5.886  14.149  2.1796 -0.5368 -0.3899
16471TIP3    H270829   0.209   5.880  13.998 -1.0821  0.0489 -0.1992
16472TIP3   OH270830   2.593   3.432  12.305  0.1602 -0.0126 -1.0092
16472TIP3    H170831   2.503   3.400  12.293  0.2903 -1.2350  0.7793
16472TIP3    H270832   2.648   3.367  12.261  0.2692 -0.8242  0.2498
16473TIP3   OH270833   2.320   5.366   5.627 -0.1160  0.0388 -0.8609
16473TIP3    H170834   2.376   5.438   5.655  0.1001 -0.4521  0.0197
16473TIP3    H270835   2.381   5.302   5.589  0.2323 -1.3096  1.7567
16474TIP3   OH270836   0.972   3.755   2.815  0.1369  0.2651  0.6054
16474TIP3    H170837   0.952   3.829   2.758  1.1976 -1.2511 -1.9109
16474TIP3    H270838   1.048   3.784   2.867  1.2777  0.5927 -1.1672
16475TIP3   OH270839   4.413   5.969  11.697 -0.0308  0.9616  0.0498
16475TIP3    H170840   4.496   6.012  11.718 -0.0566  0.2382  1.7827
16475TIP3    H270841   4.365   5.966  11.780 -1.6624  1.0368 -0.8325
16476TIP3   OH270842   4.802   0.612   2.284 -0.0373 -0.1625 -0.0632
16476TIP3    H170843   4.896   0.609   2.262 -0.2878  0.1494 -1.2262
16476TIP3    H270844   4.764   0.668   2.216 -1.3286 -1.5762 -0.5256
16477TIP3   OH270845   0.949   5.284   0.430  0.3459 -0.3483  0.1170
16477TIP3    H170846   0.968   5.192   0.413  2.1081  0.1143 -0.6491
16477TIP3    H270847   0.854   5.290   0.426  0.2850 -1.6024 -2.7919
16478TIP3   OH270848   5.450   1.412  16.297 -0.6032 -0.3858  0.2135
16478TIP3    H170849   5.443   1.492  16.245  1.0931  0.6081  1.4082
16478TIP3    H270850   5.360   1.380  16.304 -1.1135  0.5357 -1.6112
16479TIP3   OH270851   2.403   1.346   1.597 -0.3809  0.1271 -0.1659
16479TIP3    H170852   2.416   1.260   1.638 -1.6573 -0.0091  0.0056
16479TIP3    H270853   2.385   1.327   1.505 -1.8164  0.0958  0.0956
16480TIP3   OH270854   4.077   1.003   2.170  0.3910 -0.6993  0.2574
16480TIP3    H170855   3.997   1.022   2.121  1.8598  1.2553 -1.5804
16480TIP3    H270856   4.057   1.027   2.260 -1.1620 -0.5117 -0.1147
16481TIP3   OH270857   6.054   6.028   2.408 -0.1401 -0.1725  0.6612
16481TIP3    H170858   6.115   6.090   2.446 -0.1412  0.1095  0.2027
16481TIP3    H270859   5.992   6.081   2.360  2.5049 -0.6188 -3.7821
16482TIP3   OH270860   6.598   0.299   4.586  0.2168 -0.3655 -0.3024
16482TIP3    H170861   6.617   0.357   4.512 -1.9751 -1.6518 -1.9992
16482TIP3    H270862   6.548   0.354   4.647  1.3521  0.4849 -0.0923
16483TIP3   OH270863   0.272   1.143  14.707 -0.0047 -0.5010  0.3194
16483TIP3    H170864   0.338   1.191  14.658 -1.2510 -0.2623 -1.2187
16483TIP3    H270865   0.308   1.135  14.795  1.0838  1.5448  0.1145
16484TIP3   OH270866   2.249   1.730  15.978 -0.2266  0.8638 -0.8250
16484TIP3    H170867   2.247   1.679  16.059 -0.9094  2.1196 -0.0204
16484TIP3    H270868   2.328   1.700  15.933 -0.9367 -1.3486 -0.7077
16485TIP3   OH270869   1.806   3.872  16.276 -0.3766  0.3409 -0.4529
16485TIP3    H170870   1.824   3.778  16.270 -2.6215 -0.2183  0.4741
16485TIP3    H270871   1.831   3.907  16.190 -0.4296 -1.2799 -1.1615
16486TIP3   OH270872   5.950   1.875  16.771  0.5479  0.0216  0.0648
16486TIP3    H170873   5.908   1.928  16.703  0.4519  0.2575  0.3076
16486TIP3    H270874   6.011   1.819  16.723 -1.6540 -2.0014 -0.6192
16487TIP3   OH270875   5.112   5.725  10.804 -0.3872  0.3217 -0.0581
16487TIP3    H170876   5.059   5.786  10.753  0.7106  0.9031 -0.5546
16487TIP3    H270877   5.074   5.639  10.786 -1.2819  0.7361 -0.2175
16488TIP3   OH270878   5.059   0.901  13.705 -1.2948  0.4658  0.2967
16488TIP3    H170879   5.006   0.974  13.671 -2.5355 -0.0309  1.1059
16488TIP3    H270880   5.063   0.839  13.632 -2.7930  0.0220  0.5512
16489TIP3   OH270881   0.136   0.292   4.034 -0.0647  0.3951 -0.0745
16489TIP3    H170882   0.102   0.212   3.995  1.1570  0.1784 -0.7401
16489TIP3    H270883   0.127   0.359   3.966 -0.6599  0.7338  0.3217
16490TIP3   OH270884   3.919   4.003   3.966  0.0728  0.2484  0.0201
16490TIP3    H170885   3.976   4.053   4.024 -1.4668  1.3512  0.6440
16490TIP3    H270886   3.831   4.035   3.985 -0.6406 -0.4582 -1.8586
16491TIP3   OH270887   0.812   4.047   5.168  0.0915 -0.6753 -0.4663
16491TIP3    H170888   0.812   4.017   5.259 -0.5704 -0.6225 -0.4422
16491TIP3    H270889   0.786   3.970   5.117 -1.0049 -0.3343 -0.4607
16492TIP3   OH270890   2.672   4.874   2.887 -0.3672 -0.3233  0.2204
16492TIP3    H170891   2.599   4.888   2.827  0.2026  0.4625 -0.3090
16492TIP3    H270892   2.679   4.955   2.936  0.7035 -0.0329 -0.3645
16493TIP3   OH270893   2.482   6.359   1.087 -0.2537 -0.0147 -0.2876
16493TIP3    H170894   2.406   6.305   1.107 -0.9856  0.3302 -2.0068
16493TIP3    H270895   2.466   6.393   0.999  0.9805  1.6360  0.0608
16494TIP3   OH270896   5.294   2.124  14.866 -0.2346  0.0938  0.6291
16494TIP3    H170897   5.305   2.109  14.960 -0.9154 -2.7339  0.3679
16494TIP3    H270898   5.299   2.037  14.827 -0.0025  1.1760 -1.9870
16495TIP3   OH270899   3.999   3.665  11.927  0.4512 -0.5208 -0.1207
16495TIP3    H170900   3.912   3.705  11.922  1.1731  1.0639 -0.7970
16495TIP3    H270901   4.055   3.722  11.874  1.6562 -2.2289 -0.7719
16496TIP3   OH270902   6.756   3.801  12.961  0.4479  0.4521  0.6040
16496TIP3    H170903   6.789   3.745  12.890 -0.2878  1.1486 -0.3208
16496TIP3    H270904   6.829   3.808  13.022  2.1222  2.0756 -1.4359
16497TIP3   OH270905   6.115   0.037   3.078  0.5386  0.1137 -0.8706
16497TIP3    H170906   6.093  -0.043   3.125  0.8817  0.0412 -0.8339
16497TIP3    H270907   6.181   0.079   3.132  0.6267  0.2391 -1.0757
16498TIP3   OH270908   3.886   2.516   5.225  0.4668 -0.1977 -0.0667
16498TIP3    H170909   3.856   2.565   5.301  0.4671  0.3066 -0.3926
16498TIP3    H270910   3.837   2.433   5.230  0.4551 -0.1655  0.4664
16499TIP3   OH270911   4.879   4.859  16.782 -0.4429  0.5191  0.0199
16499TIP3    H170912   4.814   4.920  16.816  0.0487  1.7578 -1.1573
16499TIP3    H270913   4.954   4.914  16.761  0.1690 -0.5650 -0.7232
16500TIP3   OH270914   5.356   2.002  12.140  0.3378 -0.2204 -0.1842
16500TIP3    H170915   5.301   2.004  12.218  0.5157 -1.2823 -0.0245
16500TIP3    H270916   5.404   2.085  12.143  1.9215 -1.1156  1.9835
16501TIP3   OH270917   1.209   1.686   3.417  0.1907 -0.5159  0.1105
16501TIP3    H170918   1.213   1.592   3.398 -1.3997 -0.5320 -0.2577
16501TIP3    H270919   1.276   1.725   3.361  0.6057 -1.3790 -0.0124
16502TIP3   OH270920   0.153   1.218  16.418 -0.3240  0.1322 -0.2813
16502TIP3    H170921   0.242   1.217  16.454 -0.3513 -1.1531 -0.2331
16502TIP3    H270922   0.156   1.157  16.344 -1.3103 -0.3439  0.0603
16503TIP3   OH270923   5.839   1.481  13.524 -0.2235 -0.2084 -0.0887
16503TIP3    H170924   5.838   1.462  13.617 -3.0813 -0.3886 -0.0595
16503TIP3    H270925   5.849   1.395  13.482 -1.4046 -0.4440  0.0786
16504TIP3   OH270926   3.298   0.371  15.542  0.0205  0.0472 -0.8418
16504TIP3    H170927   3.256   0.453  15.517 -0.7397  0.0252  0.2638
16504TIP3    H270928   3.391   0.387  15.532 -0.0417  1.4293  0.3877
16505TIP3   OH270929   4.079   6.780   1.160 -0.1618  0.1437  0.0459
16505TIP3    H170930   4.101   6.691   1.189  1.2585  0.2650 -0.5838
16505TIP3    H270931   3.990   6.772   1.126  0.2613 -1.2796 -0.8571
16506TIP3   OH270932   5.065   0.136  11.503 -0.1630 -0.1785  0.1532
16506TIP3    H170933   5.051   0.094  11.588 -1.2870  0.1724  0.1523
16506TIP3    H270934   5.138   0.087  11.464 -0.6363 -1.3250  0.6751
16507TIP3   OH270935   6.237   4.858  15.604 -0.0372 -0.5593 -0.2671
16507TIP3    H170936   6.224   4.806  15.684 -0.3639 -0.3288 -0.1715
16507TIP3    H270937   6.172   4.928  15.610 -0.0318 -0.5178 -0.7182
16508TIP3   OH270938   5.500   4.458  16.258 -0.2181 -0.0237  0.1479
16508TIP3    H170939   5.473   4.512  16.332 -0.3909  0.9071 -0.5786
16508TIP3    H270940   5.583   4.497  16.230  0.1250 -0.7139  0.1951
16509TIP3   OH270941   6.233   5.040   4.830 -0.0173 -0.1679  0.1931
16509TIP3    H170942   6.288   5.031   4.907  0.3853 -0.3025 -0.1085
16509TIP3    H270943   6.272   4.982   4.765  1.3853  2.0606 -1.0932
16510TIP3   OH270944   0.723   0.423  14.823  0.7234  0.6482  0.5059
16510TIP3    H170945   0.795   0.391  14.768 -0.1140  0.0663 -0.2833
16510TIP3    H270946   0.680   0.490  14.771  0.0427  0.2384  0.5355
16511TIP3   OH270947   6.748   2.515  11.953 -0.2557  0.0083  0.2017
16511TIP3    H170948   6.828   2.467  11.972 -0.9602 -0.9375  0.9267
16511TIP3    H270949   6.738   2.575  12.027 -0.7304 -0.6116  0.6637
16512TIP3   OH270950   5.625   3.400   0.274  0.0631  0.2051 -0.1322
16512TIP3    H170951   5.674   3.319   0.263  2.2554  1.4560 -0.1425
16512TIP3    H270952   5.585   3.416   0.188 -1.3875 -1.4033  0.1922
16513TIP3   OH270953   5.513   0.187   4.140  0.0327  0.2812 -0.0150
16513TIP3    H170954   5.539   0.101   4.109 -1.2235 -0.3372  0.5934
16513TIP3    H270955   5.560   0.199   4.222  0.3700  0.2715 -0.2063
16514TIP3   OH270956   0.884   5.137   3.062 -0.2238 -0.1928  0.3194
16514TIP3    H170957   0.909   5.135   3.154 -1.1039 -0.0662  0.5654
16514TIP3    H270958   0.832   5.057   3.049  0.9087 -0.8485 -0.3706
16515TIP3   OH270959   3.504   0.392   4.963 -0.2205  0.5353 -0.4546
16515TIP3    H170960   3.452   0.467   4.992  1.2268  1.3656  0.1628
16515TIP3    H270961   3.568   0.380   5.033  2.1165  1.2973 -2.3150
16516TIP3   OH270962   4.334   5.023   4.261 -0.3327  0.1247 -0.5443
16516TIP3    H170963   4.329   5.061   4.349 -0.7685  0.7419 -0.8316
16516TIP3    H270964   4.276   4.947   4.264  3.0640 -2.6896  1.0615
16517TIP3   OH270965   3.411   1.502   5.508 -0.3997  0.1506 -0.1181
16517TIP3    H170966   3.404   1.519   5.414  0.8572  0.0126 -0.2571
16517TIP3    H270967   3.422   1.407   5.514  0.3180  0.2387  0.0924
16518TIP3   OH270968   5.983   5.776  12.714 -0.2873  0.2031  0.4955
16518TIP3    H170969   5.972   5.755  12.621  0.3898  0.1517  0.4204
16518TIP3    H270970   5.967   5.870  12.720  0.6693  0.3968  0.1514
16519TIP3   OH270971   3.586   6.385   5.885  0.2108  0.2185  0.2519
16519TIP3    H170972   3.637   6.307   5.909 -0.7642 -1.2339 -2.0348
16519TIP3    H270973   3.632   6.420   5.809 -0.5282  0.6536 -0.0022
16520TIP3   OH270974   5.142   1.066  12.036 -0.9827 -0.2233 -0.5350
16520TIP3    H170975   5.121   0.979  12.002 -0.6406 -0.3519 -0.4232
16520TIP3    H270976   5.232   1.082  12.007 -0.5421 -0.5039  0.6347
16521TIP3   OH270977   4.123   1.582  12.424  0.6131 -0.2281  0.2706
16521TIP3    H170978   4.148   1.652  12.485  0.2190 -1.0385  1.3925
16521TIP3    H270979   4.079   1.517  12.478 -2.0434  0.1409 -1.2719
16522TIP3   OH270980   5.507   2.226  15.832 -0.1899  0.3644 -0.0593
16522TIP3    H170981   5.537   2.149  15.783  1.8050  1.7861 -1.2277
16522TIP3    H270982   5.412   2.226  15.821  0.0878  0.3820 -3.7469
16523TIP3   OH270983   5.818   4.474  14.305 -0.3050 -0.1858 -0.0369
16523TIP3    H170984   5.913   4.484  14.300 -0.3597 -0.0602 -1.2160
16523TIP3    H270985   5.796   4.497  14.395  0.7434  0.1060  0.1579
16524TIP3   OH270986   6.437   2.146  15.520  0.0361 -0.3406  0.1063
16524TIP3    H170987   6.488   2.066  15.505 -1.7575 -1.5435  0.1141
16524TIP3    H270988   6.367   2.142  15.454 -1.8102 -0.3157  1.9851
16525TIP3   OH270989   0.214   2.410  12.040  0.2558 -0.7096  0.0154
16525TIP3    H170990   0.181   2.439  12.125  0.3709 -1.1894  0.2309
16525TIP3    H270991   0.178   2.322  12.029  1.6186 -1.3380  0.3643
16526TIP3   OH270992   4.694   0.842  13.386  0.1810  1.0237 -0.5313
16526TIP3    H170993   4.712   0.749  13.395  0.9705  1.1219 -0.9752
16526TIP3    H270994   4.634   0.862  13.457  1.3124  0.5107  0.6197
16527TIP3   OH270995   6.243   2.679   3.075 -0.4889  0.5035  0.1618
16527TIP3    H170996   6.280   2.655   3.160  0.5616 -0.3107 -0.5009
16527TIP3    H270997   6.205   2.599   3.041  3.5091 -0.6323 -2.2976
16528TIP3   OH270998   1.810   6.347  12.431 -0.1427 -0.0254 -0.1390
16528TIP3    H170999   1.754   6.274  12.459  0.1633 -1.6253 -3.2851
16528TIP3    H271000   1.748   6.417  12.411 -0.6509 -0.3026  0.3862
16529TIP3   OH271001   1.809   3.818   1.781  0.4065 -0.6124 -0.3855
16529TIP3    H171002   1.750   3.850   1.712 -4.3099 -1.5906  2.7660
16529TIP3    H271003   1.813   3.889   1.844  2.0170 -0.9308 -0.0875
16530TIP3   OH271004   3.654   5.998  14.454  0.1232 -0.1250 -0.2874
16530TIP3    H171005   3.667   5.948  14.535 -0.5810 -1.7050 -1.1015
16530TIP3    H271006   3.657   5.932  14.385 -2.7794  0.6353 -1.2833
16531TIP3   OH271007   1.839   6.448  12.930 -0.1149  0.3929  0.5339
16531TIP3    H171008   1.761   6.450  12.874 -0.4266 -0.8298  0.8888
16531TIP3    H271009   1.808   6.411  13.013  0.6299  0.8951  1.0445
16532TIP3   OH271010   2.775   1.953  11.027 -0.5171 -0.0277  0.0463
16532TIP3    H171011   2.687   1.936  11.062 -0.3801  1.0781  0.9882
16532TIP3    H271012   2.801   1.870  10.986 -1.1866 -1.0205  1.5358
16533TIP3   OH271013   3.737   5.692   5.778 -0.0991 -0.5721  0.5198
16533TIP3    H171014   3.809   5.735   5.824  1.1004  0.1091 -1.8451
16533TIP3    H271015   3.685   5.763   5.742  0.7751 -1.0052 -1.7558
16534TIP3   OH271016   4.158   2.361  11.812  0.0300  0.0719  0.8697
16534TIP3    H171017   4.180   2.405  11.894  2.5506 -1.3887  1.1126
16534TIP3    H271018   4.157   2.268  11.835 -2.5140 -0.2117 -0.1414
16535TIP3   OH271019   4.964   5.445   4.625  0.1621  1.0433 -0.0757
16535TIP3    H171020   4.964   5.350   4.611 -1.2416  0.8356  1.0600
16535TIP3    H271021   5.050   5.464   4.661  0.4177  0.1777 -0.2123
16536TIP3   OH271022   6.442   3.868   5.307  0.3739  0.1208  0.5327
16536TIP3    H171023   6.405   3.839   5.390  0.2751  0.3809  0.5809
16536TIP3    H271024   6.396   3.817   5.240  0.5550 -0.1942  0.6418
16537TIP3   OH271025   3.227   0.806   3.108  0.0436  0.3482  0.0014
16537TIP3    H171026   3.238   0.725   3.058 -0.3752 -0.8672  1.7694
16537TIP3    H271027   3.315   0.842   3.115  0.1664  0.3235 -1.2341
16538TIP3   OH271028   6.141   3.457  12.528  0.8493 -0.3408 -0.1651
16538TIP3    H171029   6.105   3.377  12.491  2.4065 -1.8901  1.4533
16538TIP3    H271030   6.065   3.508  12.557 -0.1840 -0.9110 -1.7862
16539TIP3   OH271031   1.037   1.667  16.372  0.0330  0.0177  0.4434
16539TIP3    H171032   1.116   1.712  16.344 -0.3570  0.0134 -0.7325
16539TIP3    H271033   0.978   1.672  16.296 -0.2918 -1.8453  0.5154
16540TIP3   OH271034   3.244   4.558   0.534  0.5142 -0.5057 -0.1202
16540TIP3    H171035   3.171   4.496   0.536 -0.0397  0.1197  1.9300
16540TIP3    H271036   3.280   4.555   0.622  2.1768  0.1506 -0.7415
16541TIP3   OH271037   2.618   1.048  11.003 -0.1567  0.0397 -0.2241
16541TIP3    H171038   2.579   1.026  10.919  0.4926  0.2021 -0.5730
16541TIP3    H271039   2.573   1.128  11.030  1.2937  1.4036 -1.5944
16542TIP3   OH271040   0.556   6.399   1.092 -0.6339 -0.5061 -0.5489
16542TIP3    H171041   0.619   6.413   1.022 -0.3347  0.8394 -0.0475
16542TIP3    H271042   0.532   6.306   1.085  0.0493 -0.6064 -1.8529
16543TIP3   OH271043   6.747   5.778   3.515  0.1939 -0.1562  0.6858
16543TIP3    H171044   6.827   5.811   3.472  0.6310  0.1611  1.7165
16543TIP3    H271045   6.706   5.722   3.449  0.3399  1.0840 -0.5059
16544TIP3   OH271046   6.414   1.161  16.944 -0.3923  0.2341 -0.0826
16544TIP3    H171047   6.471   1.085  16.955 -1.8065 -1.1614 -1.8084
16544TIP3    H271048   6.435   1.193  16.856 -1.2155  0.6190 -0.1402
16545TIP3   OH271049   6.110   0.153  11.026 -0.2431 -0.1366  0.0561
16545TIP3    H171050   6.131   0.202  10.946  0.9003 -0.0962  0.3705
16545TIP3    H271051   6.073   0.070  10.994  1.4086 -0.6671 -0.5597
16546TIP3   OH271052   0.956   5.943  16.218 -0.2132 -0.2672 -0.4099
16546TIP3    H171053   1.033   5.897  16.185  0.4319  1.3538 -1.2904
16546TIP3    H271054   0.930   6.001  16.146 -1.3463  0.3072  0.4305
16547TIP3   OH271055   6.123   5.116   0.116 -0.2103 -0.1095 -0.4674
16547TIP3    H171056   6.141   5.159   0.033  0.1434 -0.1119 -0.3930
16547TIP3    H271057   6.178   5.038   0.115  0.9966  0.6912  0.4329
16548TIP3   OH271058   0.119   0.615   6.403  0.1242 -0.7653 -0.5690
16548TIP3    H171059   0.194   0.669   6.428  0.1678 -0.2456 -1.7791
16548TIP3    H271060   0.153   0.553   6.339 -0.6809  0.2296 -2.0247
16549TIP3   OH271061   0.950   3.921   6.478  0.1322  0.1703 -0.4628
16549TIP3    H171062   0.929   3.988   6.543  0.4230 -1.3104  1.2689
16549TIP3    H271063   0.866   3.880   6.457  0.2397 -0.4971  0.3529
16550TIP3   OH271064   4.801   2.314  10.779 -0.7534  0.0895  0.0839
16550TIP3    H171065   4.834   2.318  10.868  0.2997  0.8515 -0.3244
16550TIP3    H271066   4.846   2.384  10.732  0.4899 -1.7293 -1.6217
16551TIP3   OH271067   2.183   1.056  14.447 -0.0578  0.0146 -0.3278
16551TIP3    H171068   2.201   1.135  14.499  1.8542  0.9574 -2.2814
16551TIP3    H271069   2.195   0.984  14.508 -1.8283  1.1531  1.5188
16552TIP3   OH271070   0.765   1.002  15.571  0.2901 -0.0491  1.0496
16552TIP3    H171071   0.830   0.945  15.530  0.1550 -0.2102  1.0566
16552TIP3    H271072   0.815   1.055  15.633  0.4582  0.0264  0.8523
16553TIP3   OH271073   6.253   3.350  13.931  0.1731 -0.3805  0.2099
16553TIP3    H171074   6.342   3.322  13.951 -0.1063 -0.8615  0.8107
16553TIP3    H271075   6.199   3.308  13.998 -0.3627  0.9215  0.6284
16554TIP3   OH271076   0.275   2.167  15.579  0.5725 -0.3353  0.3140
16554TIP3    H171077   0.334   2.239  15.557  0.4801 -0.6266 -1.0170
16554TIP3    H271078   0.294   2.147  15.670  0.2210  1.7161  0.8887
16555TIP3   OH271079   0.876   1.338  10.621 -0.1609 -0.0623 -0.2247
16555TIP3    H171080   0.880   1.243  10.613  0.3769 -0.1263  0.6519
16555TIP3    H271081   0.922   1.357  10.703  0.9977  1.0689 -1.0999
16556TIP3   OH271082   6.101   4.644   1.067  0.1569 -0.1093 -0.2042
16556TIP3    H171083   6.151   4.660   1.148  0.5611 -0.9538 -0.2766
16556TIP3    H271084   6.165   4.658   0.997  0.5327 -1.9235 -0.2745
16557TIP3   OH271085   3.328   6.692  10.569  0.3688 -0.0251 -0.4554
16557TIP3    H171086   3.299   6.684  10.478 -0.1103  0.3999 -0.3443
16557TIP3    H271087   3.286   6.618  10.614  1.6613 -1.0151 -0.8285
16558TIP3   OH271088   6.603   1.239  12.594  0.0780  0.4918  0.2032
16558TIP3    H171089   6.576   1.302  12.527 -0.8399 -0.1106 -0.0161
16558TIP3    H271090   6.616   1.158  12.546 -0.3406  0.1147  0.7136
16559TIP3   OH271091   5.330   3.187  15.176  0.3192  0.2564  0.1861
16559TIP3    H171092   5.254   3.165  15.230  1.8898 -0.5218  2.2443
16559TIP3    H271093   5.316   3.141  15.094 -0.9870 -0.6555  0.8929
16560TIP3   OH271094   1.206   3.116  13.356  0.6632  0.0046  0.2528
16560TIP3    H171095   1.292   3.091  13.392  1.4626 -0.9919 -2.1437
16560TIP3    H271096   1.177   3.038  13.309 -2.6811 -0.5042  2.7475
16561TIP3   OH271097   4.603   1.195  14.313 -1.1201  0.1575  0.3432
16561TIP3    H171098   4.691   1.222  14.339 -1.1498  0.2258  0.3735
16561TIP3    H271099   4.593   1.231  14.225 -0.4301 -1.3823 -0.4028
16562TIP3   OH271100   2.456   0.472  15.956 -0.3044  0.2568 -0.1969
16562TIP3    H171101   2.531   0.501  15.904  0.2445  1.9842  1.4671
16562TIP3    H271102   2.417   0.552  15.990 -2.7355 -0.6111 -0.6728
16563TIP3   OH271103   2.169   5.572   4.204  0.0340  0.3480  0.1404
16563TIP3    H171104   2.258   5.581   4.171 -0.5072  0.2812 -1.3790
16563TIP3    H271105   2.179   5.567   4.299  1.6584  0.1166 -0.0292
16564TIP3   OH271106   1.164   3.752   3.535 -0.5449 -0.3583  0.2426
16564TIP3    H171107   1.097   3.684   3.546 -0.8589 -0.3347 -1.2441
16564TIP3    H271108   1.245   3.710   3.563 -0.9257 -0.9502  0.4915
16565TIP3   OH271109   0.508   1.147   4.057 -0.7449  0.1669  0.2503
16565TIP3    H171110   0.576   1.112   3.999 -1.2324 -0.5333  0.0836
16565TIP3    H271111   0.499   1.238   4.030 -0.1253  0.1658  0.0278
16566TIP3   OH271112   4.377   6.703  14.278 -0.3199  0.4621  0.3852
16566TIP3    H171113   4.369   6.696  14.373  0.5278  0.3632  0.4566
16566TIP3    H271114   4.366   6.797  14.261  0.6724  0.6535  0.7103
16567TIP3   OH271115   1.052   3.697   4.492 -0.1022  0.2578  0.2280
16567TIP3    H171116   1.082   3.746   4.569 -0.8816  1.3797 -0.1512
16567TIP3    H271117   1.009   3.620   4.527  0.1989  0.3864  0.8933
16568TIP3   OH271118   6.613   0.650  12.449  0.6355 -0.2037 -0.2507
16568TIP3    H171119   6.604   0.625  12.541  2.1604 -0.5441 -0.1553
16568TIP3    H271120   6.639   0.742  12.452 -0.5863  0.1626 -0.4159
16569TIP3   OH271121   1.567   5.813  12.540  0.3641 -0.0564  0.1902
16569TIP3    H171122   1.573   5.900  12.502 -1.1007 -0.2827 -0.6448
16569TIP3    H271123   1.490   5.816  12.597  1.6848 -0.1508  2.0858
16570TIP3   OH271124   5.116   3.593  13.663 -0.1729  0.6157 -0.3925
16570TIP3    H171125   5.051   3.660  13.686 -1.1384  0.3348 -2.0918
16570TIP3    H271126   5.092   3.567  13.574  1.3858 -0.5890 -0.4966
16571TIP3   OH271127   4.982   5.327  12.117 -0.4994 -0.1959  0.6057
16571TIP3    H171128   5.009   5.257  12.177  1.3549 -1.8261 -1.9103
16571TIP3    H271129   4.915   5.286  12.062  0.6099 -0.0659 -0.8994
16572TIP3   OH271130   2.152   6.762   0.009 -0.2583 -0.2461  0.0516
16572TIP3    H171131   2.161   6.673   0.044  0.3022 -0.7418 -1.2760
16572TIP3    H271132   2.182   6.819   0.080 -3.6985 -0.8299  2.2025
16573TIP3   OH271133   4.512   0.797  12.280 -0.2937  0.2737 -0.1603
16573TIP3    H171134   4.486   0.795  12.188  0.0287  1.6934 -0.3069
16573TIP3    H271135   4.606   0.817  12.278 -0.6248  2.0728  0.4753
16574TIP3   OH271136   5.746   1.570  14.838  0.2212  0.0770  0.1149
16574TIP3    H171137   5.689   1.495  14.823 -1.4990  1.4308 -0.5794
16574TIP3    H271138   5.790   1.552  14.920 -1.2645 -1.0379  0.7076
16575TIP3   OH271139   2.798   1.061   5.745 -0.2507 -0.1343  0.0581
16575TIP3    H171140   2.814   1.073   5.652  0.0563  1.4176  0.2824
16575TIP3    H271141   2.885   1.068   5.785 -0.6681  2.4512  0.7194
16576TIP3   OH271142   6.604   3.251  14.823 -0.4043  0.1273  0.0560
16576TIP3    H171143   6.685   3.272  14.869  0.2491 -0.1698 -0.9272
16576TIP3    H271144   6.630   3.244  14.731 -1.5280 -0.0747 -0.2586
16577TIP3   OH271145   2.499   1.905   0.654 -0.3319 -0.2778 -0.1004
16577TIP3    H171146   2.524   1.819   0.690 -0.2840 -0.4267 -0.4806
16577TIP3    H271147   2.535   1.968   0.716 -0.5050 -0.5384  0.2674
16578TIP3   OH271148   3.529   2.684   5.317 -0.0585  0.2767 -0.3460
16578TIP3    H171149   3.542   2.667   5.224  0.2625  2.1743 -0.6956
16578TIP3    H271150   3.617   2.680   5.355 -0.0355  0.7112 -0.3533
16579TIP3   OH271151   3.444   6.102  13.118  0.3058  0.4489  0.2541
16579TIP3    H171152   3.431   6.174  13.179 -3.1242  0.4539 -0.2974
16579TIP3    H271153   3.394   6.030  13.154 -1.0006  0.1426 -1.9444
16580TIP3   OH271154   0.913   3.142  11.136  0.2886 -0.0356  0.0055
16580TIP3    H171155   0.934   3.092  11.057 -1.1340  0.8226 -0.9712
16580TIP3    H271156   0.842   3.093  11.178 -0.5594  0.6863 -0.5296
16581TIP3   OH271157   3.507   2.625  12.210  0.0335 -0.5667 -0.1446
16581TIP3    H171158   3.436   2.630  12.145  0.1317 -1.7737 -0.3622
16581TIP3    H271159   3.509   2.712  12.249 -1.6960 -0.5446 -0.0076
16582TIP3   OH271160   1.313   0.681   3.936  0.1232 -0.0283 -0.0808
16582TIP3    H171161   1.242   0.618   3.925 -0.7605  0.7642  0.8113
16582TIP3    H271162   1.365   0.646   4.009  0.9646 -0.8500 -1.0325
16583TIP3   OH271163   0.961   3.802  16.758  0.7059  0.2328  0.7336
16583TIP3    H171164   0.880   3.752  16.762  1.4013 -1.0302 -0.1733
16583TIP3    H271165   0.933   3.892  16.742 -0.5293 -0.0563  1.1442
16584TIP3   OH271166   6.273   3.655   0.573 -0.0424 -0.3178 -0.1387
16584TIP3    H171167   6.285   3.687   0.663  0.3530  1.0442 -0.6421
16584TIP3    H271168   6.276   3.734   0.520 -1.3009 -1.0030 -1.2734
16585TIP3   OH271169   1.996   6.431   0.669 -0.1355  0.4081  0.0788
16585TIP3    H171170   1.977   6.431   0.576  1.2406  2.0212 -0.2661
16585TIP3    H271171   1.922   6.477   0.709  0.9222  3.0279 -0.7320
16586TIP3   OH271172   6.504   4.472   0.150 -0.1679  0.4611  0.6948
16586TIP3    H171173   6.431   4.419   0.179  0.0384 -1.5776 -2.1253
16586TIP3    H271174   6.469   4.527   0.080  1.3020 -2.4099 -2.5716
16587TIP3   OH271175   0.400   0.842  13.329  0.1179  0.4095 -0.4892
16587TIP3    H171176   0.308   0.816  13.326 -0.1386  1.3573 -1.4748
16587TIP3    H271177   0.399   0.936  13.309  1.1884  0.7341  0.8326
16588TIP3   OH271178   5.804   1.205   1.297 -0.5696  0.5373 -0.4966
16588TIP3    H171179   5.796   1.280   1.238 -2.8088  0.8471  0.1224
16588TIP3    H271180   5.744   1.225   1.369  1.4266 -0.2369  1.4855
16589TIP3   OH271181   3.165   4.799  16.747 -0.3158 -0.6086 -0.1545
16589TIP3    H171182   3.154   4.707  16.772 -0.1441 -0.7964 -0.7581
16589TIP3    H271183   3.239   4.799  16.686  0.0991  0.0230  0.3467
16590TIP3   OH271184   6.120   4.528  16.183 -0.5213  0.3091  0.0594
16590TIP3    H171185   6.083   4.449  16.144  1.8913 -1.5579  1.2757
16590TIP3    H271186   6.210   4.530  16.150 -0.2746  2.0688  0.7598
16591TIP3   OH271187   0.750   1.034   4.994 -0.8272 -0.0253  0.0777
16591TIP3    H171188   0.778   1.116   5.036  0.1030 -1.0026  1.4663
16591TIP3    H271189   0.654   1.036   5.001 -1.0521  2.0867 -2.2422
16592TIP3   OH271190   5.051   4.214  11.405 -0.0960 -0.3064  0.9595
16592TIP3    H171191   4.990   4.227  11.332  0.3884  0.2779  0.6448
16592TIP3    H271192   5.030   4.127  11.439 -2.4931  0.6349  2.1705
16593TIP3   OH271193   4.926   6.395   5.970 -0.0088  0.0779  0.6254
16593TIP3    H171194   4.913   6.465   6.034  1.8247 -0.2366  1.4063
16593TIP3    H271195   4.841   6.351   5.965 -0.7075  1.2762  1.4119
16594TIP3   OH271196   2.074   6.068  16.109 -0.7433 -0.0738  0.7087
16594TIP3    H171197   2.094   6.085  16.017  0.0655 -1.4465  0.6081
16594TIP3    H271198   1.982   6.042  16.110 -0.7484 -0.0692  0.2874
16595TIP3   OH271199   3.098   4.610  15.440 -0.2561 -0.0385  0.1284
16595TIP3    H171200   3.080   4.669  15.514 -0.1900 -0.3168  0.3666
16595TIP3    H271201   3.156   4.543  15.475 -1.0455 -0.7597  0.1003
16596TIP3   OH271202   2.080   1.733   5.357  0.2023  0.4829  0.2932
16596TIP3    H171203   2.073   1.828   5.372  1.3573  0.7534 -0.6574
16596TIP3    H271204   2.055   1.721   5.265  0.9667  0.0128  0.1336
16597TIP3   OH271205   5.523   5.403   2.743  0.3059  0.2070 -0.4093
16597TIP3    H171206   5.494   5.446   2.823 -1.3856 -1.0901 -0.2673
16597TIP3    H271207   5.480   5.453   2.673  1.3459  1.0033 -0.5006
16598TIP3   OH271208   3.066   4.584   2.907  0.1853 -0.2605 -0.2520
16598TIP3    H171209   3.004   4.643   2.863 -0.2092  1.2674  2.1437
16598TIP3    H271210   3.012   4.510   2.936 -0.5942  1.0073  1.7225
16599TIP3   OH271211   1.071   1.378  14.500  0.2858 -0.7401 -0.6486
16599TIP3    H171212   1.003   1.443  14.485  0.5139 -0.0071  1.1376
16599TIP3    H271213   1.151   1.418  14.467  0.4971  0.1341  0.7939
16600TIP3   OH271214   3.422   3.912  15.071 -0.0995 -0.5191  0.5410
16600TIP3    H171215   3.404   3.901  15.164 -0.0387 -0.2137  0.5889
16600TIP3    H271216   3.513   3.943  15.068  0.5612 -2.3389  0.2934
16601TIP3   OH271217   3.882   4.067   4.875  0.3412  0.2279  0.7722
16601TIP3    H171218   3.896   4.136   4.810  3.4672  1.0448  2.1131
16601TIP3    H271219   3.920   3.989   4.835  2.0373  0.6744  1.4154
16602TIP3   OH271220   5.122   5.087  13.613  0.2404  0.1201  0.2703
16602TIP3    H171221   5.183   5.020  13.643  2.7439  2.7109  1.5303
16602TIP3    H271222   5.149   5.106  13.523  1.4697  1.2814  0.8342
16603TIP3   OH271223   5.509   1.467  15.379  0.4483 -0.3620 -0.3953
16603TIP3    H171224   5.533   1.516  15.301  0.0379  0.5604  0.0418
16603TIP3    H271225   5.585   1.475  15.437  0.5058 -0.5077 -0.4516
16604TIP3   OH271226   3.796   4.370   0.618  0.3057  0.1799 -0.1784
16604TIP3    H171227   3.782   4.297   0.558  1.7205 -0.8181  0.6622
16604TIP3    H271228   3.712   4.381   0.662  0.2331 -1.3397  0.1131
16605TIP3   OH271229   2.803   5.397  15.900  0.6068 -0.7413  0.5294
16605TIP3    H171230   2.843   5.314  15.926  1.3144 -0.6437 -0.2242
16605TIP3    H271231   2.802   5.394  15.804  2.8816  1.1358  0.3819
16606TIP3   OH271232   1.506   2.684  13.513  0.3077 -0.3371  0.8133
16606TIP3    H171233   1.523   2.733  13.432  0.3873  0.5578  1.3545
16606TIP3    H271234   1.491   2.752  13.579 -0.8843 -1.0628  1.3195
16607TIP3   OH271235   6.732   2.795   3.486  0.4944  0.2670 -0.3174
16607TIP3    H171236   6.776   2.874   3.454 -0.3794  1.4246  1.1578
16607TIP3    H271237   6.638   2.815   3.478  0.2516  0.0068  1.3883
16608TIP3   OH271238   6.323   0.410  11.057 -0.4208 -0.0231  0.3243
16608TIP3    H171239   6.315   0.420  10.962  1.3701 -0.4656  0.0869
16608TIP3    H271240   6.296   0.319  11.073 -1.0880  0.1663  0.3001
16609TIP3   OH271241   2.026   4.584  12.528 -0.7992  0.3261  0.0655
16609TIP3    H171242   1.976   4.661  12.501 -0.2966  0.2834 -1.0300
16609TIP3    H271243   2.006   4.574  12.621  0.4276  2.8143  0.6894
16610TIP3   OH271244   5.246   0.837  15.881 -0.0454  0.8158 -0.9865
16610TIP3    H171245   5.292   0.756  15.858  0.8929  1.2173 -0.5367
16610TIP3    H271246   5.158   0.807  15.906  0.5534 -0.1733  0.0479
16611TIP3   OH271247   5.023   2.509  15.322  0.6832  0.2466  0.1252
16611TIP3    H171248   4.947   2.558  15.354  0.4435 -1.3544  2.2291
16611TIP3    H271249   4.988   2.423  15.300  1.2981  0.5558 -2.4082
16612TIP3   OH271250   2.937   4.951   1.715 -0.3823  0.2015 -0.3932
16612TIP3    H171251   3.032   4.951   1.711 -0.3071 -2.4487 -0.6498
16612TIP3    H271252   2.916   4.918   1.803 -1.1998  3.2370  0.6999
16613TIP3   OH271253   5.101   6.670  11.377 -0.1951  0.4689 -0.5242
16613TIP3    H171254   5.129   6.610  11.308  0.6113 -0.0164  0.2092
16613TIP3    H271255   5.005   6.668  11.373 -0.2295  2.5525 -3.4047
16614TIP3   OH271256   0.339   6.214   0.440  0.5481 -0.2654  0.6978
16614TIP3    H171257   0.396   6.290   0.430 -1.1005  0.8330 -0.7530
16614TIP3    H271258   0.260   6.248   0.482 -0.7216 -0.8820 -1.0826
16615TIP3   OH271259   5.526   6.383  11.306 -0.1319  0.4829 -0.1604
16615TIP3    H171260   5.512   6.423  11.392 -4.2492 -1.4569  0.3557
16615TIP3    H271261   5.531   6.457  11.246 -0.3602  1.8706  1.4401
16616TIP3   OH271262   1.561   2.673  14.473  0.2498  0.3361 -0.4796
16616TIP3    H171263   1.505   2.636  14.540  1.2734 -1.1307 -0.3879
16616TIP3    H271264   1.565   2.766  14.494 -0.8647  0.1989  0.4283
16617TIP3   OH271265   4.396   1.872  13.619 -0.7630 -0.4999 -0.3148
16617TIP3    H171266   4.466   1.838  13.676  1.7132 -0.8587 -3.3117
16617TIP3    H271267   4.358   1.793  13.579  0.0727 -0.1549 -1.8612
16618TIP3   OH271268   2.915   4.446  13.250 -0.5336  0.0049 -0.1694
16618TIP3    H171269   2.871   4.401  13.322  0.4872  3.1821  2.6715
16618TIP3    H271270   3.005   4.456  13.278  0.2222  0.3798 -2.4700
16619TIP3   OH271271   1.548   2.090  17.112 -0.1508  0.1241 -0.5597
16619TIP3    H171272   1.496   2.029  17.059 -0.2085  0.7564 -1.2602
16619TIP3    H271273   1.485   2.157  17.139 -0.0405  0.0022 -0.0036
16620TIP3   OH271274   1.517   2.705  16.925  0.1870  0.3715 -0.1407
16620TIP3    H171275   1.442   2.723  16.869  1.0451 -1.6170 -2.1068
16620TIP3    H271276   1.565   2.788  16.931 -1.2601  1.2327 -0.2232
16621TIP3   OH271277   1.878   3.266   6.142 -0.1769 -0.1405 -0.5731
16621TIP3    H171278   1.925   3.241   6.221  0.5832  2.8510  0.0736
16621TIP3    H271279   1.793   3.223   6.150 -1.6346  2.7768  3.9009
16622TIP3   OH271280   3.621   3.920   1.126 -0.7116  0.0685  0.0404
16622TIP3    H171281   3.580   3.833   1.127 -1.7573  0.5456  0.1704
16622TIP3    H271282   3.699   3.910   1.181 -0.3479 -1.0025 -0.6463
16623TIP3   OH271283   1.397   1.189  13.820  0.6921  0.1015 -0.0786
16623TIP3    H171284   1.333   1.218  13.755  0.9134 -1.6419 -1.1351
16623TIP3    H271285   1.351   1.125  13.873  0.5001  1.5507  1.5935
16624TIP3   OH271286   0.698   2.684   6.419  0.0821 -0.4330  0.0414
16624TIP3    H171287   0.692   2.600   6.465 -0.1275 -0.2918  0.2749
16624TIP3    H271288   0.623   2.734   6.451 -0.5168 -0.6166 -1.0321
16625TIP3   OH271289   0.451   5.764   4.015  0.3222  0.3421 -0.4200
16625TIP3    H171290   0.443   5.851   3.975 -0.2566  1.0812  1.1836
16625TIP3    H271291   0.364   5.745   4.049  0.5128 -0.7643 -0.5126
16626TIP3   OH271292   4.329   2.409   0.773  0.1298  0.2471 -0.3810
16626TIP3    H171293   4.423   2.416   0.755  0.2301  1.8313  0.6486
16626TIP3    H271294   4.299   2.338   0.715  1.4385  1.5255 -2.7774
16627TIP3   OH271295   1.150   6.531   6.014  0.2911  0.2246 -0.4568
16627TIP3    H171296   1.236   6.570   6.024  0.7463 -1.3281  3.6147
16627TIP3    H271297   1.090   6.594   6.054 -0.2523  0.5135 -1.6862
16628TIP3   OH271298   1.664   1.671   3.714  0.4442 -0.5396 -0.9020
16628TIP3    H171299   1.700   1.657   3.627  0.6644  0.5369 -0.9931
16628TIP3    H271300   1.577   1.706   3.699  0.5447 -0.1959 -0.6900
16629TIP3   OH271301   0.558   4.817  13.863  0.0085  0.1443  0.2409
16629TIP3    H171302   0.550   4.728  13.898  1.0392 -0.2331 -0.4457
16629TIP3    H271303   0.574   4.804  13.769  2.4010  0.9558  0.4847
16630TIP3   OH271304   6.506   2.484  11.315  0.0240  0.4864  0.1148
16630TIP3    H171305   6.492   2.389  11.307 -2.0591  0.2478  4.0356
16630TIP3    H271306   6.417   2.521  11.311  0.8248  2.4094 -1.7213
16631TIP3   OH271307   4.081   5.975  15.586 -0.0061  0.0140 -0.3850
16631TIP3    H171308   4.118   6.062  15.601 -1.3579  0.1087  3.6029
16631TIP3    H271309   4.132   5.917  15.643 -0.6040 -1.3991 -1.2278
16632TIP3   OH271310   3.448   1.222  14.987  0.8095 -0.6246  0.0259
16632TIP3    H171311   3.489   1.243  14.903  2.0490 -1.1740  0.4801
16632TIP3    H271312   3.505   1.156  15.026 -1.4238 -2.7764 -0.0819
16633TIP3   OH271313   0.408   3.146   1.612 -0.7052  0.0573  0.5118
16633TIP3    H171314   0.399   3.066   1.560 -1.0316  0.8172 -0.6504
16633TIP3    H271315   0.363   3.127   1.694  0.7305 -1.5584  1.0129
16634TIP3   OH271316   5.343   3.723   2.044 -0.1047 -0.1252  0.3679
16634TIP3    H171317   5.398   3.687   1.975  0.8444  0.1524  0.9639
16634TIP3    H271318   5.400   3.783   2.092 -1.1958  0.9529  0.3898
16635TIP3   OH271319   6.586   2.027   0.078  0.3247 -0.7075  0.0837
16635TIP3    H171320   6.559   2.047   0.168 -0.5544 -1.7027  0.0754
16635TIP3    H271321   6.549   2.097   0.025  0.0693 -0.5998  0.4014
16636TIP3   OH271322   3.348   0.822   4.180  0.0001  0.1291 -0.5930
16636TIP3    H171323   3.441   0.840   4.187 -0.1668  0.7683  0.0822
16636TIP3    H271324   3.313   0.892   4.126 -0.2927  0.6525  0.2454
16637TIP3   OH271325   3.726   2.847  12.662  0.3542 -0.2490  0.6988
16637TIP3    H171326   3.728   2.825  12.755 -0.2837 -1.3988  0.4596
16637TIP3    H271327   3.779   2.926  12.655  0.6157 -0.2848  1.9994
16638TIP3   OH271328   4.645   4.860   3.641 -0.1538 -0.7496  0.1978
16638TIP3    H171329   4.636   4.955   3.646  2.8279 -0.3495 -0.1952
16638TIP3    H271330   4.697   4.837   3.718  3.0020 -1.3656 -1.9572
16639TIP3   OH271331   5.028   1.543   5.684 -0.1227 -0.0554 -0.2088
16639TIP3    H171332   4.998   1.494   5.607  1.1961 -2.6727  0.8332
16639TIP3    H271333   4.948   1.581   5.721 -1.5751 -2.9915 -0.0686
16640TIP3   OH271334   1.653   5.632  16.684  0.1653 -0.1454 -0.2602
16640TIP3    H171335   1.568   5.661  16.651 -0.5498 -1.3729  0.4360
16640TIP3    H271336   1.709   5.628  16.606 -1.0340 -1.4188 -1.1066
16641TIP3   OH271337   4.542   1.530   2.342  0.2525 -0.2517  0.6254
16641TIP3    H171338   4.447   1.518   2.345  0.2643 -3.0514 -3.0328
16641TIP3    H271339   4.553   1.619   2.307 -1.0600 -0.1627  0.3762
16642TIP3   OH271340   5.801   4.442  16.289 -0.8173  0.7457  0.1767
16642TIP3    H171341   5.740   4.377  16.253 -0.7852  0.1911  1.0889
16642TIP3    H271342   5.887   4.400  16.283 -0.8163  0.6385  0.9173
16643TIP3   OH271343   4.414   4.969   0.465  0.2951  0.1135  0.1025
16643TIP3    H171344   4.501   4.970   0.506  0.4242  0.0945 -0.1683
16643TIP3    H271345   4.372   5.048   0.498 -0.5390 -1.1412  2.2424
16644TIP3   OH271346   1.790   2.039  14.663  0.1225  0.2286 -0.8960
16644TIP3    H171347   1.769   2.131  14.647 -0.1594 -0.0325 -2.1663
16644TIP3    H271348   1.864   2.021  14.605  1.8460  0.2836  1.1708
16645TIP3   OH271349   4.798   0.272  15.509 -0.1005 -0.3211  0.0338
16645TIP3    H171350   4.812   0.194  15.563 -0.8796 -1.2805 -1.0933
16645TIP3    H271351   4.713   0.306  15.539 -1.2341 -1.6701 -1.4625
16646TIP3   OH271352   2.416   5.889   0.296  0.0969 -0.1830  0.1889
16646TIP3    H171353   2.386   5.911   0.384 -1.3010 -0.6477 -0.1400
16646TIP3    H271354   2.470   5.963   0.269 -0.6755  0.6453  0.8784
16647TIP3   OH271355   3.391   4.465   1.325  0.3650 -0.5185 -0.1258
16647TIP3    H171356   3.390   4.440   1.233 -0.5895  1.5805 -0.7475
16647TIP3    H271357   3.313   4.423   1.362 -0.5839  0.5189 -0.8758
16648TIP3   OH271358   1.570   5.217   2.397  0.3020  0.0018 -0.3237
16648TIP3    H171359   1.609   5.304   2.388  2.0504 -0.7403 -0.4511
16648TIP3    H271360   1.573   5.198   2.490 -2.5415  1.0789  0.0824
16649TIP3   OH271361   0.122   3.177   5.520 -0.1764  0.1933 -0.3508
16649TIP3    H171362   0.170   3.102   5.557  2.3933  0.8156 -2.1170
16649TIP3    H271363   0.064   3.138   5.454 -0.1087 -0.3849 -0.0752
16650TIP3   OH271364   3.475   3.968  14.544 -0.1015  0.2778 -0.4470
16650TIP3    H171365   3.554   3.987  14.595 -0.2640 -0.1327 -0.0366
16650TIP3    H271366   3.404   4.010  14.591 -0.2716 -0.2161 -0.2523
16651TIP3   OH271367   5.246   2.854  16.488  0.0052  0.4092  0.2303
16651TIP3    H171368   5.168   2.852  16.433 -0.7696 -1.9024  1.2646
16651TIP3    H271369   5.294   2.774  16.464  1.1032  0.8398  0.9108
16652TIP3   OH271370   6.648   6.230  16.539  0.6703  0.3827 -1.2152
16652TIP3    H171371   6.630   6.178  16.617  0.7347 -0.0686 -1.4948
16652TIP3    H271372   6.672   6.316  16.572  0.3474  0.2965 -0.7538
16653TIP3   OH271373   0.590   0.914   2.268 -0.3070  0.0464  0.8612
16653TIP3    H171374   0.626   0.997   2.301 -1.9254  1.2934 -0.3401
16653TIP3    H271375   0.603   0.920   2.173 -6.0783  2.0645 -0.2177
16654TIP3   OH271376   4.396   5.830  17.032  0.3852 -0.3413  0.3685
16654TIP3    H171377   4.477   5.783  17.012 -0.0259 -1.0468  0.3269
16654TIP3    H271378   4.335   5.802  16.965  0.8831  2.3726 -1.3486
16655TIP3   OH271379   2.008   6.044   6.154  0.2457  0.3195  0.4325
16655TIP3    H171380   2.041   6.109   6.215 -0.8754  0.9578  0.3776
16655TIP3    H271381   2.054   6.062   6.072 -0.5123  1.4815  0.2340
16656TIP3   OH271382   0.076   6.389   0.361  0.3234 -0.1188  0.4427
16656TIP3    H171383   0.079   6.361   0.453 -0.1322  2.4917  1.3251
16656TIP3    H271384   0.062   6.484   0.365 -4.8908 -0.4229 -2.2992
16657TIP3   OH271385   5.299   0.127   0.836 -0.1903  0.8043 -0.1254
16657TIP3    H171386   5.246   0.126   0.756  0.5522  0.2048 -0.6304
16657TIP3    H271387   5.279   0.044   0.880 -0.3451  0.9794  0.1312
16658TIP3   OH271388   3.808   5.933  17.264 -0.2967 -0.1496 -0.7947
16658TIP3    H171389   3.725   5.933  17.314 -0.2745  0.4300 -0.7493
16658TIP3    H271390   3.871   5.974  17.323 -0.1457  0.0646 -1.1035
16659TIP3   OH271391   0.410   3.952  14.744  0.2735 -0.7349  0.3439
16659TIP3    H171392   0.329   3.909  14.769  0.6034 -1.6628 -0.0967
16659TIP3    H271393   0.474   3.880  14.738  1.4224  0.1147  1.8277
16660TIP3   OH271394   0.286   5.404   6.224  0.2381  0.2760 -0.3766
16660TIP3    H171395   0.237   5.329   6.257  1.9484 -1.1167 -0.9077
16660TIP3    H271396   0.347   5.368   6.161  0.5829  2.2325 -1.2355
16661TIP3   OH271397   2.910   3.875  14.076 -0.2268  0.0660  0.2653
16661TIP3    H171398   2.967   3.833  14.011  0.2645 -0.3748  0.9733
16661TIP3    H271399   2.926   3.969  14.064  0.4427 -0.0460  0.2760
16662TIP3   OH271400   2.301   6.192   1.184 -0.4607  0.1072  0.2525
16662TIP3    H171401   2.276   6.142   1.262  0.3967  0.3779  0.7100
16662TIP3    H271402   2.281   6.134   1.111 -0.8091 -0.3422  0.6933
16663TIP3   OH271403   5.612   4.186  14.512  0.2564  0.2500  0.0061
16663TIP3    H171404   5.611   4.176  14.608 -2.1854 -1.7657 -0.1438
16663TIP3    H271405   5.595   4.279  14.498  4.2225  1.4217  1.4531
16664TIP3   OH271406   2.179   3.549   5.980 -0.0676  0.4390 -0.5191
16664TIP3    H171407   2.258   3.583   5.937  0.9320  1.4258  1.9158
16664TIP3    H271408   2.151   3.620   6.038 -1.0543 -0.9639  0.8021
16665TIP3   OH271409   3.174   2.666   2.168 -0.2912  0.3317  0.1738
16665TIP3    H171410   3.233   2.674   2.243 -0.0676  1.3452 -0.0839
16665TIP3    H271411   3.232   2.656   2.093 -0.4709  0.3760  0.0283
16666TIP3   OH271412   3.151   1.124   3.323  0.2374  0.0520  0.2591
16666TIP3    H171413   3.150   1.032   3.349 -0.0847 -0.9420 -2.7992
16666TIP3    H271414   3.083   1.130   3.256  1.7224  1.9704 -1.2038
16667TIP3   OH271415   6.355   3.930   0.508  0.1624  0.1897 -0.2558
16667TIP3    H171416   6.345   3.962   0.418 -0.6303  0.8165  0.0436
16667TIP3    H271417   6.448   3.909   0.516  0.2259  0.0794 -1.2365
16668TIP3   OH271418   1.988   6.696  17.084  0.4310 -0.5199  0.6975
16668TIP3    H171419   2.016   6.605  17.078  1.7307 -0.0647 -2.3866
16668TIP3    H271420   2.038   6.732  17.157  3.2105 -1.3262 -0.6734
16669TIP3   OH271421   4.657   4.930   0.558 -0.5059  0.1972 -0.1221
16669TIP3    H171422   4.648   4.850   0.609 -1.4010  2.0938  3.0022
16669TIP3    H271423   4.733   4.974   0.596 -0.9210  1.4960 -0.7180
16670TIP3   OH271424   1.439   6.423  14.504  0.0998 -0.2461 -0.0492
16670TIP3    H171425   1.347   6.445  14.518  0.6493  1.3101  1.3691
16670TIP3    H271426   1.438   6.360  14.432 -2.1209 -0.7999  0.4119
16671TIP3   OH271427   2.679   1.169   0.675  0.6507  0.2218 -0.3532
16671TIP3    H171428   2.737   1.099   0.643 -0.5048 -0.3484 -1.3185
16671TIP3    H271429   2.706   1.185   0.765  1.0484 -1.3857 -0.1605
16672TIP3   OH271430   6.041   5.761  15.927 -0.5270 -0.1983  0.1134
16672TIP3    H171431   6.000   5.755  15.841  0.6024  0.6002 -0.5125
16672TIP3    H271432   6.016   5.848  15.959 -1.1735 -0.6037  0.7206
16673TIP3   OH271433   1.792   2.929   4.173 -0.3783 -0.2251 -0.0910
16673TIP3    H171434   1.836   3.006   4.210 -0.4049 -0.0882 -0.3450
16673TIP3    H271435   1.837   2.912   4.091 -1.5561  0.6586 -0.9564
16674TIP3   OH271436   6.397   3.084   3.340 -0.5330  0.1288 -0.4033
16674TIP3    H171437   6.394   3.180   3.344  1.5980  0.2594 -0.9620
16674TIP3    H271438   6.337   3.062   3.268  0.0289  1.1655 -1.2266
16675TIP3   OH271439   4.117   0.445   1.047  0.2185  0.6896  0.3680
16675TIP3    H171440   4.142   0.354   1.059 -0.4885  0.6730  2.1464
16675TIP3    H271441   4.191   0.485   1.002  0.1843 -0.9187 -1.2181
16676TIP3   OH271442   1.724   4.081   3.316  0.1131  0.2653  0.1124
16676TIP3    H171443   1.757   3.993   3.331  0.6915  0.5559  0.6349
16676TIP3    H271444   1.747   4.129   3.396 -0.8985  0.6841  0.1653
16677TIP3   OH271445   5.808   3.552  16.006  0.2790 -0.0893  0.7998
16677TIP3    H171446   5.860   3.476  15.982 -0.9837 -0.7698  0.0915
16677TIP3    H271447   5.796   3.600  15.924  1.2596  1.0308  1.2786
16678TIP3   OH271448   3.560   4.893  16.221  0.0484  0.4578  0.1510
16678TIP3    H171449   3.630   4.828  16.215  0.0542  0.5974 -1.5667
16678TIP3    H271450   3.489   4.847  16.265  1.2354  0.3798  2.1385
16679TIP3   OH271451   4.767   4.617   2.575  0.2550 -0.6417 -0.6403
16679TIP3    H171452   4.745   4.638   2.484  2.3703  0.4325 -0.9656
16679TIP3    H271453   4.686   4.582   2.612 -2.1467  3.4098 -1.5106
16680TIP3   OH271454   2.715   2.079   2.491  0.2210 -0.1400  0.0945
16680TIP3    H171455   2.627   2.102   2.462 -0.0905  0.7680  1.6356
16680TIP3    H271456   2.706   1.990   2.525  0.2068 -0.5439 -0.9330
16681TIP3   OH271457   4.855   3.409   3.796  0.0708 -0.0718 -0.1710
16681TIP3    H171458   4.799   3.444   3.726  0.8463 -2.9316 -2.4443
16681TIP3    H271459   4.925   3.473   3.807 -1.7410  1.9338  0.3153
16682TIP3   OH271460   4.956   6.231  16.355  0.5702 -0.1837  0.0400
16682TIP3    H171461   4.944   6.247  16.262  0.0754  0.6120  0.2310
16682TIP3    H271462   4.940   6.316  16.396  3.5635  0.2175  0.6262
16683TIP3   OH271463   0.222   0.322  15.635 -0.2803  0.4920 -0.7218
16683TIP3    H171464   0.229   0.229  15.660 -1.2897 -0.0362 -2.3040
16683TIP3    H271465   0.263   0.368  15.708 -0.7297 -1.1223  0.6320
16684TIP3   OH271466   5.629   0.889  12.735  0.0078 -0.2861  0.1677
16684TIP3    H171467   5.668   0.819  12.788 -0.2882 -0.7411 -0.2073
16684TIP3    H271468   5.684   0.965  12.752  0.1131 -0.5132  0.8703
16685TIP3   OH271469   1.051   0.067  13.734 -0.0821 -0.5075 -0.1783
16685TIP3    H171470   0.992   0.032  13.667  1.6963 -2.4751 -0.8481
16685TIP3    H271471   1.117  -0.001  13.745  0.9110  0.7003  2.0451
16686TIP3   OH271472   0.614   4.577  17.082 -0.6919  0.0691 -0.0814
16686TIP3    H171473   0.696   4.550  17.123 -1.0197  1.2900  1.4609
16686TIP3    H271474   0.631   4.569  16.988  1.4845  1.0001  0.1630
16687TIP3   OH271475   5.204   2.139   1.759 -0.5568  0.7553 -0.3213
16687TIP3    H171476   5.187   2.175   1.672 -0.1161  0.2889 -0.6050
16687TIP3    H271477   5.135   2.176   1.814 -0.6061  1.3649 -0.7826
16688TIP3   OH271478   3.218   3.294  15.133 -0.6452  0.3691 -0.0073
16688TIP3    H171479   3.244   3.359  15.068 -0.2052  0.4435  0.2413
16688TIP3    H271480   3.294   3.286  15.191 -0.8554 -0.0501  0.2148
16689TIP3   OH271481   2.711   3.888   0.609 -0.0036  0.0604 -0.0759
16689TIP3    H171482   2.619   3.914   0.608  0.2193  0.9519 -1.9121
16689TIP3    H271483   2.715   3.815   0.547  0.4254 -0.3671  0.4552
16690TIP3   OH271484   0.681   4.770  11.838  0.0376 -0.0338 -0.0038
16690TIP3    H171485   0.698   4.773  11.744  0.1745  0.3636  0.0298
16690TIP3    H271486   0.762   4.736  11.876 -0.2091 -0.7178 -0.0719
16691TIP3   OH271487   1.483   0.609  17.027  0.3478  0.2918  0.7200
16691TIP3    H171488   1.471   0.696  16.988 -0.1164 -0.3690 -0.6874
16691TIP3    H271489   1.477   0.624  17.121 -2.7382  1.3923  0.4711
16692TIP3   OH271490   3.630   1.982   0.314  0.7333  0.0447  1.0893
16692TIP3    H171491   3.645   1.897   0.273  0.2857  0.1739  0.6516
16692TIP3    H271492   3.629   1.963   0.408  0.5699 -0.4435  0.9915
16693TIP3   OH271493   5.805   5.512   4.411  0.2147 -0.0857 -0.2332
16693TIP3    H171494   5.862   5.503   4.487  1.1994  0.3168 -0.8980
16693TIP3    H271495   5.729   5.457   4.431  0.5770 -0.1904  0.9169
16694TIP3   OH271496   3.548   4.251   5.102  0.0234 -0.0371 -0.0687
16694TIP3    H171497   3.564   4.157   5.088  1.3490 -0.4180  3.1824
16694TIP3    H271498   3.453   4.258   5.113  0.0199 -1.2436  0.8853
16695TIP3   OH271499   4.898   1.392   5.465 -0.5593 -0.1373 -0.2933
16695TIP3    H171500   4.887   1.332   5.391 -0.7599  1.0590 -1.2623
16695TIP3    H271501   4.812   1.393   5.508 -0.5037 -0.6745 -0.1635
16696TIP3   OH271502   6.486   6.705  15.544  0.0963  0.1705  0.3331
16696TIP3    H171503   6.401   6.674  15.576 -0.4214  0.4564 -0.7003
16696TIP3    H271504   6.521   6.757  15.616 -2.1136  2.8125 -0.3318
16697TIP3   OH271505   5.180   2.160  11.693 -0.0515  0.4201 -0.8513
16697TIP3    H171506   5.274   2.177  11.703 -0.4045  1.5497  0.9183
16697TIP3    H271507   5.148   2.148  11.783 -1.2458 -2.0964 -1.5250
16698TIP3   OH271508   1.511   2.624   0.882  0.0195 -0.2083  0.1189
16698TIP3    H171509   1.599   2.588   0.896 -0.7059 -2.9606 -1.6231
16698TIP3    H271510   1.506   2.639   0.788 -0.6681  2.1686  0.4603
16699TIP3   OH271511   4.453   1.686   1.775 -0.1944  0.0529  0.3727
16699TIP3    H171512   4.426   1.604   1.816 -0.0077 -0.6025 -0.7926
16699TIP3    H271513   4.397   1.752   1.816 -1.1255 -0.8041  0.5222
16700TIP3   OH271514   3.210   6.398  15.263  0.5221  0.7371  0.4305
16700TIP3    H171515   3.236   6.411  15.171  1.1896 -0.9735  0.3443
16700TIP3    H271516   3.122   6.434  15.267  1.1761  2.5794 -0.3916
16701TIP3   OH271517   2.212   4.016   5.599  0.1093 -0.7081 -0.1463
16701TIP3    H171518   2.274   3.987   5.532  1.8170 -0.2729  1.1548
16701TIP3    H271519   2.227   3.957   5.673  0.3041  0.5504  0.8504
16702TIP3   OH271520   3.272   3.406   5.787  0.4163 -0.0152  0.0868
16702TIP3    H171521   3.349   3.462   5.790 -0.3895  1.2304 -1.2668
16702TIP3    H271522   3.239   3.406   5.877  1.1804  0.5875  0.3812
16703TIP3   OH271523   3.385   6.437  15.465 -0.3868  0.2469  0.2235
16703TIP3    H171524   3.429   6.353  15.458 -2.2113 -0.7316  0.0010
16703TIP3    H271525   3.322   6.437  15.393 -1.4575  1.1493  1.1315
16704TIP3   OH271526   3.860   6.410   6.342  0.2953 -0.1786 -0.1416
16704TIP3    H171527   3.898   6.493   6.314  0.0496  0.1526  0.5066
16704TIP3    H271528   3.863   6.412   6.437 -1.8953  0.1401 -0.0268
16705TIP3   OH271529   3.544   6.003   0.380  0.0261  0.3463 -0.8384
16705TIP3    H171530   3.450   5.999   0.366  0.1830  1.4320 -2.5907
16705TIP3    H271531   3.580   5.932   0.327  0.2912  1.1777 -1.8145
16706TIP3   OH271532   4.109   5.132  15.931  0.0701  0.5831 -0.1246
16706TIP3    H171533   4.014   5.147  15.939 -0.1532 -0.8914  0.5147
16706TIP3    H271534   4.116   5.066  15.862  0.4945 -0.3169  0.7514
16707TIP3   OH271535   5.030   3.394   5.150  0.2123  0.4687  0.0484
16707TIP3    H171536   5.109   3.413   5.201  0.8291  0.7145 -0.9800
16707TIP3    H271537   5.060   3.390   5.060 -0.5756 -1.6856 -0.1590
16708TIP3   OH271538   3.681   5.649  12.958 -0.0845  0.2524  0.3118
16708TIP3    H171539   3.591   5.661  12.988  0.4975 -0.1842  2.3494
16708TIP3    H271540   3.686   5.703  12.879 -1.8845  0.9533  0.6063
16709TIP3   OH271541   5.516   5.000   5.626 -0.1724 -0.2297 -0.3090
16709TIP3    H171542   5.513   5.018   5.720  0.6316 -0.5557 -0.2152
16709TIP3    H271543   5.527   5.086   5.586 -3.3298  0.3146 -0.3255
16710TIP3   OH271544   4.718   3.370   4.032 -0.3904 -0.1961  0.8356
16710TIP3    H171545   4.762   3.397   3.951  0.1058 -0.2127  1.0973
16710TIP3    H271546   4.750   3.282   4.049 -0.5912 -0.2410  0.9838
16711TIP3   OH271547   4.070   5.215   2.100  0.0167  0.1980  0.0921
16711TIP3    H171548   4.064   5.298   2.052  3.6841  0.6974  0.2079
16711TIP3    H271549   4.051   5.238   2.191 -1.6931  0.2835 -0.2425
16712TIP3   OH271550   6.613   3.034  12.989 -0.6499  0.1890 -0.5459
16712TIP3    H171551   6.645   3.110  13.038 -0.6289 -1.4795  2.2357
16712TIP3    H271552   6.517   3.043  12.993 -0.6422  0.3039 -0.6105
16713TIP3   OH271553   3.472   2.554  14.870  0.3821 -0.6014  0.0312
16713TIP3    H171554   3.435   2.643  14.864 -1.5089 -1.4214 -1.7128
16713TIP3    H271555   3.397   2.496  14.861  1.7854 -2.3912 -0.8367
16714TIP3   OH271556   0.745   6.017  12.237 -0.1428  0.7110  0.4335
16714TIP3    H171557   0.681   6.042  12.170 -0.7276  1.2151  1.1602
16714TIP3    H271558   0.806   5.959  12.191 -1.0720  0.2774 -0.3139
16715TIP3   OH271559   1.263   6.215  16.360  0.3649 -0.8835  0.0836
16715TIP3    H171560   1.314   6.184  16.435  0.8991 -4.2004 -1.4745
16715TIP3    H271561   1.279   6.309  16.358 -0.6415 -0.3709  4.7273
16716TIP3   OH271562   0.327   0.048   0.898 -0.1659  0.5509  0.0268
16716TIP3    H171563   0.368   0.097   0.969  1.2284 -0.4009 -0.0815
16716TIP3    H271564   0.396  -0.010   0.866 -0.6093  1.2691 -2.4129
16717TIP3   OH271565   4.795   3.781   4.175  0.2433 -0.2165 -0.3851
16717TIP3    H171566   4.756   3.711   4.227  1.4349  0.0629  0.9436
16717TIP3    H271567   4.737   3.790   4.099  0.1118 -2.6926 -0.6429
16718TIP3   OH271568   4.829   1.104  12.949 -0.7758  0.3326  0.0558
16718TIP3    H171569   4.815   1.168  13.018  0.9807  1.4030 -0.5389
16718TIP3    H271570   4.786   1.142  12.872 -0.4331  0.4085 -0.0973
16719TIP3   OH271571   3.448   2.122   2.429  0.0670 -0.3256 -0.4669
16719TIP3    H171572   3.403   2.088   2.352 -0.4304 -1.8117  0.4490
16719TIP3    H271573   3.392   2.192   2.461 -0.6887 -0.9709 -0.3659
16720TIP3   OH271574   0.904   2.182   1.064  0.2329  0.0214 -0.2966
16720TIP3    H171575   0.873   2.229   0.987  1.3828 -1.3636 -1.6700
16720TIP3    H271576   0.999   2.178   1.053  0.6285  1.1565  2.0318
16721TIP3   OH271577   3.952   1.112  16.818  0.0740  0.1272 -0.0562
16721TIP3    H171578   3.923   1.104  16.727 -1.3818  1.4443  0.2675
16721TIP3    H271579   3.888   1.169  16.860  2.7497  2.6637  0.8960
16722TIP3   OH271580   6.543   4.147   5.667 -0.1841  0.5644  0.1769
16722TIP3    H171581   6.590   4.100   5.736 -0.8897  1.7567  1.5283
16722TIP3    H271582   6.597   4.225   5.650 -0.1218  0.3829 -0.4977
16723TIP3   OH271583   1.042   4.857   5.815 -0.1001 -0.4717  0.1381
16723TIP3    H171584   0.988   4.876   5.893  0.8136  1.3158  0.3691
16723TIP3    H271585   1.126   4.899   5.833  0.5337 -1.0555 -1.3316
16724TIP3   OH271586   6.399   3.510  15.126  0.1799 -0.4768  0.2758
16724TIP3    H171587   6.371   3.494  15.036  2.5853 -2.0017 -0.2877
16724TIP3    H271588   6.341   3.581  15.157 -2.5767 -1.8021 -1.4608
16725TIP3   OH271589   4.144   2.017   4.906  0.2840  0.4215 -0.2241
16725TIP3    H171590   4.094   1.983   4.980  1.3207 -0.2436  0.1927
16725TIP3    H271591   4.107   1.972   4.830  0.3170 -0.1532  0.0928
16726TIP3   OH271592   0.840   3.889   0.839 -0.4767 -0.0993  0.2055
16726TIP3    H171593   0.849   3.794   0.841 -2.6570 -0.4582 -2.0473
16726TIP3    H271594   0.782   3.909   0.912  0.2702 -0.4210  0.9032
16727TIP3   OH271595   0.880   1.092  15.132  0.4184 -0.2964 -0.9554
16727TIP3    H171596   0.903   1.137  15.213  1.5983 -0.7931 -1.0038
16727TIP3    H271597   0.946   1.024  15.122 -1.8890 -2.8343 -0.2848
16728TIP3   OH271598   3.364   0.945  15.749  0.1989 -0.0682 -0.2709
16728TIP3    H171599   3.453   0.952  15.782  0.2211 -0.5321 -0.2242
16728TIP3    H271600   3.372   0.894  15.668 -0.0017  0.0217 -0.3486
16729TIP3   OH271601   5.692   2.528   0.692 -0.1648  0.3616  0.2399
16729TIP3    H171602   5.769   2.511   0.638 -2.1747 -2.6949 -1.9644
16729TIP3    H271603   5.709   2.481   0.773  0.0027 -1.0836 -0.5871
16730TIP3   OH271604   0.309   1.887  15.481 -0.1706 -0.4975 -0.2275
16730TIP3    H171605   0.217   1.876  15.459 -0.0555  1.2832 -1.8338
16730TIP3    H271606   0.310   1.960  15.543  0.0264 -1.8008  1.3671
16731TIP3   OH271607   1.754   1.472  11.283  0.3110 -0.1208 -0.3624
16731TIP3    H171608   1.766   1.504  11.373  1.9279  1.4300 -1.0446
16731TIP3    H271609   1.690   1.532  11.244  1.2628  0.6084 -0.8483
16732TIP3   OH271610   0.576   4.541  15.466  0.2415  0.0644 -0.0549
16732TIP3    H171611   0.646   4.605  15.475  0.9217 -0.3182 -2.1053
16732TIP3    H271612   0.613   4.460  15.501  0.2116  0.2294  0.3705
16733TIP3   OH271613   6.352   3.476  12.322 -0.1328 -0.1702 -0.0606
16733TIP3    H171614   6.324   3.474  12.414  0.1906  1.3023  0.0919
16733TIP3    H271615   6.392   3.562  12.311  3.3851 -1.7010 -0.5607
16734TIP3   OH271616   0.896   4.867  13.801  0.0609 -0.0646 -0.0023
16734TIP3    H171617   0.904   4.958  13.772  0.5445  0.5432  1.8939
16734TIP3    H271618   0.802   4.852  13.806 -0.0568 -0.3006 -2.0666
16735TIP3   OH271619   5.330   0.850  16.782  0.0349  0.2789  0.2412
16735TIP3    H171620   5.394   0.890  16.840  0.0288 -0.4920  0.7884
16735TIP3    H271621   5.254   0.832  16.838  0.6660 -2.0892  0.4571
16736TIP3   OH271622   0.609   5.225   4.413  0.5077 -0.1648  0.1811
16736TIP3    H171623   0.704   5.233   4.401  0.7316 -1.9816  0.4304
16736TIP3    H271624   0.599   5.198   4.504 -0.3410  1.1578  0.4930
16737TIP3   OH271625   5.092   5.505  12.939 -0.3494  0.4316 -0.0306
16737TIP3    H171626   5.144   5.579  12.972  0.0611 -0.1913  0.7486
16737TIP3    H271627   5.002   5.537  12.941 -0.2404  0.7340  0.8478
16738TIP3   OH271628   4.467   4.174  13.701 -0.4381 -0.0567  0.0553
16738TIP3    H171629   4.539   4.205  13.646 -0.1625 -1.3214 -0.3205
16738TIP3    H271630   4.394   4.233  13.680  0.4909  1.3260  0.5357
16739TIP3   OH271631   2.942   5.652   5.536 -0.6208 -0.2166 -0.1757
16739TIP3    H171632   2.890   5.732   5.534 -1.5438 -0.7711  0.7092
16739TIP3    H271633   2.931   5.618   5.624  1.1855 -0.4158  0.0164
16740TIP3   OH271634   6.026   4.983  16.444  0.0801 -0.2619  0.0755
16740TIP3    H171635   6.048   5.075  16.459  0.3873 -0.2695 -0.3058
16740TIP3    H271636   6.079   4.958  16.369  1.2446 -1.2256  1.1843
16741TIP3   OH271637   4.067   1.944  15.779  0.6677 -0.2523  0.1643
16741TIP3    H171638   4.042   2.030  15.744  1.6254  0.2492  0.6745
16741TIP3    H271639   4.084   1.960  15.872 -0.2007 -1.2290  0.5093
16742TIP3   OH271640   6.680   1.445   0.788  0.3505  0.5085 -0.0133
16742TIP3    H171641   6.588   1.458   0.767  0.4576  0.2085 -0.6810
16742TIP3    H271642   6.718   1.532   0.782  0.4033  0.4166 -1.2155
16743TIP3   OH271643   6.210   1.677   5.448 -0.2793  0.3485 -0.8421
16743TIP3    H171644   6.133   1.638   5.408  0.0743 -0.2607 -0.9468
16743TIP3    H271645   6.217   1.634   5.533 -0.8392  1.3963 -0.2441
16744TIP3   OH271646   1.818   4.397  16.764 -0.0369 -0.2528  0.3303
16744TIP3    H171647   1.741   4.450  16.784 -2.5284 -3.8554  1.3046
16744TIP3    H271648   1.885   4.426  16.826 -1.0584  1.9087  0.5198
16745TIP3   OH271649   6.010   5.676   2.857 -0.0634  0.1562 -0.2429
16745TIP3    H171650   6.005   5.772   2.855  0.7722  0.2717  1.6207
16745TIP3    H271651   5.921   5.648   2.874  0.2087  0.8270  2.8649
16746TIP3   OH271652   4.869   2.097   2.066  0.0766  0.1915 -0.1883
16746TIP3    H171653   4.777   2.077   2.048 -0.1194  0.9058 -0.0445
16746TIP3    H271654   4.904   2.125   1.982  0.1475 -0.0412 -0.2346
16747TIP3   OH271655   1.661   6.172  14.256  0.2864 -0.2767  0.4653
16747TIP3    H171656   1.676   6.253  14.206  0.1441 -0.0439  0.7997
16747TIP3    H271657   1.724   6.176  14.328 -0.0254 -0.2457  0.7395
16748TIP3   OH271658   5.498   4.611   1.611 -0.5020 -0.3503  0.2821
16748TIP3    H171659   5.571   4.554   1.588 -0.5477 -0.2644 -0.0861
16748TIP3    H271660   5.431   4.551   1.646 -0.4202 -0.4788  0.2188
16749TIP3   OH271661   5.168   6.233   4.459 -0.6019  0.6793 -0.5580
16749TIP3    H171662   5.165   6.311   4.404 -0.2863  0.3571 -1.0454
16749TIP3    H271663   5.166   6.266   4.549 -2.3198  1.1675 -0.7526
16750TIP3   OH271664   0.302   3.339   3.392  0.8101  0.2885  0.7355
16750TIP3    H171665   0.335   3.426   3.415  1.4166  0.4189 -0.5227
16750TIP3    H271666   0.215   3.356   3.356  1.8908  0.7397 -1.8980
16751TIP3   OH271667   1.652   3.384  12.341  0.5692  0.0920 -0.0754
16751TIP3    H171668   1.657   3.406  12.248  0.8104  1.1578  0.1804
16751TIP3    H271669   1.584   3.442  12.376 -0.7054 -1.4277  0.1165
16752TIP3   OH271670   6.554   4.821  11.632  0.0649  0.0481 -0.4230
16752TIP3    H171671   6.539   4.726  11.634  1.4972 -0.2031 -0.3573
16752TIP3    H271672   6.650   4.830  11.632 -0.0430  1.4877 -0.8449
16753TIP3   OH271673   3.108   5.978  14.243  0.1847  0.4196 -0.1109
16753TIP3    H171674   3.182   6.001  14.186  0.9447  1.4050  1.2182
16753TIP3    H271675   3.117   5.884  14.258 -0.7187 -0.1292 -2.5090
16754TIP3   OH271676   3.309   4.129   5.211 -0.0259  0.4143 -0.0604
16754TIP3    H171677   3.240   4.195   5.218  2.0090  2.5904  0.3386
16754TIP3    H271678   3.369   4.148   5.283  1.0665 -1.3939 -0.4135
16755TIP3   OH271679   1.872   4.327   0.737 -0.5485  0.2708  0.2417
16755TIP3    H171680   1.882   4.368   0.651  2.9758 -2.4800 -0.8971
16755TIP3    H271681   1.829   4.244   0.719 -0.1575 -0.1509  1.2113
16756TIP3   OH271682   1.400   3.592   2.435  0.6849 -0.6636 -0.3507
16756TIP3    H171683   1.311   3.624   2.451  0.6478 -1.0241  0.2315
16756TIP3    H271684   1.453   3.671   2.427  0.9203 -0.3296  2.8928
16757TIP3   OH271685   0.890   6.241   6.186  0.8900 -0.2824 -0.4640
16757TIP3    H171686   0.808   6.213   6.229  0.0436 -0.5665 -2.1891
16757TIP3    H271687   0.933   6.159   6.163  1.9785 -0.1399  0.9293
16758TIP3   OH271688   6.375   2.217   2.753 -0.2828 -0.2545  0.4269
16758TIP3    H171689   6.327   2.281   2.805 -0.3136 -1.4089  1.8599
16758TIP3    H271690   6.467   2.239   2.767 -0.3054 -0.1012  0.3430
16759TIP3   OH271691   3.715   5.194   3.071 -0.2609 -0.0715  0.0731
16759TIP3    H171692   3.690   5.248   2.996 -0.7500 -0.0077  0.2733
16759TIP3    H271693   3.634   5.184   3.121 -0.2978 -1.3585 -0.1893
16760TIP3   OH271694   0.598   5.823   3.043  0.1480  0.4951  0.1348
16760TIP3    H171695   0.682   5.777   3.032  1.6128  3.1084 -0.5238
16760TIP3    H271696   0.566   5.835   2.954 -0.7350 -0.1341  0.3627
16761TIP3   OH271697   2.125   2.301   5.537  0.4877  0.3591 -0.7303
16761TIP3    H171698   2.141   2.208   5.553 -1.3118 -0.1486 -1.6705
16761TIP3    H271699   2.138   2.312   5.443 -0.7653  0.7183 -0.8755
16762TIP3   OH271700   6.158   0.761   5.584 -0.0314 -0.4937 -0.0620
16762TIP3    H171701   6.168   0.712   5.666  0.8999  1.6989  1.2230
16762TIP3    H271702   6.064   0.774   5.575 -0.0611  1.5728  2.2212
16763TIP3   OH271703   3.386   2.321  17.176  0.5759 -0.2348 -0.2207
16763TIP3    H171704   3.469   2.349  17.138 -0.7451  1.1353 -2.2828
16763TIP3    H271705   3.323   2.387  17.148 -1.3370 -1.5335  0.7915
16764TIP3   OH271706   4.166   1.119  15.790 -0.3555 -0.3988 -0.1758
16764TIP3    H171707   4.247   1.070  15.773  0.7685  0.1873  2.8953
16764TIP3    H271708   4.186   1.208  15.761  1.6881  0.6893  3.8017
16765TIP3   OH271709   1.325   2.954   4.201  0.3048 -0.2822 -0.6141
16765TIP3    H171710   1.297   2.967   4.291  1.0744  1.7388 -0.6094
16765TIP3    H271711   1.379   2.875   4.204 -0.6011 -0.8890  0.4474
16766TIP3   OH271712   3.430   2.001   3.128 -0.4520  0.5576  0.0651
16766TIP3    H171713   3.340   2.005   3.096  0.1680 -1.3628 -2.2399
16766TIP3    H271714   3.461   2.092   3.127 -1.7982  1.0291 -0.9144
16767TIP3   OH271715   0.657   0.898  12.923 -0.2302  0.3079 -0.2060
16767TIP3    H171716   0.648   0.810  12.888 -2.0371  0.3831 -0.0315
16767TIP3    H271717   0.670   0.886  13.017 -0.7442  0.2167 -0.1423
16768TIP3   OH271718   2.547   6.236   2.746  0.8846  0.2585  0.0524
16768TIP3    H171719   2.507   6.278   2.822  1.4072 -0.1990  0.5927
16768TIP3    H271720   2.485   6.167   2.721 -1.1040  2.6276 -2.2195
16769TIP3   OH271721   5.642   0.523   2.752  0.3603  0.3536 -0.2637
16769TIP3    H171722   5.592   0.446   2.778  0.8539  0.1556  0.1095
16769TIP3    H271723   5.576   0.591   2.739 -0.1521 -0.3002 -1.2507
16770TIP3   OH271724   1.578   3.316  11.373 -0.1587 -0.1980 -0.0511
16770TIP3    H171725   1.576   3.412  11.367 -1.5000 -0.3086 -2.0519
16770TIP3    H271726   1.633   3.288  11.300 -1.0992 -1.0044 -0.4668
16771TIP3   OH271727   1.753   5.193  13.329 -0.3199  0.0189 -0.6285
16771TIP3    H171728   1.678   5.252  13.334 -0.2298  0.0769  2.5040
16771TIP3    H271729   1.830   5.250  13.341 -0.1142 -0.4619  0.5201
16772TIP3   OH271730   0.519   0.470  10.843  0.4605 -0.4482 -0.1464
16772TIP3    H171731   0.440   0.515  10.874  2.1014  1.8452  1.0479
16772TIP3    H271732   0.526   0.494  10.751  0.8644  1.1686  0.2733
16773TIP3   OH271733   3.335   2.287   0.576 -0.3513  0.0187 -0.0105
16773TIP3    H171734   3.378   2.227   0.514  0.0493 -0.0004  0.2836
16773TIP3    H271735   3.397   2.295   0.648 -0.6638  0.3253  0.2244
16774TIP3   OH271736   2.368   0.120   6.654 -0.5800 -0.9905  0.0204
16774TIP3    H171737   2.285   0.120   6.607 -0.3730 -0.0272 -0.3718
16774TIP3    H271738   2.382   0.212   6.677  1.6190 -0.6702 -2.1863
16775TIP3   OH271739   6.393   5.967   5.036 -0.5833 -0.6424 -0.0422
16775TIP3    H171740   6.462   6.034   5.029 -0.5567 -0.8022 -2.4178
16775TIP3    H271741   6.324   6.008   5.088 -0.1036  0.8538 -0.5357
16776TIP3   OH271742   6.116   1.255  15.618  0.6770  0.1693  0.1397
16776TIP3    H171743   6.186   1.306  15.577  0.2661 -0.9169 -2.0712
16776TIP3    H271744   6.070   1.318  15.674  1.1640  1.8237 -1.2287
16777TIP3   OH271745   5.042   0.973  16.120 -0.8175 -0.6452  0.4640
16777TIP3    H171746   5.071   0.889  16.085  0.3583 -0.2242  0.3547
16777TIP3    H271747   4.992   1.013  16.050 -2.4753 -1.7486  0.9447
16778TIP3   OH271748   1.021   0.959  16.418  0.0638 -0.5304 -0.7739
16778TIP3    H171749   0.990   1.008  16.342 -1.9020  0.1736  0.4348
16778TIP3    H271750   1.058   1.026  16.476 -2.6440 -0.3570  0.8893
16779TIP3   OH271751   6.054   4.781   5.612 -0.6158 -0.2897 -0.2049
16779TIP3    H171752   6.039   4.688   5.624 -0.9629 -0.1934  0.1248
16779TIP3    H271753   6.149   4.791   5.618 -0.5430 -0.6788 -0.6728
16780TIP3   OH271754   4.033   5.841  14.812  0.4397  0.4854 -0.4915
16780TIP3    H171755   3.979   5.802  14.881  0.4396 -1.0057 -1.2713
16780TIP3    H271756   4.024   5.935  14.824  0.0203  0.2552  1.1982
16781TIP3   OH271757   2.167   1.079   2.615 -0.3633  0.3138  0.3855
16781TIP3    H171758   2.148   0.994   2.575 -0.8716  0.1643  0.9338
16781TIP3    H271759   2.133   1.143   2.553  0.7310  0.1512 -0.4137
16782TIP3   OH271760   3.039   1.515  15.274  0.6905 -0.0598 -0.5096
16782TIP3    H171761   3.090   1.477  15.346  0.0884 -0.6334 -0.3809
16782TIP3    H271762   2.953   1.473  15.281 -0.2193  1.8183  0.0314
16783TIP3   OH271763   3.995   5.028   1.111 -0.2860 -0.2240  0.7262
16783TIP3    H171764   3.965   4.938   1.120  0.0945 -0.3910  0.3511
16783TIP3    H271765   3.917   5.076   1.082 -0.7812 -0.2045  2.0482
16784TIP3   OH271766   5.516   2.763   0.932 -0.2930  0.3027  0.3313
16784TIP3    H171767   5.596   2.797   0.891 -0.7374 -1.4491 -2.2017
16784TIP3    H271768   5.546   2.714   1.008  0.7596  1.9140  1.0053
16785TIP3   OH271769   1.341   4.229   1.139  0.2725 -0.0859 -0.4396
16785TIP3    H171770   1.428   4.261   1.164 -0.1380 -0.4070  1.6109
16785TIP3    H271771   1.318   4.167   1.208 -1.3099 -0.5323 -1.3241
16786TIP3   OH271772   2.542   0.677   5.671 -0.2371 -0.1605 -0.4794
16786TIP3    H171773   2.556   0.590   5.634 -1.5094  0.3851 -2.3744
16786TIP3    H271774   2.469   0.666   5.731 -0.2632 -0.4463 -0.5625
16787TIP3   OH271775   3.631   2.920   1.765 -0.4523 -0.1805 -0.3652
16787TIP3    H171776   3.570   2.975   1.715 -0.3710 -0.0872 -0.3629
16787TIP3    H271777   3.589   2.835   1.770  0.2360 -0.6405 -1.9304
16788TIP3   OH271778   1.784   0.028   2.341  0.1423  0.1706 -0.0421
16788TIP3    H171779   1.694   0.034   2.308  0.0297  0.1313  0.2562
16788TIP3    H271780   1.839   0.039   2.263 -0.1297 -0.4933 -0.3309
16789TIP3   OH271781   2.271   5.065  12.249 -0.0485 -0.7930  0.1553
16789TIP3    H171782   2.314   5.062  12.335 -1.8723 -1.3739  1.1111
16789TIP3    H271783   2.249   5.157  12.237 -0.0599 -0.7509  0.4738
16790TIP3   OH271784   0.901   4.964   5.388  0.3212  0.0181 -0.4168
16790TIP3    H171785   0.936   4.897   5.447  0.3564  0.4276  0.0330
16790TIP3    H271786   0.971   4.979   5.325  0.2894 -0.4149 -0.5557
16791TIP3   OH271787   3.251   3.183  16.297  0.7096 -0.1104 -0.3379
16791TIP3    H171788   3.188   3.228  16.354  3.0904  1.9752  0.8471
16791TIP3    H271789   3.211   3.188  16.210 -1.4206 -0.2371  0.5599
16792TIP3   OH271790   5.042   5.566   1.187  0.3329  0.2884 -0.1303
16792TIP3    H171791   5.003   5.649   1.214  0.3929  0.0624  0.6646
16792TIP3    H271792   5.065   5.579   1.095  0.0759  1.0501 -0.0907
16793TIP3   OH271793   1.631   4.427   2.918  0.0250 -0.3877  0.7133
16793TIP3    H171794   1.720   4.399   2.895  0.0905  0.5865 -0.2721
16793TIP3    H271795   1.620   4.397   3.009 -0.1096 -3.9768 -0.3458
16794TIP3   OH271796   3.123   5.684   2.514 -0.7971 -0.0035 -0.3448
16794TIP3    H171797   3.183   5.646   2.450 -1.0553  0.6282 -0.9790
16794TIP3    H271798   3.058   5.616   2.529 -1.3836  0.2366 -1.6369
16795TIP3   OH271799   5.216   5.996   4.340  0.2934 -0.5783  0.2738
16795TIP3    H171800   5.212   5.940   4.418 -0.8096 -0.7571  0.1062
16795TIP3    H271801   5.226   6.084   4.375  0.4538 -0.7188  0.5909
16796TIP3   OH271802   1.816   5.469  14.119 -0.2132  0.2000 -0.2084
16796TIP3    H171803   1.838   5.411  14.193  0.0768 -1.4962 -1.5576
16796TIP3    H271804   1.833   5.415  14.041 -0.0801  2.0848 -1.5375
16797TIP3   OH271805   4.911   5.894  13.335 -0.1776 -0.4372 -0.0286
16797TIP3    H171806   4.816   5.887  13.347 -0.1449  0.5808  0.9704
16797TIP3    H271807   4.941   5.803  13.327 -1.0839 -0.8534  1.0432
16798TIP3   OH271808   0.938   2.482  12.030 -0.6117  0.5407  0.1275
16798TIP3    H171809   0.997   2.509  11.960  0.3240  0.2076  0.7660
16798TIP3    H271810   0.853   2.472  11.987 -0.2055  1.0043 -0.8160
16799TIP3   OH271811   2.619   3.688  13.648  0.7669 -0.5413  0.3275
16799TIP3    H171812   2.566   3.704  13.570 -0.2650 -1.7009  0.7611
16799TIP3    H271813   2.708   3.673  13.614  0.1354 -2.0852 -0.7320
16800TIP3   OH271814   5.322   3.524   4.702  0.6070  0.4936  0.2230
16800TIP3    H171815   5.275   3.608   4.707 -2.2886 -0.9382 -0.3526
16800TIP3    H271816   5.379   3.533   4.626  0.3962  1.9753  0.2050
16801TIP3   OH271817   6.311   5.328   5.088  0.0692  0.2392 -0.2654
16801TIP3    H171818   6.406   5.318   5.080  0.2756  1.6025  0.1476
16801TIP3    H271819   6.298   5.423   5.087 -1.3297  0.0565 -0.6968
16802TIP3   OH271820   3.445   4.718   2.069  0.4194 -0.0700 -0.4861
16802TIP3    H171821   3.509   4.685   2.005 -0.2497  1.0700 -1.7934
16802TIP3    H271822   3.364   4.726   2.019 -0.1890  0.6047  0.5882
16803TIP3   OH271823   6.014   0.261  13.236 -0.1885 -0.2489 -0.4662
16803TIP3    H171824   6.072   0.309  13.178 -0.6121 -1.1589 -1.6798
16803TIP3    H271825   6.072   0.220  13.300  0.1377  2.4420  1.1235
16804TIP3   OH271826   1.651   0.090  13.585  0.3667  0.0552  0.4721
16804TIP3    H171827   1.692   0.008  13.558 -0.8765 -0.3512 -0.2901
16804TIP3    H271828   1.590   0.065  13.654  0.3643  0.4339  0.6128
16805TIP3   OH271829   2.812   0.553  15.493 -0.0125 -0.3544  0.0972
16805TIP3    H171830   2.887   0.584  15.443  0.3553  0.5743  1.1864
16805TIP3    H271831   2.788   0.470  15.452  1.9648 -0.9639  0.1085
16806TIP3   OH271832   0.728   2.237   4.029  0.6075  0.7042  0.7052
16806TIP3    H171833   0.694   2.153   3.998 -0.1379  1.1010  0.4422
16806TIP3    H271834   0.780   2.270   3.957 -0.7582  1.4154  0.0153
16807TIP3   OH271835   5.823   1.294  13.188 -0.5165  0.4996 -0.1782
16807TIP3    H171836   5.821   1.263  13.279 -0.1072 -0.1053 -0.3694
16807TIP3    H271837   5.754   1.244  13.144  1.8249 -2.1862 -1.0964
16808TIP3   OH271838   0.929   6.520   0.048 -0.3231  0.1172  0.0255
16808TIP3    H171839   0.888   6.600   0.014 -0.9605  0.2414  1.0138
16808TIP3    H271840   0.973   6.481  -0.027 -3.3401 -0.7360 -1.4894
16809TIP3   OH271841   1.537   2.350   4.221  0.4660 -0.4108  0.1844
16809TIP3    H171842   1.467   2.356   4.155 -0.8368  1.0667  1.5928
16809TIP3    H271843   1.502   2.292   4.288  1.4648 -1.2791 -0.0153
16810TIP3   OH271844   3.850   5.443  14.562  0.3127  0.2987 -0.3329
16810TIP3    H171845   3.829   5.361  14.518 -0.3936  0.3773 -0.1528
16810TIP3    H271846   3.888   5.416  14.646  0.8106  0.1563 -0.6021
16811TIP3   OH271847   5.343   6.276  12.063 -0.0230 -0.8672  0.1340
16811TIP3    H171848   5.269   6.320  12.104 -0.3199  0.1754 -1.4666
16811TIP3    H271849   5.411   6.275  12.131 -0.3351  1.2117  0.5306
16812TIP3   OH271850   0.880   0.518   2.488 -0.4902 -0.3772 -0.3236
16812TIP3    H171851   0.929   0.436   2.477 -0.7762 -1.1048  2.7858
16812TIP3    H271852   0.790   0.494   2.467 -0.1813 -0.0331 -2.2519
16813TIP3   OH271853   3.746   3.919  15.840  0.4788  0.4297 -0.4825
16813TIP3    H171854   3.715   4.006  15.866  2.2204  0.6962  0.8720
16813TIP3    H271855   3.835   3.914  15.874  1.2072 -1.0833 -2.4356
16814TIP3   OH271856   4.744   3.420  11.956  0.2805  0.3063  0.3649
16814TIP3    H171857   4.807   3.356  11.925  0.2215  0.6296 -0.4461
16814TIP3    H271858   4.788   3.465  12.028  0.9918  0.5474 -0.2105
16815TIP3   OH271859   2.529   3.409  12.608 -0.1295 -0.0958 -0.0354
16815TIP3    H171860   2.537   3.501  12.581 -0.0500 -0.6026 -1.8178
16815TIP3    H271861   2.620   3.379  12.618 -0.1283 -0.2881 -0.5865
16816TIP3   OH271862   5.295   3.261  16.696 -0.3429  0.3744 -0.2057
16816TIP3    H171863   5.327   3.189  16.642  0.2186  0.1385  0.4351
16816TIP3    H271864   5.222   3.298  16.646  0.8206  0.8348 -1.6336
16817TIP3   OH271865   1.904   4.205   3.524  0.7743 -0.5829  0.1235
16817TIP3    H171866   1.859   4.274   3.574 -0.9721 -2.7627  1.7500
16817TIP3    H271867   1.949   4.153   3.590  2.7702 -0.5683 -1.1627
16818TIP3   OH271868   0.048   0.518   4.719  0.3442  0.0109 -0.1438
16818TIP3    H171869   0.042   0.578   4.794  0.8477  1.9115 -1.5510
16818TIP3    H271870   0.003   0.564   4.648  1.1579 -1.0788 -1.3963
16819TIP3   OH271871   6.495   0.658   0.839 -0.4365  0.1464 -0.3821
16819TIP3    H171872   6.536   0.705   0.767  0.0433  0.0767 -0.1557
16819TIP3    H271873   6.525   0.567   0.829 -1.1168 -0.0552 -0.6396
16820TIP3   OH271874   5.351   3.084   3.081  0.1002  0.3708 -0.1725
16820TIP3    H171875   5.328   3.150   3.147 -0.8220 -1.1116  1.0539
16820TIP3    H271876   5.411   3.025   3.126 -1.1685 -1.1175 -0.3732
16821TIP3   OH271877   4.003   3.544   3.735  0.0526 -0.3042  0.0026
16821TIP3    H171878   3.919   3.503   3.713 -0.0955 -0.2650  0.4743
16821TIP3    H271879   3.979   3.628   3.774  0.3451  0.1268 -0.7186
16822TIP3   OH271880   5.262   2.094  15.134  0.2706  0.4129  0.1300
16822TIP3    H171881   5.254   2.186  15.158  2.0553  0.7824 -0.5842
16822TIP3    H271882   5.210   2.048  15.201  0.2372  1.8371  1.1317
16823TIP3   OH271883   3.394   4.009   2.805  0.3144 -0.5692 -0.0296
16823TIP3    H171884   3.326   4.006   2.737 -1.2833  1.0553  1.3951
16823TIP3    H271885   3.472   4.041   2.760 -0.6779  0.3528 -1.1468
16824TIP3   OH271886   5.593   5.711   2.292  0.2202 -0.1544  0.2815
16824TIP3    H171887   5.628   5.637   2.342 -0.3472 -0.6635 -0.0596
16824TIP3    H271888   5.580   5.676   2.204  0.5120  0.5246 -0.0428
16825TIP3   OH271889   0.948   4.579   1.712 -0.3647  0.1061  0.5021
16825TIP3    H171890   0.881   4.616   1.770 -1.4159  1.1808 -1.2960
16825TIP3    H271891   0.939   4.484   1.723 -2.1299  0.2183  0.4016
16826TIP3   OH271892   3.390   3.645  16.770  0.5740  0.0492 -0.0701
16826TIP3    H171893   3.406   3.608  16.683 -0.2161 -3.4585  1.1069
16826TIP3    H271894   3.477   3.673  16.801  1.0594  0.1343 -1.4505
16827TIP3   OH271895   6.334   6.653   1.062 -0.5605  0.8225  0.5454
16827TIP3    H171896   6.303   6.682   1.148 -0.3019 -0.4509  1.0894
16827TIP3    H271897   6.426   6.633   1.075 -0.4898  0.7205 -0.0707
16828TIP3   OH271898   2.962   5.517   1.910 -0.2330  0.3470  0.3078
16828TIP3    H171899   3.020   5.476   1.974  0.4168 -0.1481 -0.5933
16828TIP3    H271900   2.969   5.463   1.832 -1.4206  0.6510 -0.0287
16829TIP3   OH271901   1.364   5.327  13.897  0.1903  0.1765  0.1538
16829TIP3    H171902   1.358   5.390  13.824 -0.8725  0.8675  0.7981
16829TIP3    H271903   1.448   5.346  13.938  0.6794 -0.0394 -0.7289
16830TIP3   OH271904   1.779   0.264  16.837 -0.2671  0.6617 -0.1478
16830TIP3    H171905   1.826   0.234  16.759 -1.5903 -0.2646 -0.6283
16830TIP3    H271906   1.744   0.349  16.812  0.6016  1.0780  0.0017
16831TIP3   OH271907   1.846   1.570  12.113 -0.7475  0.5399  0.0240
16831TIP3    H171908   1.840   1.475  12.103  2.0548 -0.2438  3.6344
16831TIP3    H271909   1.891   1.600  12.035  0.4335 -1.5036 -0.1287
16832TIP3   OH271910   5.034   1.446  11.829  0.3511  0.8390 -0.0918
16832TIP3    H171911   5.059   1.536  11.850 -0.6898  0.6138  2.5339
16832TIP3    H271912   5.007   1.409  11.913 -1.4645 -1.2190 -1.4867
16833TIP3   OH271913   0.119   3.696   0.491 -1.5141  0.5836 -0.4283
16833TIP3    H171914   0.036   3.732   0.458 -2.2934  1.0549  1.8342
16833TIP3    H271915   0.100   3.603   0.506 -1.3066  0.4669 -0.8956
16834TIP3   OH271916   4.038   5.834   1.873  0.3753  0.6093  0.4890
16834TIP3    H171917   4.118   5.782   1.880  2.2757  3.2374 -0.5576
16834TIP3    H271918   4.019   5.837   1.779  0.1562  1.6068  0.5578
16835TIP3   OH271919   4.268   2.035  12.551  0.2386 -0.3214 -0.0338
16835TIP3    H171920   4.290   1.980  12.475 -0.1184 -1.3469  0.5901
16835TIP3    H271921   4.350   2.044  12.599  0.4667  0.3335 -0.5388
16836TIP3   OH271922   5.524   3.168  16.058 -0.4435  0.1731  0.2334
16836TIP3    H171923   5.452   3.222  16.026 -0.3258  0.0730 -0.2061
16836TIP3    H271924   5.561   3.128  15.979  0.2561  0.4236  0.4258
16837TIP3   OH271925   0.673   1.318   3.896 -0.2308 -0.0525  0.2548
16837TIP3    H171926   0.663   1.362   3.811  1.5239 -0.0315  0.0089
16837TIP3    H271927   0.763   1.284   3.894 -0.8139 -1.7790  1.3244
16838TIP3   OH271928   0.623   0.193  11.440 -0.4410  0.3064  0.0324
16838TIP3    H171929   0.566   0.264  11.410 -2.7265 -1.5003 -0.1809
16838TIP3    H271930   0.612   0.192  11.535 -0.5101  0.1620  0.0235
16839TIP3   OH271931   2.219   0.106  10.546  0.3805 -0.2870  0.2230
16839TIP3    H171932   2.145   0.085  10.602  0.8827  0.4326  1.1904
16839TIP3    H271933   2.180   0.121  10.460 -0.4001 -1.4216  0.3590
16840TIP3   OH271934   4.472   4.037   5.578 -0.1322  0.1586  0.7794
16840TIP3    H171935   4.422   4.100   5.630  1.9322  2.1649  0.5072
16840TIP3    H271936   4.517   4.091   5.513 -1.4393 -2.0786 -2.2320
16841TIP3   OH271937   3.363   6.707   2.842  0.2211  0.0412  0.1115
16841TIP3    H171938   3.459   6.702   2.847  0.3374  1.3978 -0.3725
16841TIP3    H271939   3.346   6.782   2.785 -1.1394 -0.6739 -0.4650
16842TIP3   OH271940   3.183   5.556   1.588 -0.5561 -0.1714 -0.2743
16842TIP3    H171941   3.118   5.493   1.617 -0.2285 -1.0957 -1.4818
16842TIP3    H271942   3.210   5.526   1.501  0.1477  1.2167 -0.5793
16843TIP3   OH271943   3.467   4.472   4.916 -0.7768  0.1969  0.1313
16843TIP3    H171944   3.415   4.503   4.991 -1.3987 -1.5223  0.4509
16843TIP3    H271945   3.513   4.395   4.949 -0.0046  0.2034 -0.8952
16844TIP3   OH271946   5.706   4.901  11.970 -0.5885 -0.2835  0.3917
16844TIP3    H171947   5.700   4.927  12.062  1.9491  0.4795  0.4179
16844TIP3    H271948   5.644   4.828  11.962 -1.5062  0.1807  2.4701
16845TIP3   OH271949   1.366   4.525   2.962 -0.1202  0.3504 -0.2992
16845TIP3    H171950   1.455   4.501   2.936 -0.3332 -0.8669  0.0736
16845TIP3    H271951   1.348   4.605   2.912  1.3398  0.8836 -0.0349
16846TIP3   OH271952   1.023   5.539  15.678 -0.0047  0.2505  0.2197
16846TIP3    H171953   0.965   5.543  15.603 -0.0073  1.4035  0.2592
16846TIP3    H271954   0.989   5.468  15.732 -1.5980  1.1187  0.4014
16847TIP3   OH271955   6.203   1.342  14.025 -0.0421  0.2053  0.3347
16847TIP3    H171956   6.242   1.381  13.947 -0.0723  0.4560  0.4458
16847TIP3    H271957   6.252   1.379  14.098 -0.3791  0.3958  0.4652
16848TIP3   OH271958   2.083   5.378   1.744  0.6024  0.0228  0.5134
16848TIP3    H171959   2.122   5.319   1.809 -0.9066 -1.2883  0.2849
16848TIP3    H271960   2.069   5.460   1.792  0.0602 -0.7243  1.6852
16849TIP3   OH271961   5.219   1.262  16.786 -0.0785  0.0539  0.6684
16849TIP3    H171962   5.176   1.348  16.784 -0.8815 -0.3124  1.4284
16849TIP3    H271963   5.147   1.200  16.796  0.5690 -0.6422  1.0868
16850TIP3   OH271964   5.449   5.675   4.206 -0.3396 -0.0476  0.6273
16850TIP3    H171965   5.428   5.766   4.183 -1.4267 -0.2880  0.6051
16850TIP3    H271966   5.539   5.663   4.175 -1.0891  0.1858 -1.9392
16851TIP3   OH271967   4.504   2.057   6.145  0.3344 -0.0974 -0.5237
16851TIP3    H171968   4.479   2.131   6.089  0.1882  0.8581  0.7533
16851TIP3    H271969   4.597   2.043   6.126  0.9338  1.8185  0.6727
16852TIP3   OH271970   2.907   0.676  11.684 -0.0952 -0.1969  0.2230
16852TIP3    H171971   2.857   0.728  11.622  0.3104 -0.7037 -0.5547
16852TIP3    H271972   2.996   0.676  11.648  0.0569 -0.8287  0.5874
16853TIP3   OH271973   4.248   5.488  16.122  0.2616  0.5002 -0.0987
16853TIP3    H171974   4.181   5.525  16.064  1.0727 -0.2976 -1.6265
16853TIP3    H271975   4.246   5.394  16.104  0.8639  0.2917  0.8358
16854TIP3   OH271976   1.713   2.523  16.853  0.5573  0.4747  0.2752
16854TIP3    H171977   1.672   2.473  16.782  0.7585  0.5436  0.1057
16854TIP3    H271978   1.642   2.574  16.891  0.3765  0.1572  0.3647
16855TIP3   OH271979   2.103   0.539  12.966 -0.1800 -0.2885 -0.0963
16855TIP3    H171980   2.166   0.493  12.911  0.2868 -0.6253  0.7199
16855TIP3    H271981   2.071   0.611  12.910  0.1217 -0.7533 -0.8778
16856TIP3   OH271982   6.523   2.659   2.392  0.3892 -0.2264  0.4883
16856TIP3    H171983   6.526   2.641   2.486  2.0300 -0.0142  0.4980
16856TIP3    H271984   6.614   2.674   2.367  0.1157 -1.2845 -1.3403
16857TIP3   OH271985   6.566   4.886   4.676 -0.0358 -0.5724  0.1919
16857TIP3    H171986   6.604   4.822   4.736  0.6088 -1.7497 -1.4044
16857TIP3    H271987   6.613   4.967   4.694  0.0614 -0.8681  1.3372
16858TIP3   OH271988   6.173   2.879  10.788  0.1164 -0.9957  0.3518
16858TIP3    H171989   6.233   2.948  10.760 -0.8819  0.3999  1.5065
16858TIP3    H271990   6.226   2.823  10.847  0.1830  0.5525  1.8378
16859TIP3   OH271991   0.445   1.717   5.330 -0.0488  0.0468 -0.3145
16859TIP3    H171992   0.382   1.783   5.303  0.9546  1.2305  0.0952
16859TIP3    H271993   0.467   1.669   5.250 -1.1010 -0.0673 -0.5400
16860TIP3   OH271994   0.688   1.490  16.979  0.6203 -0.0109  0.0205
16860TIP3    H171995   0.600   1.527  16.974  0.6178  0.0622  0.5759
16860TIP3    H271996   0.743   1.556  16.936  0.4771  0.1965  0.1495
16861TIP3   OH271997   0.714   0.396   3.770  0.2369 -0.3709  0.2349
16861TIP3    H171998   0.800   0.365   3.800 -0.5478 -0.4097  2.6524
16861TIP3    H271999   0.691   0.466   3.831 -0.0280  2.0252 -2.4129
16862TIP3   OH272000   3.314   0.534   5.246  0.7434 -0.1909 -0.4978
16862TIP3    H172001   3.290   0.584   5.168  1.1266  0.5928 -0.1192
16862TIP3    H272002   3.366   0.594   5.298  0.9774 -0.9002  0.0996
16863TIP3   OH272003   1.600   0.713  14.600 -0.0320 -0.1631  0.2827
16863TIP3    H172004   1.629   0.689  14.688 -0.0888 -0.0331  0.3363
16863TIP3    H272005   1.679   0.743  14.556  0.6731 -3.0807 -0.7012
16864TIP3   OH272006   1.440   3.383  13.238  0.2826  0.1942  0.3179
16864TIP3    H172007   1.470   3.302  13.278  0.0523  0.6353  1.4225
16864TIP3    H272008   1.388   3.355  13.162  0.6577 -0.6657  0.3751
16865TIP3   OH272009   3.872   5.387   2.802 -0.7708 -0.0382 -0.3588
16865TIP3    H172010   3.875   5.471   2.850  0.2527 -0.4553  0.3533
16865TIP3    H272011   3.780   5.375   2.780 -1.0593  0.8547  0.2980
16866TIP3   OH272012   3.548   6.238  14.137  0.1362  0.2618 -1.1568
16866TIP3    H172013   3.465   6.249  14.182  0.4308 -3.1699  0.5720
16866TIP3    H272014   3.612   6.283  14.192 -0.1892  0.4260 -0.9139
16867TIP3   OH272015   0.767   0.015   4.899 -0.0884  0.1411  0.2367
16867TIP3    H172016   0.702  -0.030   4.845  0.2970  0.0572 -0.1625
16867TIP3    H272017   0.755   0.108   4.879 -1.6423  0.3611  1.8914
16868TIP3   OH272018   1.114   0.248   3.184  0.0020 -0.1867  0.4093
16868TIP3    H172019   1.191   0.257   3.128 -1.4924 -1.1954 -1.9639
16868TIP3    H272020   1.089   0.156   3.174 -1.6108  0.1682  0.9677
16869TIP3   OH272021   3.705   4.100   0.918 -0.0784 -0.3220  0.4726
16869TIP3    H172022   3.665   4.078   1.002  0.2591  0.0721  0.7405
16869TIP3    H272023   3.741   4.017   0.886  0.7553 -0.2694  1.2452
16870TIP3   OH272024   0.464   0.694   5.114 -0.3411 -0.2747  0.0817
16870TIP3    H172025   0.411   0.616   5.130 -0.4973 -0.3166 -0.5960
16870TIP3    H272026   0.494   0.721   5.201 -2.1581  0.2452  0.5953
16871TIP3   OH272027   0.389   1.375   0.967 -0.0473  0.3069 -0.4205
16871TIP3    H172028   0.343   1.377   1.051 -0.6465  1.5432 -0.7588
16871TIP3    H272029   0.414   1.283   0.956 -0.9708 -0.0878  0.5661
16872TIP3   OH272030   0.899   5.975  11.186  0.0225 -0.4900 -0.0373
16872TIP3    H172031   0.960   5.916  11.142 -1.8511 -1.3599 -1.6362
16872TIP3    H272032   0.912   6.059  11.142  0.9705 -0.3176  0.5503
16873TIP3   OH272033   3.677   3.897  13.857 -0.2640 -0.2200 -0.1263
16873TIP3    H172034   3.682   3.819  13.802 -0.9712 -0.3265 -0.0571
16873TIP3    H272035   3.585   3.923  13.853 -0.7786 -1.3126  2.4303
16874TIP3   OH272036   3.777   5.452   5.668  0.2138 -0.0282  0.9654
16874TIP3    H172037   3.815   5.406   5.743  2.4001  0.3704  0.1768
16874TIP3    H272038   3.761   5.541   5.700 -0.5365 -0.3301  1.4439
16875TIP3   OH272039   4.741   0.399  11.638 -0.1274 -0.1494  0.2923
16875TIP3    H172040   4.742   0.391  11.734  1.3428 -1.0937  0.2311
16875TIP3    H272041   4.760   0.491  11.621 -0.7310  0.1018  0.8945
16876TIP3   OH272042   4.465   5.519   1.219 -0.3093  0.0503  0.4723
16876TIP3    H172043   4.454   5.597   1.165  1.0096 -1.3097 -1.9414
16876TIP3    H272044   4.377   5.498   1.249 -1.4143  0.0387 -2.4911
16877TIP3   OH272045   3.426   3.591  16.471 -0.6463 -0.6481 -0.1436
16877TIP3    H172046   3.425   3.615  16.378  0.6787  2.4587  0.5348
16877TIP3    H272047   3.340   3.551  16.486 -1.2643 -0.3765 -2.4726
16878TIP3   OH272048   5.532   5.059   4.515  0.4902 -0.0633  0.1840
16878TIP3    H172049   5.519   4.964   4.524  0.6006  0.0235  1.3756
16878TIP3    H272050   5.610   5.077   4.567 -0.1843  0.8472  0.9058
16879TIP3   OH272051   1.902   5.509   4.180  0.3965  0.5428 -0.0007
16879TIP3    H172052   1.863   5.535   4.263  0.9159  1.3442 -0.0005
16879TIP3    H272053   1.996   5.526   4.191  0.3961  1.2468 -0.9519
16880TIP3   OH272054   1.033   1.518   4.481  0.1428  0.5139 -0.4757
16880TIP3    H172055   0.968   1.458   4.518  1.6959 -0.2189  1.2085
16880TIP3    H272056   0.982   1.595   4.455 -1.0945  1.4861  3.9300
16881TIP3   OH272057   0.608   0.209  13.447  0.0846 -0.0052  0.0163
16881TIP3    H172058   0.627   0.142  13.381 -0.4676  0.4481 -0.6089
16881TIP3    H272059   0.523   0.183  13.484  0.1097  0.0723  0.1303
16882TIP3   OH272060   5.662   1.791  14.562  0.0798  0.4254 -0.3549
16882TIP3    H172061   5.743   1.747  14.586 -1.4972 -2.1649  0.7740
16882TIP3    H272062   5.628   1.825  14.645 -0.7150  0.0880 -0.5267
16883TIP3   OH272063   0.140   3.181   1.064  1.0190  0.3123  0.1837
16883TIP3    H172064   0.046   3.174   1.050  1.3193  1.5202 -3.4666
16883TIP3    H272065   0.155   3.274   1.083  1.6158  0.7812 -2.1786
16884TIP3   OH272066   4.177   1.837  11.518  0.1886 -0.0657 -0.0277
16884TIP3    H172067   4.142   1.838  11.429 -0.2795 -2.5577  0.0576
16884TIP3    H272068   4.111   1.789  11.569  1.1408  0.0307  1.3416
16885TIP3   OH272069   1.851   5.305   4.932 -0.3589 -0.7228 -0.4675
16885TIP3    H172070   1.896   5.250   4.996 -3.1197 -2.2011  0.3583
16885TIP3    H272071   1.802   5.244   4.878 -1.0440  0.7549 -1.5954
16886TIP3   OH272072   4.266   6.242   2.951  0.5389  0.0544 -0.1434
16886TIP3    H172073   4.299   6.287   2.873 -1.0651  1.3991 -0.1011
16886TIP3    H272074   4.198   6.183   2.917 -0.4417  0.9324  0.2460
16887TIP3   OH272075   1.135   4.317   2.632  0.0116  0.2163 -0.0635
16887TIP3    H172076   1.051   4.358   2.656 -0.4766 -1.0730  0.4992
16887TIP3    H272077   1.180   4.305   2.715  0.8164  0.9775 -0.3735
16888TIP3   OH272078   3.246   3.389   3.810  0.0666  0.2510  0.7124
16888TIP3    H172079   3.287   3.474   3.793  0.7179  0.4219  2.8076
16888TIP3    H272080   3.192   3.373   3.733  0.0932  2.4686  0.1512
16889TIP3   OH272081   4.825   6.467   1.861 -0.0745  0.0480  0.4373
16889TIP3    H172082   4.843   6.505   1.775 -3.0018  1.3437  0.2691
16889TIP3    H272083   4.730   6.468   1.868  0.0355 -0.6006  3.4712
16890TIP3   OH272084   5.012   2.311   5.481 -0.1953 -0.1346 -0.2444
16890TIP3    H172085   4.965   2.231   5.507 -0.9494  0.2419 -0.4247
16890TIP3    H272086   4.996   2.372   5.554  2.1787 -0.8269  0.9424
16891TIP3   OH272087   4.463   3.165   0.084  0.2097  0.2110  0.1333
16891TIP3    H172088   4.422   3.080   0.068  1.5587 -0.3528 -0.5100
16891TIP3    H272089   4.557   3.146   0.089  0.4365  1.4624  1.4354
16892TIP3   OH272090   1.777   5.870   6.486 -0.1832  0.2903 -0.5430
16892TIP3    H172091   1.774   5.966   6.483  0.4141  0.3079 -2.2947
16892TIP3    H272092   1.690   5.843   6.458 -0.1570  0.3322 -0.6668
16893TIP3   OH272093   6.723   1.120  16.096  0.2511 -0.2110  0.0151
16893TIP3    H172094   6.689   1.209  16.105 -0.8496 -0.1782 -3.1639
16893TIP3    H272095   6.649   1.064  16.117  0.7633 -0.4138  1.3881
16894TIP3   OH272096   1.376   3.317  15.300  0.6895  0.2412  0.0850
16894TIP3    H172097   1.443   3.366  15.252 -2.0122  1.2770 -3.0903
16894TIP3    H272098   1.323   3.385  15.342 -0.9239 -0.0936 -1.2783
16895TIP3   OH272099   3.968   1.909   5.182  0.1982 -0.1094 -0.1741
16895TIP3    H172100   3.889   1.948   5.144  0.6092  0.6983 -0.2117
16895TIP3    H272101   4.012   1.982   5.226  0.2517 -0.8240  0.9893
16896TIP3   OH272102   1.154   3.860  14.022 -0.3293 -0.6582  0.3607
16896TIP3    H172103   1.126   3.771  14.001  3.0354 -1.2785 -2.4066
16896TIP3    H272104   1.116   3.915  13.954 -0.4421 -0.3567  0.6629
16897TIP3   OH272105   2.542   1.088   4.724  0.7104 -0.4415 -0.3966
16897TIP3    H172106   2.475   1.114   4.660 -1.6539 -1.0273  1.6932
16897TIP3    H272107   2.593   1.022   4.678 -1.9272 -2.0435 -1.2565
16898TIP3   OH272108   3.582   4.598  13.091 -0.7553 -0.7857  0.1198
16898TIP3    H172109   3.581   4.640  13.005 -0.4740 -0.7485  0.1342
16898TIP3    H272110   3.623   4.663  13.148 -0.7337 -0.9020  0.2363
16899TIP3   OH272111   2.469   1.933   0.092 -0.1153 -0.2091 -0.3804
16899TIP3    H172112   2.414   2.009   0.071 -0.4566 -0.1311  0.7133
16899TIP3    H272113   2.557   1.969   0.099 -0.1230 -0.0947 -0.8518
16900TIP3   OH272114   0.058   5.113  14.351 -0.3011  0.0737 -0.2311
16900TIP3    H172115  -0.015   5.055  14.371  0.8121 -0.9130  1.1348
16900TIP3    H272116   0.115   5.061  14.294 -1.5762  1.5414 -3.0350
16901TIP3   OH272117   5.057   6.454   1.974  0.1663  1.0386  0.6585
16901TIP3    H172118   4.964   6.452   1.955 -0.2030 -2.4278  2.0350
16901TIP3    H272119   5.068   6.521   2.041 -1.4399  0.9986  0.9753
16902TIP3   OH272120   2.617   4.625   2.963 -0.3599  0.5619 -0.6413
16902TIP3    H172121   2.653   4.711   2.940  0.8625  0.0135 -0.8811
16902TIP3    H272122   2.532   4.644   3.003  1.0237  2.1150  1.8246
16903TIP3   OH272123   4.865   0.158  12.135  0.3078 -0.0123 -0.1190
16903TIP3    H172124   4.833   0.245  12.159 -0.4210 -0.6463  1.3264
16903TIP3    H272125   4.806   0.097  12.180  1.6814 -1.2539  0.0941
16904TIP3   OH272126   4.391   6.082  12.670  0.0848 -0.4312 -0.0919
16904TIP3    H172127   4.362   6.072  12.761 -1.3070 -0.2523 -0.4984
16904TIP3    H272128   4.371   6.173  12.648 -2.6806 -1.2828 -1.5687
16905TIP3   OH272129   0.713   5.084   0.778  0.2813  0.1053 -0.5058
16905TIP3    H172130   0.743   5.072   0.688 -0.5717  0.0321 -0.7886
16905TIP3    H272131   0.690   4.996   0.808  0.0482  0.1975 -0.4065
16906TIP3   OH272132   5.294   4.915   3.547 -0.0483 -0.3154 -0.5380
16906TIP3    H172133   5.212   4.929   3.500 -1.1159  1.4865  1.6919
16906TIP3    H272134   5.318   5.001   3.581  1.6325 -1.1995  0.7019
16907TIP3   OH272135   2.190   4.955   2.377 -0.0496 -0.2268 -0.0569
16907TIP3    H172136   2.197   4.869   2.336 -0.3037  0.0359 -0.6700
16907TIP3    H272137   2.251   5.010   2.329  0.4050 -0.1528  0.5918
16908TIP3   OH272138   0.662   0.858  12.150  0.4262  0.5201  0.2785
16908TIP3    H172139   0.633   0.948  12.157 -1.0871  0.0918 -0.1817
16908TIP3    H272140   0.653   0.837  12.057  0.6564 -0.1349  0.3953
16909TIP3   OH272141   0.571   0.183  13.972 -0.0092 -0.1204 -0.1667
16909TIP3    H172142   0.542   0.132  13.897  1.0471  0.5825 -1.0717
16909TIP3    H272143   0.644   0.133  14.008  0.0630  0.0055 -0.1398
16910TIP3   OH272144   5.930   2.288  15.255 -0.2790 -0.0326 -0.1439
16910TIP3    H172145   5.930   2.236  15.335 -1.2536 -1.9136 -1.2896
16910TIP3    H272146   5.840   2.318  15.246 -0.0090  0.7967 -0.1712
16911TIP3   OH272147   4.298   2.457   1.931  0.4518 -0.3561  0.0604
16911TIP3    H172148   4.356   2.533   1.933 -0.5959  0.4546  0.5245
16911TIP3    H272149   4.233   2.475   1.999 -0.5892 -1.0482 -0.7241
16912TIP3   OH272150   6.733   2.269  11.128 -0.0863  0.4994 -0.2793
16912TIP3    H172151   6.649   2.266  11.083 -1.0790  1.3522  1.4330
16912TIP3    H272152   6.765   2.179  11.124 -1.5328 -0.0479 -0.1246
16913TIP3   OH272153   5.545   4.451  14.455 -0.4277 -0.2958  0.1129
16913TIP3    H172154   5.549   4.546  14.465  2.8915 -0.2963 -0.1553
16913TIP3    H272155   5.525   4.438  14.362  0.0134  0.1911 -0.0593
16914TIP3   OH272156   3.981   0.779   0.927  0.0971 -0.1387 -0.6255
16914TIP3    H172157   3.909   0.830   0.963  0.7106  0.8977 -0.8378
16914TIP3    H272158   3.942   0.729   0.856 -0.7416 -0.8291  0.2980
16915TIP3   OH272159   1.025   1.669   5.167 -0.4718 -0.7535 -0.0962
16915TIP3    H172160   1.008   1.751   5.214  2.1289  0.6944 -1.4421
16915TIP3    H272161   1.080   1.618   5.227 -1.4607 -1.2345  0.4335
16916TIP3   OH272162   5.504   0.958  16.959 -0.2529 -0.2667 -0.5080
16916TIP3    H172163   5.535   1.036  16.913  2.1002 -0.1558  1.0580
16916TIP3    H272164   5.580   0.929  17.010 -2.4117 -0.7336  2.7750
16917TIP3   OH272165   1.691   4.522   1.673  0.9529 -0.4255  0.3408
16917TIP3    H172166   1.703   4.571   1.592  2.1864 -1.4046 -0.1015
16917TIP3    H272167   1.678   4.432   1.645 -0.8172 -0.4608  1.1588
16918TIP3   OH272168   6.249   4.873   1.401  0.0050 -0.3031  0.4920
16918TIP3    H172169   6.249   4.951   1.345 -1.1125  0.2123  1.1815
16918TIP3    H272170   6.166   4.878   1.449  1.1524 -0.4389  2.6100
16919TIP3   OH272171   3.317   4.498   0.798  0.3074  0.7257  0.5165
16919TIP3    H172172   3.378   4.538   0.860 -0.2731  0.0132  1.5654
16919TIP3    H272173   3.308   4.407   0.827  1.7333 -0.3120 -1.9071
16920TIP3   OH272174   6.381   4.253  14.970 -0.4816 -0.3128  0.0819
16920TIP3    H172175   6.347   4.342  14.979  0.1851  0.1750 -1.6876
16920TIP3    H272176   6.471   4.259  15.002 -0.1476 -0.1019 -0.8508
16921TIP3   OH272177   2.862   1.833   1.253 -0.5250 -0.1786  0.2770
16921TIP3    H172178   2.862   1.841   1.349  2.1431 -1.5207  0.4921
16921TIP3    H272179   2.843   1.741   1.236 -1.1551  0.0871 -0.5217
16922TIP3   OH272180   0.394   1.785  14.528 -0.0929  0.1926  0.5474
16922TIP3    H172181   0.314   1.752  14.569 -0.6397  0.0516 -0.5953
16922TIP3    H272182   0.465   1.745  14.577 -0.7167  0.4724  1.7021
16923TIP3   OH272183   0.191   3.903   3.663 -0.7491  0.4346 -0.1161
16923TIP3    H172184   0.229   3.973   3.716  0.0092  0.3444 -0.5178
16923TIP3    H272185   0.177   3.830   3.724 -1.6410  0.9620  0.3236
16924TIP3   OH272186   2.307   0.614  16.995 -0.0260  0.1527 -0.0684
16924TIP3    H172187   2.214   0.601  17.008 -0.2211  0.4902 -0.9877
16924TIP3    H272188   2.313   0.692  16.939  0.6809 -1.0762 -1.8183
16925TIP3   OH272189   5.816   4.303  13.908 -0.1422  0.0718 -0.3822
16925TIP3    H172190   5.820   4.225  13.963 -1.1735  1.0835  1.2445
16925TIP3    H272191   5.889   4.295  13.848 -0.0175 -1.9546 -0.0107
16926TIP3   OH272192   1.901   1.842  16.942 -0.2471 -0.4636  0.3529
16926TIP3    H172193   1.937   1.884  16.864  0.7438 -1.9963 -0.0686
16926TIP3    H272194   1.916   1.748  16.927 -1.4837 -0.9047  1.6743
16927TIP3   OH272195   6.722   0.678  13.867 -0.1789  0.4496 -0.2085
16927TIP3    H172196   6.807   0.643  13.842 -1.3839 -2.6349 -0.3332
16927TIP3    H272197   6.714   0.759  13.817  1.7981 -0.2528 -1.7984
16928TIP3   OH272198   0.225   1.919   4.384 -0.5094  0.4367 -0.5757
16928TIP3    H172199   0.155   1.983   4.382  0.4498  1.6953  1.9730
16928TIP3    H272200   0.216   1.875   4.468  1.0225 -0.2238 -0.7064
16929TIP3   OH272201   0.022   0.130   3.241 -0.2218  0.0926 -0.4861
16929TIP3    H172202  -0.041   0.090   3.181  0.8930 -0.2944 -1.4372
16929TIP3    H272203   0.026   0.222   3.214 -1.1839  0.3751  0.2969
16930TIP3   OH272204   6.611   3.581  15.275 -0.0698 -0.0499  0.0960
16930TIP3    H172205   6.536   3.558  15.220 -0.2079  0.6825 -0.0269
16930TIP3    H272206   6.580   3.564  15.364 -0.1686 -0.3379  0.0089
16931TIP3   OH272207   4.938   5.011  13.340  0.6727  0.0119 -0.3267
16931TIP3    H172208   5.018   5.063  13.334  0.5606  0.5550  1.9075
16931TIP3    H272209   4.957   4.945  13.406 -0.8281  0.4301  0.5874
16932TIP3   OH272210   1.909   2.280  17.014 -0.0461  0.0026  0.0979
16932TIP3    H172211   1.990   2.232  17.034  0.6264  1.4731  1.1282
16932TIP3    H272212   1.840   2.230  17.057  0.2056 -1.5512 -1.2113
16933TIP3   OH272213   4.233   2.166  11.511  1.2638  0.5980 -0.3047
16933TIP3    H172214   4.310   2.140  11.461  1.8669 -0.7197  1.2001
16933TIP3    H272215   4.213   2.090  11.565 -1.0613  0.9580 -0.5741
16934TIP3   OH272216   4.045   0.633  10.848  0.6563 -0.0611 -0.1660
16934TIP3    H172217   4.079   0.697  10.910  1.2380 -0.4413 -0.0808
16934TIP3    H272218   4.100   0.644  10.770  0.2217  0.1083 -0.4482
16935TIP3   OH272219   1.568   3.653  12.362 -0.0293 -0.5671 -0.0860
16935TIP3    H172220   1.509   3.664  12.288  0.1971 -3.5240 -0.8141
16935TIP3    H272221   1.653   3.685  12.331 -0.5207  0.8036 -0.0870
16936TIP3   OH272222   4.509   0.149  13.402 -0.3310 -0.2066  0.3575
16936TIP3    H172223   4.538   0.058  13.412  0.6732  0.0032 -0.4807
16936TIP3    H272224   4.590   0.200  13.399 -0.8812  0.9351  2.4181
16937TIP3   OH272225   4.972   0.397   2.097 -0.8246 -0.4927  0.0970
16937TIP3    H172226   4.975   0.421   2.004  0.5996 -0.4953  0.1256
16937TIP3    H272227   4.927   0.313   2.099 -0.5518 -0.6573 -0.6190
16938TIP3   OH272228   2.424   3.786   1.611  0.1036 -0.1472  0.4736
16938TIP3    H172229   2.439   3.816   1.700  1.3714  0.7241 -0.0135
16938TIP3    H272230   2.331   3.762   1.609 -0.2283  0.9588  1.6947
16939TIP3   OH272231   3.562   0.826  11.156  0.0092  1.0154 -0.1324
16939TIP3    H172232   3.613   0.767  11.100 -0.7874  0.6460 -0.4891
16939TIP3    H272233   3.578   0.913  11.120  1.9068  1.1643  0.9379
16940TIP3   OH272234   3.430   4.785  13.604 -0.5374 -0.3927 -0.1207
16940TIP3    H172235   3.461   4.699  13.575 -0.7157  0.0012 -1.5190
16940TIP3    H272236   3.394   4.826  13.526 -1.5133  0.5134  0.7658
16941TIP3   OH272237   5.500   4.063   4.723  0.0297 -0.0991  0.4784
16941TIP3    H172238   5.516   4.093   4.633  2.5708  0.1103  0.9397
16941TIP3    H272239   5.554   3.985   4.732 -0.4217 -0.2849  1.7603
16942TIP3   OH272240   3.389   5.788  17.059  0.3944  0.3394 -0.5841
16942TIP3    H172241   3.454   5.856  17.043 -0.2589  0.8761 -1.0152
16942TIP3    H272242   3.336   5.787  16.979  0.2780 -0.5471 -0.5088
16943TIP3   OH272243   5.953   4.036   0.454 -0.6513  0.0497 -0.1985
16943TIP3    H172244   6.013   4.043   0.528 -0.5558  2.1469 -0.4112
16943TIP3    H272245   6.003   4.070   0.380 -1.8009  1.0658 -0.5384
16944TIP3   OH272246   2.859   4.858   5.522 -0.3435 -0.3347 -0.0831
16944TIP3    H172247   2.825   4.833   5.608  0.4849 -1.7514 -0.1307
16944TIP3    H272248   2.872   4.952   5.528 -2.1496 -0.0753  0.6678
16945TIP3   OH272249   2.244   2.196  16.085 -0.3480  0.2263  0.3095
16945TIP3    H172250   2.238   2.171  16.177 -1.4532 -0.4470  0.0617
16945TIP3    H272251   2.317   2.144  16.050 -0.0129  0.3902  0.7555
16946TIP3   OH272252   0.966   3.615  13.145  0.4591 -0.4259 -0.2548
16946TIP3    H172253   1.061   3.603  13.149  0.5300  0.3053  1.7649
16946TIP3    H272254   0.930   3.533  13.179  0.2445 -1.4315 -2.7414
16947TIP3   OH272255   6.579   1.952   4.630  0.3984 -0.5024 -0.8002
16947TIP3    H172256   6.555   1.859   4.630  3.3038 -1.3416  0.7227
16947TIP3    H272257   6.619   1.967   4.715 -1.3017  2.6037 -0.3910
16948TIP3   OH272258   0.567   6.224   4.701  1.0407  0.2402 -0.0765
16948TIP3    H172259   0.503   6.162   4.668  1.8582 -1.2672  1.0438
16948TIP3    H272260   0.650   6.176   4.699  1.4688  0.7605  2.1158
16949TIP3   OH272261   0.818   6.620  15.024 -0.3057 -0.2164 -0.1331
16949TIP3    H172262   0.864   6.704  15.017 -0.0147 -0.2137  1.4129
16949TIP3    H272263   0.875   6.558  14.979  0.3258  0.1230  0.1764
16950TIP3   OH272264   1.918   2.319  15.218  0.1143 -0.1032  0.4028
16950TIP3    H172265   1.847   2.382  15.209 -1.7226 -2.2155 -0.7669
16950TIP3    H272266   1.912   2.265  15.139  2.1062 -1.2697  0.9842
16951TIP3   OH272267   3.203   2.952   1.145  0.1370  0.1863  0.0093
16951TIP3    H172268   3.220   2.984   1.234 -0.7074 -0.9665  0.6103
16951TIP3    H272269   3.167   3.028   1.099 -2.9063 -0.0642  1.7216
16952TIP3   OH272270   0.727   5.915  13.964 -0.3422 -0.0526 -0.4381
16952TIP3    H172271   0.694   5.888  13.879 -1.2911 -1.0552  0.2250
16952TIP3    H272272   0.649   5.926  14.018  0.2583  0.4003  0.3595
16953TIP3   OH272273   0.766   4.478  14.714  0.1578 -0.0995 -0.4297
16953TIP3    H172274   0.672   4.491  14.729  0.3354  0.5815  0.1348
16953TIP3    H272275   0.772   4.390  14.676 -0.6174 -0.5473  0.4419
16954TIP3   OH272276   5.505   0.730   5.869 -0.2681  0.2603  0.0142
16954TIP3    H172277   5.485   0.664   5.935  0.5692 -0.6823 -0.6499
16954TIP3    H272278   5.468   0.811   5.904  1.8092  0.2265  2.5431
16955TIP3   OH272279   3.453   5.899   4.551  0.5722  0.2353 -0.0711
16955TIP3    H172280   3.405   5.973   4.587  0.3927 -0.5885  1.4898
16955TIP3    H272281   3.386   5.843   4.513  0.5657  0.3045 -0.1594
16956TIP3   OH272282   1.293   3.928   2.086 -0.1238 -0.6842 -0.4632
16956TIP3    H172283   1.283   3.849   2.032 -2.1466 -1.1098  0.4151
16956TIP3    H272284   1.209   3.935   2.132  0.4835  1.2925  0.4229
16957TIP3   OH272285   5.358   6.232  17.261 -0.9784 -0.1541  0.9018
16957TIP3    H172286   5.270   6.243  17.225 -0.4602  0.9410 -0.1001
16957TIP3    H272287   5.343   6.202  17.351 -2.3727  0.1588  0.8005
16958TIP3   OH272288   3.439   1.416  16.244 -0.2801 -0.5783  0.4400
16958TIP3    H172289   3.507   1.437  16.308 -0.6317  1.4129  0.2389
16958TIP3    H272290   3.468   1.335  16.203  2.0356  0.2474  0.3008
16959TIP3   OH272291   2.095   3.280  15.337  0.0865 -0.0846  0.2696
16959TIP3    H172292   2.000   3.276  15.327  0.0805  0.7836 -0.1219
16959TIP3    H272293   2.129   3.280  15.248  0.6071 -2.7004  0.3810
16960TIP3   OH272294   0.116   0.761  13.369 -0.0558  0.1323 -0.0649
16960TIP3    H172295   0.077   0.689  13.319 -0.1764  1.2173 -1.6271
16960TIP3    H272296   0.049   0.788  13.431 -0.9915  0.5099 -1.1965
16961TIP3   OH272297   1.511   4.607  14.257 -0.5509  0.6265  0.0489
16961TIP3    H172298   1.594   4.643  14.285 -0.9794  1.8125 -0.1364
16961TIP3    H272299   1.512   4.616  14.161  0.0299 -1.4440 -0.1858
16962TIP3   OH272300   4.175   1.524  11.627 -0.4257 -0.0396 -0.1043
16962TIP3    H172301   4.164   1.548  11.535 -0.2671  1.4905  0.2565
16962TIP3    H272302   4.151   1.431  11.630  0.4057 -0.3683 -1.8434
16963TIP3   OH272303   5.287   0.733   3.550  0.3180  0.8879 -0.1652
16963TIP3    H172304   5.349   0.781   3.496  2.1919  0.4872  1.5366
16963TIP3    H272305   5.315   0.749   3.640 -2.0482  0.6583  0.6995
16964TIP3   OH272306   2.292   3.799  13.717 -0.0036 -0.3569  0.2024
16964TIP3    H172307   2.325   3.728  13.772  0.5694 -0.5071 -0.3210
16964TIP3    H272308   2.296   3.764  13.628  0.2092  0.2989 -0.0506
16965TIP3   OH272309   5.687   5.272   3.051 -0.3512  0.6343 -0.2496
16965TIP3    H172310   5.636   5.352   3.042  1.2558  2.0364  1.9369
16965TIP3    H272311   5.761   5.297   3.106  0.6338 -2.1953 -0.1148
16966TIP3   OH272312   0.201   6.493   4.351  0.0834 -0.0322 -0.1680
16966TIP3    H172313   0.225   6.406   4.318  0.3848 -0.3971  1.0024
16966TIP3    H272314   0.224   6.492   4.443  1.2916  1.7412 -0.3943
16967TIP3   OH272315   0.521   4.500  14.280  0.1189  0.3608 -0.3755
16967TIP3    H172316   0.602   4.535  14.318  1.0733 -1.1896 -0.8609
16967TIP3    H272317   0.464   4.483  14.356  0.4258  1.0443  0.0107
16968TIP3   OH272318   5.650   4.194   1.827 -0.1440  0.4789 -0.3283
16968TIP3    H172319   5.584   4.156   1.885 -0.1108  1.1861  0.1870
16968TIP3    H272320   5.629   4.159   1.740 -0.3721 -0.3609  0.0614
16969TIP3   OH272321   3.919   2.022   5.797 -0.6361 -0.0175  0.1082
16969TIP3    H172322   3.912   2.112   5.764 -0.3408  0.2819  0.8564
16969TIP3    H272323   3.934   2.032   5.891  0.2172 -0.8313  0.0658
16970TIP3   OH272324   5.173   4.294  14.906  1.0319 -0.6333  0.1785
16970TIP3    H172325   5.095   4.333  14.866  1.5838 -0.2594 -0.5627
16970TIP3    H272326   5.140   4.216  14.951 -0.1026  0.6493  1.6927
16971TIP3   OH272327   5.330   4.823  11.539 -0.1403 -0.2168  0.4954
16971TIP3    H172328   5.295   4.792  11.456 -0.8469  1.8517 -0.0318
16971TIP3    H272329   5.408   4.874  11.515 -0.4530  0.5481  1.0621
16972TIP3   OH272330   1.028   3.171   3.541 -0.0643 -0.8740  0.1891
16972TIP3    H172331   1.102   3.128   3.498 -0.1943  0.1784 -1.1598
16972TIP3    H272332   0.973   3.203   3.469  0.5546  2.4517  1.0299
16973TIP3   OH272333   4.627   4.609   5.809 -0.2916 -1.0279 -0.3378
16973TIP3    H172334   4.695   4.636   5.746  0.1235 -2.6990 -0.6510
16973TIP3    H272335   4.662   4.637   5.894 -1.2485  2.0381 -0.8196
16974TIP3   OH272336   5.433   1.561  15.774  0.2718 -0.1562 -0.9046
16974TIP3    H172337   5.438   1.469  15.746  1.6335 -0.4305  0.1309
16974TIP3    H272338   5.346   1.569  15.814 -0.3370 -0.6522 -2.0599
16975TIP3   OH272339   4.929   3.640   5.802 -0.1924  0.3523 -0.0409
16975TIP3    H172340   4.985   3.567   5.776  1.9097  1.0848  2.0887
16975TIP3    H272341   4.846   3.624   5.757  1.0321 -1.9291 -1.6660
16976TIP3   OH272342   0.352   4.138   4.733  0.1819  0.3258 -0.8816
16976TIP3    H172343   0.364   4.216   4.678 -0.9021  1.3347  0.2492
16976TIP3    H272344   0.356   4.065   4.671 -0.6754  1.3969 -2.2742
16977TIP3   OH272345   6.721   2.183  15.142 -0.2756 -0.6564 -0.6230
16977TIP3    H172346   6.744   2.189  15.235 -0.9635  0.1349 -0.4916
16977TIP3    H272347   6.721   2.274  15.111  1.3041 -0.9913 -1.7555
16978TIP3   OH272348   1.483   6.728   3.045 -0.1377  0.8171 -0.0024
16978TIP3    H172349   1.430   6.808   3.043 -0.7621  0.4360  0.8427
16978TIP3    H272350   1.522   6.727   3.132 -0.1420  0.1866 -0.0016
16979TIP3   OH272351   2.855   4.665  10.972  0.0752 -0.3061  0.2966
16979TIP3    H172352   2.863   4.571  10.955 -1.6703 -0.5390  0.5706
16979TIP3    H272353   2.912   4.706  10.908  0.8123 -1.5399  0.1204
16980TIP3   OH272354   1.027   3.996   4.767  0.1134 -0.6151 -0.1498
16980TIP3    H172355   1.073   4.080   4.770 -0.1751 -0.4723  0.6481
16980TIP3    H272356   1.094   3.932   4.745  0.1041 -0.0309 -2.0626
16981TIP3   OH272357   1.387   1.659  12.512  0.7708  0.4296 -0.0365
16981TIP3    H172358   1.393   1.703  12.427  0.6262 -0.2304 -0.3983
16981TIP3    H272359   1.319   1.708  12.559  1.0280  0.9530 -0.2028
16982TIP3   OH272360   3.810   3.782  12.500 -0.5951  0.4901  0.2552
16982TIP3    H172361   3.869   3.748  12.567 -0.6637  0.8627  0.5061
16982TIP3    H272362   3.792   3.872  12.527  0.4809  1.1224 -1.0018
16983TIP3   OH272363   6.231   3.651  15.548 -0.8794 -0.0823  0.6774
16983TIP3    H172364   6.299   3.679  15.609  0.1122 -2.5724  0.8398
16983TIP3    H272365   6.227   3.556  15.559 -1.3977 -0.5125 -2.3702
16984TIP3   OH272366   0.852   1.962  16.287 -0.1548 -0.0711  0.0919
16984TIP3    H172367   0.782   1.916  16.333 -0.3137 -2.0624 -1.9654
16984TIP3    H272368   0.829   1.953  16.194  1.7367  1.0961 -0.5385
16985TIP3   OH272369   2.719   0.946   4.466 -0.0732 -0.5074  0.0062
16985TIP3    H172370   2.811   0.952   4.440  0.3492  0.2954  1.5809
16985TIP3    H272371   2.673   0.918   4.386  1.0217  2.3835 -1.7690
16986TIP3   OH272372   1.567   4.649  13.987  0.7345  0.8256 -0.1623
16986TIP3    H172373   1.533   4.682  13.904  0.1822 -1.5150 -0.9308
16986TIP3    H272374   1.654   4.616  13.966 -0.1123 -1.4695 -0.2930
16987TIP3   OH272375   1.218   5.521  13.475  0.7881  0.5361 -0.2889
16987TIP3    H172376   1.125   5.543  13.480  0.8950  0.9355  0.0247
16987TIP3    H272377   1.225   5.461  13.401  0.2909  0.5578 -0.3554
16988TIP3   OH272378   6.077   4.156   2.006  0.2049  0.6826 -0.2808
16988TIP3    H172379   6.058   4.192   1.919 -0.6806  2.7488  0.6970
16988TIP3    H272380   6.121   4.226   2.052 -1.0808  0.3550  1.5615
16989TIP3   OH272381   2.204   1.617   4.663  0.2433  0.1077  0.1611
16989TIP3    H172382   2.153   1.577   4.592  0.7552 -1.2192  0.5291
16989TIP3    H272383   2.138   1.644   4.727 -0.1000 -0.2860 -0.0225
16990TIP3   OH272384   4.211   3.510   5.948 -0.0780 -0.0441 -0.0323
16990TIP3    H172385   4.181   3.501   6.039 -1.8459 -0.7014 -0.6481
16990TIP3    H272386   4.139   3.476   5.895  1.3238 -0.6224 -1.6607
16991TIP3   OH272387   0.358   5.544   2.426 -0.1444 -0.0298 -0.0175
16991TIP3    H172388   0.388   5.457   2.451  1.0828 -0.0119 -1.3229
16991TIP3    H272389   0.396   5.559   2.340 -0.0512  1.9386  0.3193
16992TIP3   OH272390   5.792   3.021   6.011 -0.0373  0.6612  0.1196
16992TIP3    H172391   5.821   3.056   5.927  0.6053  0.3945  0.2273
16992TIP3    H272392   5.830   2.934   6.016 -1.5929 -0.0760 -0.1348
16993TIP3   OH272393   2.571   6.545   1.812 -0.1190  0.3910  0.4288
16993TIP3    H172394   2.581   6.557   1.718 -0.5162  0.1023  0.3475
16993TIP3    H272395   2.600   6.456   1.828 -1.3521 -0.0419  0.3674
16994TIP3   OH272396   4.434   4.952   2.256 -0.4274  0.0071  0.0147
16994TIP3    H172397   4.472   5.023   2.206 -2.1253  0.0017 -1.3938
16994TIP3    H272398   4.344   4.980   2.273 -1.3629 -2.0408 -1.1998
16995TIP3   OH272399   5.827   1.533  12.477  0.4382 -0.1461 -0.7381
16995TIP3    H172400   5.812   1.579  12.559 -1.2219 -1.3263 -0.3157
16995TIP3    H272401   5.777   1.582  12.411 -0.9658 -1.0183 -0.3719
16996TIP3   OH272402   0.096   6.521   2.019 -0.4909  0.0614 -0.2910
16996TIP3    H172403   0.161   6.526   1.948 -0.7040  0.2208 -0.4797
16996TIP3    H272404   0.145   6.543   2.098 -0.3669  0.4342 -0.4663
16997TIP3   OH272405   2.700   2.623   0.762 -0.5938  0.8814 -0.2131
16997TIP3    H172406   2.691   2.608   0.668  0.3888  0.9257 -0.3211
16997TIP3    H272407   2.615   2.597   0.799  0.1646 -2.6631 -0.6608
16998TIP3   OH272408   6.755   4.015   2.405 -0.1794  0.5800  0.6927
16998TIP3    H172409   6.692   4.018   2.477 -1.6377 -1.0863 -0.4496
16998TIP3    H272410   6.702   4.016   2.326  1.3196  0.7490 -0.3514
16999TIP3   OH272411   2.448   1.972  13.244 -0.3554 -0.3283  0.7519
16999TIP3    H172412   2.529   1.926  13.221 -0.6588 -0.6848  0.3763
16999TIP3    H272413   2.435   2.035  13.174  0.2913  0.6533  1.4885
17000TIP3   OH272414   2.138   2.976   1.978 -0.4476  0.2261 -0.1093
17000TIP3    H172415   2.151   2.881   1.984 -1.0271  0.1644  0.2187
17000TIP3    H272416   2.176   2.999   1.893  0.6463 -0.1262  0.2562
17001TIP3   OH272417   5.492   2.361  15.510  0.6383  0.3525  0.1575
17001TIP3    H172418   5.438   2.388  15.585  0.7434  0.8383  0.0594
17001TIP3    H272419   5.465   2.271  15.493 -0.7365  0.8381 -0.4104
17002TIP3   OH272420   0.754   6.072   3.823 -0.3410  0.8649 -0.2287
17002TIP3    H172421   0.808   5.994   3.835 -0.5567  0.9259  1.4392
17002TIP3    H272422   0.666   6.038   3.809 -0.2848  0.7898 -0.3963
17003TIP3   OH272423   1.030   4.469   0.612 -0.2200  0.2593  0.0208
17003TIP3    H172424   0.937   4.454   0.600 -0.1412  0.3210 -0.7505
17003TIP3    H272425   1.072   4.389   0.579  0.0256  0.4865 -0.2228
17004TIP3   OH272426   4.510   0.394   0.340 -0.7002  0.1974  0.9109
17004TIP3    H172427   4.529   0.342   0.418 -1.7708 -2.2039 -0.2928
17004TIP3    H272428   4.424   0.364   0.312  0.1660 -0.0117 -1.8758
17005TIP3   OH272429   4.898   5.228  13.680  0.7537  0.2172 -0.1714
17005TIP3    H172430   4.835   5.185  13.623  0.1137  1.9203 -0.8205
17005TIP3    H272431   4.981   5.183  13.662  0.2990 -0.1498 -1.4845
17006TIP3   OH272432   5.774   6.751   3.780 -0.2006  0.3744 -0.2529
17006TIP3    H172433   5.682   6.725   3.775 -0.0942  0.1145 -0.9234
17006TIP3    H272434   5.778   6.833   3.731  0.1009 -0.1184 -1.0725
17007TIP3   OH272435   0.391   2.974   2.692  0.0998  0.5453  0.3707
17007TIP3    H172436   0.452   2.974   2.765 -0.2487  2.1338  0.6993
17007TIP3    H272437   0.342   2.892   2.701  0.4801  0.4351  1.5650
17008TIP3   OH272438   0.575   1.954  12.587 -0.7547  0.1459  0.1198
17008TIP3    H172439   0.600   2.033  12.539  2.0397 -1.8553 -2.0998
17008TIP3    H272440   0.632   1.954  12.664 -2.1380  1.1887  1.1803
17009TIP3   OH272441   4.345   6.362  16.546  0.1397 -0.3321  0.1863
17009TIP3    H172442   4.274   6.362  16.482 -0.7455 -1.4449  1.1237
17009TIP3    H272443   4.327   6.286  16.601  0.0620  1.3359  2.6346
17010TIP3   OH272444   3.205   2.682   3.038  0.0965  0.3796 -0.2351
17010TIP3    H172445   3.113   2.690   3.062  0.3004  1.7315  0.1881
17010TIP3    H272446   3.228   2.767   3.001  0.5731 -0.7082 -2.6107
17011TIP3   OH272447   3.351   5.315  16.652  0.0356 -0.6124  0.7464
17011TIP3    H172448   3.305   5.254  16.711 -0.0418 -0.1375  1.1864
17011TIP3    H272449   3.281   5.369  16.616  0.0892 -0.8776  0.2376
17012TIP3   OH272450   0.336   0.163  13.488  0.5704  0.6650  0.1826
17012TIP3    H172451   0.277   0.129  13.422  0.6947  0.5211  0.1450
17012TIP3    H272452   0.286   0.230  13.534  0.0822 -0.0564  0.7336
17013TIP3   OH272453   1.981   3.636   1.156 -0.0428  0.5923  0.7719
17013TIP3    H172454   1.888   3.654   1.167 -0.0329  0.6682  0.7271
17013TIP3    H272455   2.003   3.579   1.230 -0.8324 -1.9651 -0.8260
17014TIP3   OH272456   1.708   6.649   2.058  0.3680 -0.0278 -0.6210
17014TIP3    H172457   1.695   6.669   1.965 -0.2677 -0.3002 -0.5960
17014TIP3    H272458   1.688   6.731   2.103  0.6409  0.0946 -0.7165
17015TIP3   OH272459   6.517   3.594  13.636 -0.1996 -0.1943  0.1633
17015TIP3    H172460   6.490   3.510  13.673  0.0646 -0.6521 -0.6498
17015TIP3    H272461   6.538   3.648  13.712  0.5765 -1.1831  0.6856
17016TIP3   OH272462   2.525   1.582   3.639  0.1088 -0.0730  0.0153
17016TIP3    H172463   2.444   1.631   3.641 -0.1690 -0.3914 -1.8281
17016TIP3    H272464   2.587   1.634   3.690 -0.7057  1.1930 -0.2651
17017TIP3   OH272465   6.447   2.492  12.588 -0.0318 -0.1892  0.9779
17017TIP3    H172466   6.417   2.408  12.555 -1.0886  0.6220 -0.2498
17017TIP3    H272467   6.512   2.471  12.654  0.1941 -1.9535  0.2318
17018TIP3   OH272468   6.284   4.798   0.830 -0.4984 -0.1487  0.0223
17018TIP3    H172469   6.353   4.861   0.811 -1.1858  0.7256  0.3546
17018TIP3    H272470   6.203   4.845   0.811 -1.0350 -0.8302  0.5712
17019TIP3   OH272471   3.056   1.705   5.919  0.7802 -0.1483  0.0142
17019TIP3    H172472   3.071   1.786   5.869  1.1242 -0.3289 -0.1811
17019TIP3    H272473   2.993   1.656   5.866 -2.1485  1.4648  1.7771
17020TIP3   OH272474   5.623   1.809   5.224 -0.0295  0.1211  0.0282
17020TIP3    H172475   5.584   1.758   5.295  2.3679 -3.1760 -0.7772
17020TIP3    H272476   5.683   1.869   5.268  0.8868 -1.3630  0.9002
17021TIP3   OH272477   6.298   3.297   1.589  0.6621 -0.7316  0.2789
17021TIP3    H172478   6.262   3.307   1.677 -0.1147  0.9176 -0.1809
17021TIP3    H272479   6.225   3.264   1.537 -0.3688  2.6269 -0.6602
17022TIP3   OH272480   3.224   0.186   3.800 -0.1988  0.4030 -0.3234
17022TIP3    H172481   3.243   0.102   3.758 -0.8084  0.5941 -1.0063
17022TIP3    H272482   3.308   0.231   3.803 -0.1576  0.4469 -1.5099
17023TIP3   OH272483   6.208   5.564   3.138  0.0566 -0.0365 -0.4909
17023TIP3    H172484   6.279   5.626   3.128  0.1908  0.5674  2.9432
17023TIP3    H272485   6.129   5.618   3.141 -0.3323 -0.4914 -1.9674
17024TIP3   OH272486   4.368   5.160  15.782  0.2796  0.2387 -0.6295
17024TIP3    H172487   4.453   5.139  15.742  0.7219 -2.4612  1.4151
17024TIP3    H272488   4.313   5.084  15.763 -1.1496  1.1984 -0.4812
17025TIP3   OH272489   5.494   4.841   2.435 -0.4773  0.2121  0.1891
17025TIP3    H172490   5.428   4.897   2.476 -2.5095 -0.9658 -1.3101
17025TIP3    H272491   5.558   4.824   2.505 -1.5512  1.6769  1.6006
17026TIP3   OH272492   0.282   3.537   4.871 -0.2944  0.3959  0.5903
17026TIP3    H172493   0.219   3.609   4.869 -1.8377 -0.9059  0.4820
17026TIP3    H272494   0.285   3.510   4.963 -1.7278 -1.0275  0.2785
17027TIP3   OH272495   0.518   2.634  15.658  0.3224 -0.2243  0.1361
17027TIP3    H172496   0.464   2.682  15.721  0.9775  0.4932  0.1647
17027TIP3    H272497   0.562   2.567  15.710 -0.3775 -0.6983  0.1442
17028TIP3   OH272498   2.576   6.098   0.888 -0.4356  0.6349  0.4807
17028TIP3    H172499   2.570   6.015   0.839 -1.3438  2.2761 -2.4316
17028TIP3    H272500   2.581   6.071   0.980  1.1055 -2.6881 -0.4071
17029TIP3   OH272501   3.289   0.346  12.058 -0.0937  0.0666  0.3330
17029TIP3    H172502   3.322   0.428  12.022 -0.4177  0.0824  0.0706
17029TIP3    H272503   3.215   0.322  12.002  0.3846 -0.7266  0.0147
17030TIP3   OH272504   1.554   0.379  11.777 -0.5234 -0.7801 -0.1624
17030TIP3    H172505   1.496   0.358  11.850 -0.8849  0.4347 -0.0744
17030TIP3    H272506   1.620   0.438  11.815  0.4265 -1.6751 -0.3936
17031TIP3   OH272507   5.140   5.808  13.114  0.3580 -0.1540 -0.0538
17031TIP3    H172508   5.167   5.855  13.193 -0.4277 -1.3636  0.9759
17031TIP3    H272509   5.204   5.833  13.048  1.5067  0.2850  1.1825
17032TIP3   OH272510   0.847   6.156  11.748  0.3095  0.1401 -0.5771
17032TIP3    H172511   0.857   6.249  11.726 -0.6771 -0.1889 -2.6639
17032TIP3    H272512   0.870   6.110  11.667 -0.9510 -1.3454 -0.1241
17033TIP3   OH272513   3.245   1.634   3.900 -0.4031 -0.7966  0.0397
17033TIP3    H172514   3.313   1.679   3.951 -0.9494 -0.0841  0.1507
17033TIP3    H272515   3.287   1.617   3.815  0.5210 -2.0171  0.7040
17034TIP3   OH272516   6.241   4.505   6.399 -0.2689 -0.0184  0.1023
17034TIP3    H172517   6.205   4.431   6.351  0.6887  0.0166 -0.6973
17034TIP3    H272518   6.334   4.484   6.409 -0.1980  0.5861  0.7966
17035TIP3   OH272519   3.148   6.109  15.740  0.3610  0.3789 -0.3132
17035TIP3    H172520   3.075   6.103  15.678  1.1813 -1.8912 -1.1876
17035TIP3    H272521   3.139   6.031  15.795  0.4139  1.6631  1.6156
17036TIP3   OH272522   0.682   3.081  16.752 -0.0090 -0.1739  0.1654
17036TIP3    H172523   0.603   3.046  16.711  0.5919 -0.9521 -0.3840
17036TIP3    H272524   0.666   3.073  16.846  0.1141 -2.0520  0.0704
17037TIP3   OH272525   0.166   0.509  14.567 -0.0814 -0.0167 -0.1068
17037TIP3    H172526   0.232   0.569  14.599 -0.5752  1.0869 -1.0843
17037TIP3    H272527   0.127   0.471  14.646 -0.9944  2.3188  0.6564
17038TIP3   OH272528   6.504   6.118  11.296 -0.0149  0.1766 -0.5045
17038TIP3    H172529   6.434   6.056  11.271  1.7267 -1.3547 -1.8997
17038TIP3    H272530   6.521   6.167  11.216  0.3635  0.6811 -0.1133
17039TIP3   OH272531   3.892   6.062   2.494 -0.0743  0.1213  0.2038
17039TIP3    H172532   3.937   6.142   2.468 -0.1798  0.3780  0.8105
17039TIP3    H272533   3.811   6.092   2.536 -1.3776 -0.3331 -1.8142
17040TIP3   OH272534   0.327   0.973   2.235  0.2439  0.2845 -0.2308
17040TIP3    H172535   0.315   0.889   2.190 -0.1881  0.7026 -0.9124
17040TIP3    H272536   0.410   0.963   2.282  1.0077  0.0219 -1.5667
17041TIP3   OH272537   6.408   3.091   2.267 -0.1907  0.0112  0.0736
17041TIP3    H172538   6.368   3.065   2.350 -1.3474 -0.0129 -0.4840
17041TIP3    H272539   6.500   3.107   2.290 -0.2627 -0.9711  1.1513
17042TIP3   OH272540   5.254   0.621   4.091  0.2631 -0.3885  0.0345
17042TIP3    H172541   5.176   0.648   4.139  0.5228 -0.0811  0.2919
17042TIP3    H272542   5.238   0.530   4.068 -0.4814 -0.1271 -0.5408
17043TIP3   OH272543   6.316   5.006   5.421 -0.2112 -0.2221  0.3463
17043TIP3    H172544   6.266   5.075   5.378  0.4716 -0.4951 -0.9336
17043TIP3    H272545   6.407   5.028   5.404  0.0850 -0.3419  1.6912
17044TIP3   OH272546   0.038   4.740  14.576  0.1738 -0.4432  0.2546
17044TIP3    H172547   0.006   4.746  14.486  1.3217  0.4530 -0.1066
17044TIP3    H272548   0.050   4.831  14.603  1.5651 -0.7387  0.6832
17045TIP3   OH272549   4.223   0.789  12.274  0.1198  0.6262  0.4040
17045TIP3    H172550   4.279   0.757  12.204  0.3931  0.2035  0.8141
17045TIP3    H272551   4.283   0.823  12.339 -0.0953  0.2028  0.8290
17046TIP3   OH272552   2.168   0.401   0.353 -0.0077 -0.2339 -0.5140
17046TIP3    H172553   2.154   0.406   0.259  0.7958  0.0038 -0.6333
17046TIP3    H272554   2.210   0.484   0.376 -1.5653  0.3658  0.3253
17047TIP3   OH272555   5.408   2.548  11.211 -0.7741 -0.0207 -0.3145
17047TIP3    H172556   5.472   2.593  11.266 -2.5341  0.1943  1.7145
17047TIP3    H272557   5.432   2.456  11.216  0.4034  0.2202 -1.0798
17048TIP3   OH272558   0.752   3.387   4.694 -0.3709 -0.7954  0.2509
17048TIP3    H172559   0.703   3.445   4.752 -0.5381 -1.2676  0.5848
17048TIP3    H272560   0.698   3.309   4.687  0.2788 -1.2780  0.5371
17049TIP3   OH272561   2.498   3.796   1.900  0.3517 -0.2163 -0.2360
17049TIP3    H172562   2.512   3.860   1.970  0.4845 -2.4195  1.9103
17049TIP3    H272563   2.585   3.764   1.879  0.1502 -1.0072  0.0858
17050TIP3   OH272564   5.599   5.255  12.183  0.0376 -0.4488  0.1613
17050TIP3    H172565   5.654   5.322  12.143  0.1763  0.2770  1.5166
17050TIP3    H272566   5.512   5.270  12.146  0.0610  0.5208  0.4557
17051TIP3   OH272567   4.060   3.129  15.368  0.3275  0.2360 -0.3195
17051TIP3    H172568   4.052   3.223  15.350 -1.9791  0.2104  0.3173
17051TIP3    H272569   4.061   3.088  15.281 -0.4830  0.7516 -0.5852
17052TIP3   OH272570   5.847   1.180  15.809  0.2615 -0.1608  0.0371
17052TIP3    H172571   5.883   1.268  15.825 -2.3007  0.5683  2.5565
17052TIP3    H272572   5.860   1.134  15.892  0.2866 -1.7340 -0.8026
17053TIP3   OH272573   2.224   4.102   1.448  0.3400  0.1661 -0.0893
17053TIP3    H172574   2.222   4.169   1.379 -0.3682 -1.0210 -1.2754
17053TIP3    H272575   2.134   4.071   1.453  0.6109 -0.5214  0.6258
17054TIP3   OH272576   5.680   2.971   1.133 -0.0586  0.2025  0.3833
17054TIP3    H172577   5.695   3.006   1.045  1.2328 -0.7916  0.1898
17054TIP3    H272578   5.738   3.022   1.189 -1.0899  1.0324  0.7408
17055TIP3   OH272579   2.191   4.364  10.700  0.5114  0.0523  0.4703
17055TIP3    H172580   2.211   4.327  10.614 -0.1784  1.5832 -0.3959
17055TIP3    H272581   2.148   4.293  10.748 -0.7677 -0.3170 -1.1185
17056TIP3   OH272582   2.317   6.548   1.377 -0.3377 -0.1467 -0.3402
17056TIP3    H172583   2.337   6.579   1.289  0.9395 -0.8911 -0.3409
17056TIP3    H272584   2.304   6.454   1.367 -1.3410 -0.0592  0.0893
17057TIP3   OH272585   2.412   5.151   0.836 -0.0654 -0.1375  0.4970
17057TIP3    H172586   2.430   5.172   0.745  2.1049 -1.8335  0.4799
17057TIP3    H272587   2.421   5.235   0.882  1.9157  0.2245 -0.4539
17058TIP3   OH272588   5.748   0.816   2.522 -0.1619  0.7245 -0.5622
17058TIP3    H172589   5.827   0.867   2.504  2.0359 -2.5932 -1.3683
17058TIP3    H272590   5.714   0.792   2.436 -0.6903  0.2140 -0.2270
17059TIP3   OH272591   2.909   5.097  13.302  0.1485  0.4426  0.1015
17059TIP3    H172592   2.830   5.099  13.247  0.5652  0.3681 -0.5111
17059TIP3    H272593   2.968   5.037  13.257  0.1532 -0.3475  1.1286
17060TIP3   OH272594   2.308   3.998  15.143  0.4068 -0.2745 -0.0233
17060TIP3    H172595   2.226   4.018  15.189  0.5019  0.2817 -0.0888
17060TIP3    H272596   2.313   4.063  15.073  0.7072 -0.5587 -0.2726
17061TIP3   OH272597   0.775   0.284   4.898  0.0902 -0.4005 -0.3778
17061TIP3    H172598   0.779   0.312   4.989 -0.6538 -2.1691  0.2387
17061TIP3    H272599   0.785   0.365   4.848  2.4748  0.4023  1.2018
17062TIP3   OH272600   1.955   6.280  16.902  0.3109  0.2696  0.5943
17062TIP3    H172601   1.865   6.291  16.873  0.2317  0.4854  0.9172
17062TIP3    H272602   1.964   6.185  16.914  0.7898 -0.0077 -1.5179
17063TIP3   OH272603   5.727   3.613  16.969 -0.0353 -0.0517 -0.0547
17063TIP3    H172604   5.746   3.704  16.990  0.5695 -0.2819  0.4617
17063TIP3    H272605   5.813   3.571  16.962 -0.3045 -0.7077  0.3472
17064TIP3   OH272606   1.166   1.001  17.116  0.6986 -0.0216 -0.0072
17064TIP3    H172607   1.091   0.966  17.068  0.1510 -0.1401  0.9023
17064TIP3    H272608   1.140   1.090  17.141  1.3476  0.3806 -0.7095
17065TIP3   OH272609   0.029   3.727   1.435 -0.2814 -0.4319 -0.6548
17065TIP3    H172610   0.003   3.733   1.527 -1.7163 -0.2472 -1.0432
17065TIP3    H272611   0.090   3.654   1.432 -0.7964 -0.9260  0.3369
17066TIP3   OH272612   1.969   2.979   2.268  0.2461  0.2518 -0.1680
17066TIP3    H172613   1.929   2.916   2.209  1.7157 -0.4548 -0.4443
17066TIP3    H272614   1.978   2.933   2.352 -0.1624  0.6369  0.0904
17067TIP3   OH272615   5.037   3.966  11.989 -0.5576 -0.1431 -0.1145
17067TIP3    H172616   5.101   3.898  12.007  0.6934  0.8354 -0.7522
17067TIP3    H272617   4.999   3.986  12.075  1.5313  0.7492  0.6571
17068TIP3   OH272618   4.458   2.780   2.180 -0.7922  0.1737  0.9263
17068TIP3    H172619   4.468   2.694   2.219 -0.7687 -0.9083 -1.3054
17068TIP3    H272620   4.525   2.834   2.222 -0.1184 -1.1678  1.6345
17069TIP3   OH272621   2.599   3.512  14.773 -0.2843 -0.4387  0.0819
17069TIP3    H172622   2.666   3.580  14.771  0.7343 -1.4252 -0.1332
17069TIP3    H272623   2.536   3.538  14.706 -0.9875  1.3136  1.3257
17070TIP3   OH272624   3.956   4.830   4.647  0.0379 -0.2603  0.0992
17070TIP3    H172625   3.898   4.844   4.723 -0.3666  0.4800 -0.3389
17070TIP3    H272626   3.979   4.737   4.652 -0.1407 -0.2652  1.0204
17071TIP3   OH272627   0.724   2.826   3.828 -0.6986  0.3389 -0.1979
17071TIP3    H172628   0.741   2.920   3.840 -0.9654  0.3559  0.0824
17071TIP3    H272629   0.796   2.795   3.775  0.1679  0.4208  0.8827
17072TIP3   OH272630   1.090   4.974   3.539 -0.1865  0.1307 -0.6829
17072TIP3    H172631   1.180   5.006   3.544 -0.4086  0.6297  0.4085
17072TIP3    H272632   1.090   4.893   3.589 -0.3129  0.0336 -0.8366
17073TIP3   OH272633   6.637   0.334  15.195 -0.0759 -0.0105 -0.3530
17073TIP3    H172634   6.601   0.370  15.276 -1.5204  1.1416 -1.4559
17073TIP3    H272635   6.696   0.265  15.224 -0.8501  0.1075  1.6620
17074TIP3   OH272636   1.537   1.202   4.108  0.3830 -0.0242  0.5592
17074TIP3    H172637   1.442   1.200   4.105  0.3725  0.9293 -0.1216
17074TIP3    H272638   1.565   1.167   4.023  0.6381 -0.2340  0.7268
17075TIP3   OH272639   3.385   5.537   2.611  0.0324  0.0253  0.5989
17075TIP3    H172640   3.390   5.568   2.521 -1.0788 -0.1742  0.4535
17075TIP3    H272641   3.476   5.539   2.643  0.1958  1.9495  0.1089
17076TIP3   OH272642   2.074   1.830   4.841  0.3230  0.4546  0.3271
17076TIP3    H172643   1.986   1.863   4.820  0.1507  0.7611  1.4511
17076TIP3    H272644   2.133   1.891   4.797 -0.0158  0.0516 -0.7192
17077TIP3   OH272645   3.378   0.181   4.067  0.4713 -0.1482  0.3907
17077TIP3    H172646   3.319   0.110   4.043  0.9169  0.1394 -1.7694
17077TIP3    H272647   3.460   0.160   4.024  0.2390  2.2677 -1.4640
17078TIP3   OH272648   1.956   1.312   0.009  0.1289 -0.5350 -0.1913
17078TIP3    H172649   2.011   1.234   0.011  1.3995  0.3051  2.5901
17078TIP3    H272650   2.016   1.384  -0.012  0.1343  0.3328  2.4539
17079TIP3   OH272651   2.335   5.269  15.788 -0.1295  0.3775 -0.8494
17079TIP3    H172652   2.416   5.218  15.780 -0.8398 -1.3138  1.4798
17079TIP3    H272653   2.363   5.353  15.825  0.8757  1.1379 -3.1820
17080TIP3   OH272654   1.238   4.799  14.172 -0.3243 -0.2817  0.2965
17080TIP3    H172655   1.280   4.713  14.172 -1.6458 -0.9596  1.0079
17080TIP3    H272656   1.212   4.813  14.263  1.3513  1.6590  0.5383
17081TIP3   OH272657   0.163   5.217   2.111  0.1290  0.0981  0.4920
17081TIP3    H172658   0.145   5.131   2.149 -1.1605  0.3604  0.5191
17081TIP3    H272659   0.259   5.225   2.115  0.2977 -1.4392  0.2289
17082TIP3   OH272660   0.176   4.561  14.284  0.6530 -0.4826 -0.1222
17082TIP3    H172661   0.196   4.578  14.192  0.2291  0.0765 -0.1132
17082TIP3    H272662   0.234   4.618  14.333 -0.9993  1.2602 -0.0995
17083TIP3   OH272663   1.154   5.218  10.631  0.3024  0.4956 -0.5499
17083TIP3    H172664   1.152   5.310  10.659 -0.8297  0.4014 -0.2593
17083TIP3    H272665   1.220   5.178  10.687  0.0558  0.9146  0.0587
17084TIP3   OH272666   2.880   4.625   5.399  0.7527  0.7721 -0.9438
17084TIP3    H172667   2.801   4.586   5.437  0.8983  0.7337 -0.6680
17084TIP3    H272668   2.883   4.713   5.435  0.7708  0.8138 -1.0486
17085TIP3   OH272669   4.838   2.128   3.692  0.3966  0.6282  0.2098
17085TIP3    H172670   4.825   2.037   3.719  0.4470  0.4860 -0.2456
17085TIP3    H272671   4.828   2.127   3.597  0.3158  1.1140  0.2096
17086TIP3   OH272672   4.927   6.637  14.642 -0.4153 -0.0466 -0.3105
17086TIP3    H172673   4.963   6.669  14.559 -2.8711  1.8734 -0.7567
17086TIP3    H272674   4.871   6.564  14.618  0.0639 -0.4916 -0.1061
17087TIP3   OH272675   3.195   2.377  14.354  0.2675 -0.1278 -0.6318
17087TIP3    H172676   3.173   2.450  14.297 -0.1855 -0.4910 -0.9257
17087TIP3    H272677   3.285   2.353  14.330  0.5222  0.4960 -0.3478
17088TIP3   OH272678   3.023   2.677   4.066 -0.5552  0.1850 -0.3715
17088TIP3    H172679   3.066   2.756   4.098 -0.4085  0.0075 -0.1284
17088TIP3    H272680   3.033   2.614   4.137 -2.6310  0.6275  0.3844
17089TIP3   OH272681   4.352   2.562  14.929 -0.4735  0.1351 -0.1765
17089TIP3    H172682   4.301   2.640  14.906 -0.7546  0.1353  0.4483
17089TIP3    H272683   4.380   2.577  15.019 -0.4189 -0.4319 -0.0974
17090TIP3   OH272684   0.611   3.992   1.001 -0.4914 -0.8403 -0.2709
17090TIP3    H172685   0.601   3.952   1.087  0.4129 -1.4392 -0.4310
17090TIP3    H272686   0.539   3.955   0.949 -1.7634  0.4280  0.5282
17091TIP3   OH272687   0.343   5.869   5.835  0.0848 -0.0306 -0.0270
17091TIP3    H172688   0.316   5.867   5.927 -1.1517  0.9017 -0.3542
17091TIP3    H272689   0.413   5.803   5.830 -1.7695 -2.1933  0.9578
17092TIP3   OH272690   1.985   3.443  15.853 -0.0047 -0.2094  0.2005
17092TIP3    H172691   1.979   3.528  15.811  1.5917 -0.0119  0.3044
17092TIP3    H272692   2.034   3.389  15.791  0.7113 -0.4694  0.9689
17093TIP3   OH272693   4.542   2.345   2.173 -0.1149 -0.0947 -0.1741
17093TIP3    H172694   4.551   2.252   2.152  0.7800  0.1201 -0.7834
17093TIP3    H272695   4.579   2.390   2.098  2.8817  0.7287  1.6194
17094TIP3   OH272696   5.880   6.498  13.888 -0.6478 -0.6975  0.2254
17094TIP3    H172697   5.921   6.420  13.852  1.5565 -0.9285  2.8269
17094TIP3    H272698   5.861   6.553  13.812 -0.0909 -2.7442 -1.4940
17095TIP3   OH272699   1.933   3.997  13.969  0.4137 -0.1075 -0.4245
17095TIP3    H172700   2.010   3.982  13.915  2.7761  0.4350  2.5399
17095TIP3    H272701   1.911   4.089  13.955  2.6104  0.7728  1.2621
17096TIP3   OH272702   0.086   4.740  11.989  0.0879  0.2021  0.1575
17096TIP3    H172703   0.046   4.828  11.986 -0.1450  0.0799 -0.9539
17096TIP3    H272704   0.100   4.723  12.082 -0.7934  1.0108  0.4614
17097TIP3   OH272705   6.783   1.600  11.693 -0.3579 -0.2660  0.2581
17097TIP3    H172706   6.737   1.684  11.692 -0.5232 -0.3441  1.1578
17097TIP3    H272707   6.847   1.608  11.622  0.2973  0.9927  0.9502
17098TIP3   OH272708   3.156   6.043   3.939  0.1668 -0.3194 -0.0653
17098TIP3    H172709   3.160   6.054   3.844  1.4211  1.0997  0.1156
17098TIP3    H272710   3.213   6.111   3.974 -0.8943 -0.2969  1.7572
17099TIP3   OH272711   0.471   4.976   3.563  0.1028 -0.4077 -0.4890
17099TIP3    H172712   0.380   4.968   3.531 -0.2972  0.8290  0.2801
17099TIP3    H272713   0.467   4.947   3.654  0.7255 -1.4354 -0.7752
17100TIP3   OH272714   0.925   3.406  11.977 -0.6032 -0.3531  0.1393
17100TIP3    H172715   0.962   3.331  11.930 -1.5842  0.3281 -1.8633
17100TIP3    H272716   0.842   3.422  11.932  0.2746  2.8842 -0.5532
17101TIP3   OH272717   2.114   2.151  15.345  0.2284  0.3423 -0.2041
17101TIP3    H172718   2.060   2.213  15.296 -0.6008  1.1156  1.6136
17101TIP3    H272719   2.181   2.205  15.388 -0.7746  0.0905  1.7593
17102TIP3   OH272720   4.671   2.675  14.489 -0.2493  0.0116  0.2304
17102TIP3    H172721   4.700   2.645  14.575  2.1107 -0.8370 -0.7760
17102TIP3    H272722   4.703   2.608  14.428 -1.3174  0.8966 -1.3902
17103TIP3   OH272723   4.427   4.363  14.679  0.9029  0.0999 -0.1518
17103TIP3    H172724   4.522   4.371  14.695  0.8209  1.9119 -0.4298
17103TIP3    H272725   4.388   4.365  14.767  1.0270  0.9419 -0.1120
17104TIP3   OH272726   1.805   0.098   4.733 -0.5362 -0.1334 -0.2278
17104TIP3    H172727   1.853   0.022   4.763  0.0009  0.6206  0.8920
17104TIP3    H272728   1.767   0.136   4.813 -1.5214  0.2814 -0.8679
17105TIP3   OH272729   2.155   6.009   3.122  0.3459 -0.5597  0.2413
17105TIP3    H172730   2.119   5.984   3.038  0.3049 -1.7200  0.5938
17105TIP3    H272731   2.141   6.104   3.126  1.6402 -0.2402 -1.6503
17106TIP3   OH272732   0.452   3.627   3.853 -0.1869  0.1748 -0.2461
17106TIP3    H172733   0.416   3.606   3.939  0.7426 -2.4805 -0.4156
17106TIP3    H272734   0.396   3.580   3.791 -0.4937  1.5816 -1.0754
17107TIP3   OH272735   0.793   0.958  11.629 -0.2289  0.1081 -0.1874
17107TIP3    H172736   0.745   0.877  11.648 -1.3444  0.5811 -0.8546
17107TIP3    H272737   0.745   1.026  11.677  0.0815  0.5154 -0.4473
17108TIP3   OH272738   3.405   5.757   5.539 -0.3036  0.0613  0.0612
17108TIP3    H172739   3.449   5.764   5.624  1.5449 -1.8900 -0.6412
17108TIP3    H272740   3.341   5.687   5.551 -0.9387  0.6498  0.1669
17109TIP3   OH272741   4.185   0.023  11.831 -0.3425  0.7156 -0.2321
17109TIP3    H172742   4.128   0.057  11.900  2.3017  1.7386  1.5986
17109TIP3    H272743   4.229   0.100  11.795  0.2852 -0.0774 -1.2361
17110TIP3   OH272744   4.171   5.454  16.578  0.7501  0.0289 -0.5616
17110TIP3    H172745   4.128   5.399  16.643  1.8498 -2.2613 -1.6737
17110TIP3    H272746   4.102   5.515  16.550 -0.7121 -1.1230  0.3378
17111TIP3   OH272747   3.970   2.770  14.320 -0.0118 -0.0806  0.3042
17111TIP3    H172748   3.990   2.751  14.411 -0.0987 -0.8560  0.1705
17111TIP3    H272749   4.056   2.773  14.277  0.0518  0.6461  0.4729
17112TIP3   OH272750   2.281   5.343  12.297 -0.0088  0.4209  0.2541
17112TIP3    H172751   2.355   5.327  12.356 -0.2207 -2.1620 -0.0626
17112TIP3    H272752   2.318   5.395  12.226  1.5461 -0.7766  0.1279
17113TIP3   OH272753   4.148   5.448   3.062  0.1858 -0.1516  0.1856
17113TIP3    H172754   4.239   5.424   3.045  1.3802  2.4242  2.1302
17113TIP3    H272755   4.135   5.530   3.014 -0.1897  0.8797  1.9235
17114TIP3   OH272756   0.011   3.375  17.066  0.4699 -0.3703  0.1721
17114TIP3    H172757   0.010   3.470  17.053 -1.4245  0.0252  2.3962
17114TIP3    H272758   0.092   3.358  17.114  1.9813 -0.2997 -2.1986
17115TIP3   OH272759   1.734   5.361   1.077  0.1504 -0.8487 -0.7508
17115TIP3    H172760   1.686   5.425   1.025  0.4456 -0.2815 -0.3424
17115TIP3    H272761   1.820   5.401   1.092  0.7126 -1.7810 -1.3471
17116TIP3   OH272762   4.571   2.283  15.063  0.5755 -0.2452  0.3911
17116TIP3    H172763   4.499   2.342  15.042 -0.3689 -0.9219  1.5913
17116TIP3    H272764   4.553   2.253  15.152  0.1702 -3.5113 -0.6576
17117TIP3   OH272765   6.437   2.411   2.170 -0.0103 -0.2832 -0.7571
17117TIP3    H172766   6.518   2.446   2.206  0.0518 -1.2341  0.1049
17117TIP3    H272767   6.370   2.474   2.196  0.3924  0.3300 -1.1744
17118TIP3   OH272768   0.085   0.027  16.211 -0.3856 -0.6227  0.0743
17118TIP3    H172769   0.043   0.079  16.142  1.0488 -2.5264 -2.4504
17118TIP3    H272770   0.074  -0.064  16.181 -1.1630 -1.7144  3.3060
17119TIP3   OH272771   4.814   0.952  16.669  0.0755 -0.3201 -0.3404
17119TIP3    H172772   4.880   1.010  16.706 -1.4814  1.0792  0.3673
17119TIP3    H272773   4.817   0.873  16.723  1.1512 -0.2764 -0.3264
17120TIP3   OH272774   1.141   4.702   1.105  0.2457  0.0660  0.3734
17120TIP3    H172775   1.088   4.768   1.151  0.6726  0.0045  0.9597
17120TIP3    H272776   1.111   4.707   1.014 -1.7838 -0.9369  0.9134
17121TIP3   OH272777   0.200   4.910  16.758  0.0871 -0.1070  0.2526
17121TIP3    H172778   0.276   4.865  16.796 -0.0688 -0.1281  0.5400
17121TIP3    H272779   0.237   4.985  16.712  0.3001 -0.2197  0.2398
17122TIP3   OH272780   1.338   0.030   3.369 -0.6706 -0.4456  0.1440
17122TIP3    H172781   1.298  -0.030   3.306 -2.0752  0.6848 -0.0868
17122TIP3    H272782   1.377  -0.027   3.435  0.1848 -1.6506 -1.3242
17123TIP3   OH272783   0.441   1.758  17.199 -0.3894 -0.3428 -0.2465
17123TIP3    H172784   0.522   1.777  17.247 -0.9248 -0.7011  0.8151
17123TIP3    H272785   0.396   1.842  17.194  1.4769  0.6701 -3.7297
17124TIP3   OH272786   2.479   6.278  10.801 -0.0294  0.4626 -0.3006
17124TIP3    H172787   2.551   6.230  10.843 -0.1508  1.2931  0.9018
17124TIP3    H272788   2.490   6.368  10.830 -0.6523  0.9064 -1.3792
17125TIP3   OH272789   6.197   0.287  16.335 -0.7373 -0.0813  0.4804
17125TIP3    H172790   6.106   0.309  16.358 -1.1400  0.1612 -1.2141
17125TIP3    H272791   6.194   0.268  16.241  0.9582 -0.1461  0.4108
17126TIP3   OH272792   1.814   1.051  15.905 -0.1889  0.0887  0.5586
17126TIP3    H172793   1.727   1.041  15.866 -0.2598 -0.2001  0.7903
17126TIP3    H272794   1.799   1.045  15.999 -0.1447  1.7080  0.7023
17127TIP3   OH272795   5.716   3.769   0.958 -0.2653  0.1044  0.6934
17127TIP3    H172796   5.807   3.742   0.967 -0.5985 -1.3714  0.0576
17127TIP3    H272797   5.692   3.743   0.869 -1.6876 -0.8214  1.3079
17128TIP3   OH272798   2.397   3.911  10.523  0.3913 -0.1024  0.3433
17128TIP3    H172799   2.312   3.949  10.546  0.3707  0.4757 -0.6321
17128TIP3    H272800   2.376   3.825  10.486  0.0463  0.7426 -1.5510
17129TIP3   OH272801   1.586   4.113   2.870 -0.1745  0.5807 -0.2233
17129TIP3    H172802   1.614   4.145   2.785 -0.0415  0.2803 -0.2947
17129TIP3    H272803   1.639   4.035   2.885  0.1956  0.9355  0.3757
17130TIP3   OH272804   4.819   0.053  15.657 -0.1147 -0.3358  0.9227
17130TIP3    H172805   4.912   0.060  15.679  0.5479 -0.9857 -1.3455
17130TIP3    H272806   4.774   0.052  15.741  2.1590 -3.2121  2.2788
17131TIP3   OH272807   0.326   4.264  16.017  0.2297 -0.4500  0.3097
17131TIP3    H172808   0.344   4.325  15.945  1.8884 -1.2347  0.0233
17131TIP3    H272809   0.233   4.277  16.036  0.3773  1.7098 -0.1586
17132TIP3   OH272810   5.455   3.336  13.956  0.3050 -0.5552  0.4326
17132TIP3    H172811   5.509   3.354  14.032  0.7599  0.2375 -0.0640
17132TIP3    H272812   5.461   3.415  13.902 -1.4812 -0.3679  0.4403
17133TIP3   OH272813   4.377   2.333  13.996 -0.3701  0.6514  0.2636
17133TIP3    H172814   4.441   2.333  14.067 -0.1160 -1.0636  0.0737
17133TIP3    H272815   4.319   2.260  14.016 -1.8621  1.7436  0.0504
17134TIP3   OH272816   1.640   4.534  13.444 -0.3409 -0.0242 -0.0422
17134TIP3    H172817   1.617   4.534  13.352 -0.3620 -1.2795 -0.0556
17134TIP3    H272818   1.598   4.456  13.480 -0.5397  0.5735  1.0900
17135TIP3   OH272819   3.700   6.766  11.584 -0.7534 -0.0907  0.5620
17135TIP3    H172820   3.688   6.774  11.489 -0.4355 -1.5374  0.3763
17135TIP3    H272821   3.720   6.674  11.598  0.1790  0.2916  1.9414
17136TIP3   OH272822   1.499   3.158  14.974  0.1455  0.4048  0.5156
17136TIP3    H172823   1.582   3.206  14.967  0.7838 -0.5546  1.2989
17136TIP3    H272824   1.439   3.206  14.916  0.8919  1.8459  0.8880
17137TIP3   OH272825   5.755   6.575   6.169 -0.3348 -0.2498  0.0969
17137TIP3    H172826   5.702   6.587   6.090 -2.8526 -0.7739  1.6108
17137TIP3    H272827   5.752   6.660   6.213 -1.8607 -0.8839  1.2840
17138TIP3   OH272828   4.494   3.416   5.563 -0.4447  0.0132 -0.5121
17138TIP3    H172829   4.494   3.483   5.631  0.1162 -0.6915  0.1895
17138TIP3    H272830   4.582   3.418   5.527 -0.6954  0.2790 -1.1280
17139TIP3   OH272831   5.346   2.172   6.795  0.1829 -0.2216 -0.4279
17139TIP3    H172832   5.352   2.129   6.880 -1.2166  0.1201 -0.1313
17139TIP3    H272833   5.367   2.103   6.732  0.8127 -0.5870  0.1695
17140TIP3   OH272834   1.502   4.150   2.563  0.0615  0.0341 -0.0822
17140TIP3    H172835   1.494   4.059   2.592 -3.0622  0.2282  0.0014
17140TIP3    H272836   1.512   4.143   2.468  0.2577 -0.3975 -0.0346
17141TIP3   OH272837   5.234   0.339   3.489 -0.5219  0.0642 -0.0091
17141TIP3    H172838   5.268   0.428   3.503  1.4075 -0.5507 -0.4148
17141TIP3    H272839   5.171   0.348   3.418 -1.4770  1.3231  0.9561
17142TIP3   OH272840   1.420   1.017   3.024  0.2146 -0.4417 -0.3501
17142TIP3    H172841   1.370   0.935   3.032  2.7379 -2.1755 -1.0493
17142TIP3    H272842   1.482   1.014   3.096 -0.4032  1.5168  0.3254
17143TIP3   OH272843   6.093   0.521  15.350 -0.1828 -0.7167  0.6367
17143TIP3    H172844   6.004   0.543  15.324  1.0779  2.3077 -1.7508
17143TIP3    H272845   6.135   0.491  15.270  1.1543 -1.4605  1.5728
17144TIP3   OH272846   5.760   0.208  13.059  0.0871 -0.2367  0.0586
17144TIP3    H172847   5.853   0.232  13.059  0.1438 -0.3294 -1.7991
17144TIP3    H272848   5.758   0.117  13.028 -0.6697  0.1314 -1.0485
17145TIP3   OH272849   2.871   3.057   4.420 -0.4333 -0.0310 -0.4112
17145TIP3    H172850   2.903   3.100   4.341 -1.4201 -0.0098 -0.8038
17145TIP3    H272851   2.896   3.116   4.491  3.6538 -1.6512 -0.2036
17146TIP3   OH272852   3.336   4.054  15.912  0.2052 -0.7632 -0.0811
17146TIP3    H172853   3.362   4.013  15.995  0.1889 -2.7233 -0.9857
17146TIP3    H272854   3.285   3.987  15.867 -0.2851  0.4715 -1.4522
17147TIP3   OH272855   3.876   0.067  15.380 -0.5349 -0.2677  0.2488
17147TIP3    H172856   3.790   0.110  15.376 -0.2687  0.3187  0.7195
17147TIP3    H272857   3.868  -0.007  15.319 -1.0665  0.3325 -0.4359
17148TIP3   OH272858   5.429   4.789   1.974 -0.3291  0.1183  0.2900
17148TIP3    H172859   5.478   4.711   1.998 -1.6157 -0.7192  0.2716
17148TIP3    H272860   5.348   4.756   1.935  0.6370  1.4015 -3.1900
17149TIP3   OH272861   3.348   1.095   0.885  0.2075 -0.4389 -0.2298
17149TIP3    H172862   3.316   1.158   0.949  2.1347  0.6793 -0.3041
17149TIP3    H272863   3.338   1.010   0.928 -0.6576  0.0766  0.6242
17150TIP3   OH272864   3.983   6.209   0.451  0.1194 -0.3215 -0.6610
17150TIP3    H172865   4.001   6.301   0.468 -0.4775 -0.6548  2.2861
17150TIP3    H272866   3.892   6.206   0.421 -0.3035 -0.0415  0.5586
17151TIP3   OH272867   6.090   5.051   1.775 -0.0465 -0.0308 -0.2134
17151TIP3    H172868   6.097   5.135   1.820 -1.0681  0.8846 -1.6824
17151TIP3    H272869   6.011   5.011   1.811 -0.1729  0.1399 -0.3009
17152TIP3   OH272870   6.333   4.166   4.112 -0.3634 -0.0731 -0.2562
17152TIP3    H172871   6.394   4.169   4.038 -1.0900 -0.4457 -0.8820
17152TIP3    H272872   6.282   4.247   4.104 -0.1123  0.1267  0.1325
17153TIP3   OH272873   5.656   2.057  16.354 -0.2033 -0.0968 -0.2972
17153TIP3    H172874   5.581   2.116  16.344 -0.4545 -0.6270 -1.5914
17153TIP3    H272875   5.621   1.970  16.337  0.0035 -0.7742  2.2945
17154TIP3   OH272876   6.370   3.384  14.179 -0.0422 -0.4052 -0.3955
17154TIP3    H172877   6.393   3.452  14.243 -1.3664 -0.2058 -0.1151
17154TIP3    H272878   6.416   3.306  14.210  3.6340  0.8315 -2.0967
17155TIP3   OH272879   5.901   5.326  17.038  0.1391  0.1987  0.5517
17155TIP3    H172880   5.995   5.327  17.019 -0.0805  1.0971 -0.5817
17155TIP3    H272881   5.873   5.416  17.025 -1.0183 -0.2086  0.1733
17156TIP3   OH272882   1.709   3.315   0.278  0.0909  0.3636 -0.3954
17156TIP3    H172883   1.802   3.329   0.296 -0.3812  0.8590  1.8847
17156TIP3    H272884   1.705   3.309   0.182  2.7486 -1.8948 -0.5092
17157TIP3   OH272885   3.585   5.279   3.872  0.6892  0.3412  0.3517
17157TIP3    H172886   3.675   5.252   3.850  1.2530  1.1396  1.5678
17157TIP3    H272887   3.594   5.324   3.956 -0.9277  0.0832  0.6775
17158TIP3   OH272888   4.629   1.852  13.125 -0.7685 -0.1454  0.3300
17158TIP3    H172889   4.685   1.894  13.059 -0.0112  1.3806  1.8631
17158TIP3    H272890   4.581   1.785  13.076  0.9080 -0.1457 -1.4459
17159TIP3   OH272891   5.826   3.028   5.006  0.3967  0.5024  0.5469
17159TIP3    H172892   5.849   2.946   5.049 -1.5548 -0.5059 -0.2012
17159TIP3    H272893   5.885   3.033   4.931  0.4448 -0.2873  0.5228
17160TIP3   OH272894   1.266   6.404   1.780  0.0979 -0.1435 -0.1660
17160TIP3    H172895   1.237   6.478   1.727 -0.9277 -0.2271  0.2685
17160TIP3    H272896   1.283   6.334   1.716 -1.1586 -0.2531 -0.3901
17161TIP3   OH272897   5.848   2.910  16.999 -0.1518 -0.1134  0.9302
17161TIP3    H172898   5.842   2.834  17.057 -0.8456 -0.4429  0.4422
17161TIP3    H272899   5.898   2.975  17.049  0.9883 -1.1132  1.1135
17162TIP3   OH272900   6.005   1.762   3.996 -0.2150  0.2705  0.6012
17162TIP3    H172901   5.938   1.815   3.952 -0.2202 -1.1975 -1.2647
17162TIP3    H272902   5.968   1.674   4.001  1.4655 -0.5567 -0.3590
17163TIP3   OH272903   2.047   2.438   1.819  0.4998 -0.1984 -0.2284
17163TIP3    H172904   1.967   2.442   1.870 -0.4488 -0.5114 -1.6300
17163TIP3    H272905   2.040   2.511   1.757  2.8559  1.8541  1.6944
17164TIP3   OH272906   1.512   0.959  11.141 -0.5558  0.3088  0.6268
17164TIP3    H172907   1.559   0.980  11.222  0.4528  0.6585 -0.0416
17164TIP3    H272908   1.512   1.040  11.091 -0.6966 -0.0602  0.0281
17165TIP3   OH272909   0.757   6.374  13.158  0.1595  0.0412  0.0574
17165TIP3    H172910   0.771   6.301  13.097 -1.5690 -0.2412 -0.0390
17165TIP3    H272911   0.698   6.339  13.225 -0.4644  1.2623  0.1757
17166TIP3   OH272912   0.752   1.002   4.516  0.2546 -0.7904 -0.1242
17166TIP3    H172913   0.709   1.070   4.464  1.7584 -0.2985 -0.7805
17166TIP3    H272914   0.721   1.017   4.605  0.8358  1.0080 -0.1851
17167TIP3   OH272915   5.135   4.604  14.815  0.1830 -0.2760 -0.2263
17167TIP3    H172916   5.058   4.624  14.868  0.6466 -1.1909  0.8271
17167TIP3    H272917   5.172   4.525  14.854  1.7481  0.2169 -0.6124
17168TIP3   OH272918   6.196   5.141   0.889 -0.0348 -0.2211  0.0010
17168TIP3    H172919   6.190   5.236   0.888  1.1843 -0.1200 -1.1324
17168TIP3    H272920   6.288   5.123   0.869  0.2205 -1.6215  2.1335
17169TIP3   OH272921   0.817   0.001   0.476 -0.6968 -0.2005 -0.1745
17169TIP3    H172922   0.841   0.009   0.383  0.4521 -0.2634  0.1026
17169TIP3    H272923   0.896   0.026   0.523 -0.9925 -1.0429  0.7983
17170TIP3   OH272924   6.465   6.012  16.825  0.0044  0.0729 -0.4086
17170TIP3    H172925   6.446   5.988  16.916  0.3768  0.3394 -0.2618
17170TIP3    H272926   6.448   6.106  16.821 -0.8050 -0.0720 -0.8201
17171TIP3   OH272927   2.879   6.408  16.510  0.8531 -0.4150  0.0590
17171TIP3    H172928   2.946   6.476  16.505  1.3360 -0.9538 -1.2928
17171TIP3    H272929   2.927   6.326  16.499 -0.0621 -0.7850 -1.4258
17172TIP3   OH272930   6.483   6.240   5.075 -0.3513 -0.3016  0.3873
17172TIP3    H172931   6.517   6.319   5.035 -0.8530 -0.4839 -0.4076
17172TIP3    H272932   6.561   6.194   5.107 -0.0424  0.3996  0.6591
17173TIP3   OH272933   3.214   5.551   5.591 -0.3093  0.2048  0.2314
17173TIP3    H172934   3.127   5.577   5.620  0.7474  1.2316  2.8882
17173TIP3    H272935   3.201   5.468   5.545 -2.3688 -1.7292  3.8318
17174TIP3   OH272936   5.448   1.291  12.572 -0.3591 -0.5633  0.3883
17174TIP3    H172937   5.528   1.238  12.566 -1.0558 -2.0062  2.6335
17174TIP3    H272938   5.392   1.256  12.502  1.2633  1.2366 -1.9965
17175TIP3   OH272939   5.299   6.256  16.427 -0.1884 -0.3664  0.1357
17175TIP3    H172940   5.326   6.196  16.496 -1.4532  0.5126  1.4492
17175TIP3    H272941   5.210   6.280  16.449 -0.4727  0.3140 -1.5736
17176TIP3   OH272942   3.325   5.522  10.730 -0.2452 -0.0607 -0.2687
17176TIP3    H172943   3.398   5.578  10.755 -1.0792  0.3089  1.5208
17176TIP3    H272944   3.268   5.521  10.807 -0.4563 -3.0720 -0.3404
17177TIP3   OH272945   2.071   5.644   0.195  0.8584 -0.4582 -0.5832
17177TIP3    H172946   2.083   5.702   0.271 -0.5848  0.6528 -1.1705
17177TIP3    H272947   1.977   5.643   0.180  0.7217 -3.6767 -0.0887
17178TIP3   OH272948   6.678   0.582  12.760 -0.5227  0.5802 -0.8108
17178TIP3    H172949   6.652   0.673  12.743 -1.0167  0.6789  0.3665
17178TIP3    H272950   6.608   0.547  12.815  1.3087  0.6008  1.7542
17179TIP3   OH272951   2.959   2.989   4.763 -0.9342  0.2659  0.2030
17179TIP3    H172952   3.021   2.919   4.785  0.7818  1.9270  0.9613
17179TIP3    H272953   3.008   3.048   4.706 -0.6073  3.2805  3.2776
17180TIP3   OH272954   5.512   4.369  12.966 -0.2615  0.0678 -0.3252
17180TIP3    H172955   5.523   4.447  12.911  1.7708  0.8204  1.0002
17180TIP3    H272956   5.458   4.310  12.914 -0.8635  1.8781 -1.8829
17181TIP3   OH272957   2.221   3.605   6.716  0.4276  0.2739  0.1483
17181TIP3    H172958   2.184   3.524   6.750  1.5926 -0.2221  0.2733
17181TIP3    H272959   2.306   3.580   6.680  0.0484  1.1234 -1.4281
17182TIP3   OH272960   6.305   4.437   0.322 -0.6519 -0.3278  0.2258
17182TIP3    H172961   6.222   4.402   0.352 -0.8450  0.6794  0.9162
17182TIP3    H272962   6.295   4.532   0.328  1.1688 -0.1964  2.1095
17183TIP3   OH272963   4.984   3.127   0.062  0.3194 -0.3430 -0.1546
17183TIP3    H172964   5.006   3.215   0.032  1.8021 -1.3030 -2.0977
17183TIP3    H272965   5.061   3.074   0.041 -0.3828 -2.0554  1.3106
17184TIP3   OH272966   5.384   1.353   1.498 -0.2024  0.1793 -0.1337
17184TIP3    H172967   5.434   1.396   1.566  1.4481 -0.6411 -0.7646
17184TIP3    H272968   5.421   1.265   1.492 -0.3560  0.1854 -1.9997
17185TIP3   OH272969   0.190   4.273   3.284  0.0301 -0.0758 -1.0881
17185TIP3    H172970   0.246   4.346   3.256  0.7644  1.3764  3.3004
17185TIP3    H272971   0.133   4.312   3.351  0.1657 -3.4273  1.1829
17186TIP3   OH272972   6.504   6.764   2.372 -0.3931  0.5400  0.1470
17186TIP3    H172973   6.524   6.766   2.466  0.7533 -2.5911  0.0859
17186TIP3    H272974   6.586   6.792   2.330  0.2803 -1.4096  0.0812
17187TIP3   OH272975   2.814   0.430   1.915 -0.2344 -0.4955 -0.1940
17187TIP3    H172976   2.770   0.415   1.832  0.5713  0.8242 -0.8926
17187TIP3    H272977   2.803   0.348   1.963 -3.5945 -0.1666 -0.2149
17188TIP3   OH272978   6.563   5.210  11.310  0.2368 -0.2086 -0.2142
17188TIP3    H172979   6.521   5.274  11.367  0.5730 -0.3508  0.1938
17188TIP3    H272980   6.491   5.161  11.271 -0.0203  0.3378 -0.4422
17189TIP3   OH272981   2.647   1.320   4.830  0.2829 -0.1872  0.5639
17189TIP3    H172982   2.697   1.343   4.752  0.0481  0.1455  0.5071
17189TIP3    H272983   2.606   1.236   4.809 -2.5862  1.4515 -1.0655
17190TIP3   OH272984   5.517   6.571  15.322 -0.7053 -0.0393 -0.1540
17190TIP3    H172985   5.555   6.651  15.357 -0.3956 -0.3337  0.1916
17190TIP3    H272986   5.525   6.581  15.227  0.6698 -0.2823 -0.0928
17191TIP3   OH272987   2.658   5.506   1.334 -0.0817 -0.1325 -0.1165
17191TIP3    H172988   2.579   5.468   1.373  2.3723 -3.2471  2.3330
17191TIP3    H272989   2.675   5.585   1.387 -1.7604  0.9415 -1.0804
17192TIP3   OH272990   3.219   1.395  10.514  0.1505 -0.5780  0.2363
17192TIP3    H172991   3.273   1.471  10.539  0.6000 -1.4451  2.0980
17192TIP3    H272992   3.134   1.433  10.490  0.9343  0.6482 -0.7372
17193TIP3   OH272993   1.581   6.543  13.214  0.2017  0.0389 -0.2066
17193TIP3    H172994   1.603   6.452  13.195 -0.0142 -0.3727  1.3617
17193TIP3    H272995   1.487   6.549  13.196  0.0884 -0.2218  0.2838
17194TIP3   OH272996   0.637   4.051   6.573 -0.3593 -0.4089 -0.0333
17194TIP3    H172997   0.642   4.100   6.491 -1.5415 -4.1138 -2.6386
17194TIP3    H272998   0.726   4.051   6.608  0.3010  0.8381 -1.6217
17195TIP3   OH272999   5.859   3.324   5.822  0.4251  0.4544 -0.3103
17195TIP3    H173000   5.830   3.348   5.910 -0.6488 -1.8851  0.0773
17195TIP3    H273001   5.900   3.403   5.787  0.5833  1.5522  2.1481
17196TIP3   OH273002   4.450   3.191   1.204  0.4663  0.2132  0.1814
17196TIP3    H173003   4.462   3.277   1.243 -0.0605 -0.8142  2.8438
17196TIP3    H273004   4.369   3.197   1.154  1.0094  1.5243 -0.5677
17197TIP3   OH273005   0.011   1.411   3.084 -0.0509 -0.0864  0.5145
17197TIP3    H173006  -0.054   1.474   3.053 -2.0011 -1.5749  1.4199
17197TIP3    H273007  -0.039   1.332   3.105  1.9843 -1.1434  1.7144
17198TIP3   OH273008   5.053   5.252  11.646  0.2318 -0.1094  0.6602
17198TIP3    H173009   5.127   5.311  11.649  1.0460 -0.9903 -0.8131
17198TIP3    H273010   5.091   5.166  11.629 -1.1910 -0.2269 -2.7615
17199TIP3   OH273011   3.574   0.379   1.166 -0.7286 -0.3526 -0.0102
17199TIP3    H173012   3.488   0.418   1.181 -0.2689  0.6297  0.1169
17199TIP3    H273013   3.633   0.453   1.151 -0.0374 -1.0385 -0.8512
17200TIP3   OH273014   2.558   5.590  13.989  0.6017  0.2217 -0.0136
17200TIP3    H173015   2.623   5.520  14.001 -0.3811 -1.0065 -1.5896
17200TIP3    H273016   2.544   5.595  13.895 -0.2954  1.7186  0.1607
17201TIP3   OH273017   2.702   0.766  10.776  0.4526  0.1759  0.0640
17201TIP3    H173018   2.674   0.858  10.771  0.5496  0.2084  0.1001
17201TIP3    H273019   2.798   0.771  10.774  0.4895  0.1467  1.0246
17202TIP3   OH273020   4.476   4.641  13.050 -0.1588  0.2070 -0.3900
17202TIP3    H173021   4.461   4.594  12.968  1.7278  0.6473 -1.0318
17202TIP3    H273022   4.478   4.734  13.024  1.6029  0.2805 -0.0697
17203TIP3   OH273023   2.749   4.694  16.661  0.2599  0.4218 -0.0881
17203TIP3    H173024   2.721   4.626  16.722  1.6069 -0.0720  0.0140
17203TIP3    H273025   2.764   4.772  16.716 -1.4777  0.9016 -0.2312
17204TIP3   OH273026   3.400   4.409  11.274 -0.3707  0.4852  0.2626
17204TIP3    H173027   3.398   4.413  11.370 -3.2304  0.3265  0.3133
17204TIP3    H273028   3.405   4.500  11.247 -1.8390  0.7081  0.6426
17205TIP3   OH273029   6.435   0.211  11.619  0.0296  0.1081  0.3575
17205TIP3    H173030   6.474   0.149  11.556  1.9630 -0.0463  1.6242
17205TIP3    H273031   6.381   0.156  11.676  0.8516 -0.2722  0.7891
17206TIP3   OH273032   2.124   6.744   4.707 -0.5253  0.1192 -0.0328
17206TIP3    H173033   2.204   6.742   4.654  0.3469  0.5794  1.2240
17206TIP3    H273034   2.116   6.835   4.734 -0.5332 -0.2414  1.2246
17207TIP3   OH273035   1.039   3.059   1.089 -0.0702 -0.2073  0.3067
17207TIP3    H173036   1.079   2.996   1.149  0.4739  0.3651  0.5542
17207TIP3    H273037   1.074   3.035   1.003  0.8452  0.2883  0.5188
17208TIP3   OH273038   5.008   1.113   0.990 -0.2086  0.5683  0.2961
17208TIP3    H173039   5.021   1.030   0.945  0.8303  0.1107  1.3868
17208TIP3    H273040   5.000   1.090   1.082 -1.7078  1.5360  0.4577
17209TIP3   OH273041   1.698   5.124   5.236 -0.0372 -0.2006 -0.3464
17209TIP3    H173042   1.683   5.031   5.252 -2.3962  0.1595 -0.1814
17209TIP3    H273043   1.792   5.130   5.216  0.8548 -2.1581  2.6657
17210TIP3   OH273044   5.990   2.090   1.164  0.1267 -0.2988  0.3198
17210TIP3    H173045   5.976   2.181   1.138  0.9772 -0.9417 -2.7307
17210TIP3    H273046   6.006   2.095   1.258 -0.3170  2.6351  0.3488
17211TIP3   OH273047   6.233   4.748   5.104 -0.0872  0.3782  0.1102
17211TIP3    H173048   6.290   4.780   5.034 -0.0148 -1.4534 -0.7117
17211TIP3    H273049   6.153   4.800   5.094 -0.8587 -1.1314 -2.6606
17212TIP3   OH273050   0.389   3.777  11.912  0.5585 -0.5217  0.2040
17212TIP3    H173051   0.435   3.846  11.863 -0.4696 -0.4236 -0.6709
17212TIP3    H273052   0.418   3.696  11.871  0.9602 -0.5553  0.5419
17213TIP3   OH273053   0.041   1.696   0.789 -0.1924 -0.2106 -0.0158
17213TIP3    H173054   0.033   1.774   0.734  1.9059 -0.2304 -0.4098
17213TIP3    H273055   0.075   1.629   0.730 -1.4438 -1.2990  0.4536
17214TIP3   OH273056   3.103   3.465  11.653  0.0344 -0.4221 -0.1183
17214TIP3    H173057   3.086   3.418  11.734  1.2574 -1.2745 -0.3358
17214TIP3    H273058   3.098   3.558  11.677 -0.1284 -0.6662  0.8073
17215TIP3   OH273059   6.399   2.830  15.821 -0.2225 -0.0840  0.0069
17215TIP3    H173060   6.430   2.810  15.909  0.7324  0.7823 -0.1196
17215TIP3    H273061   6.347   2.910  15.832 -0.4455 -0.2050 -0.1583
17216TIP3   OH273062   3.728   0.161  13.986 -0.0120  0.0400 -0.1813
17216TIP3    H173063   3.817   0.124  13.983  0.4635  0.9646  1.3782
17216TIP3    H273064   3.733   0.229  14.052 -2.1010 -0.4222  0.5117
17217TIP3   OH273065   3.822   0.859  11.337  0.1546 -0.7042 -1.0418
17217TIP3    H173066   3.874   0.819  11.267  1.2167  0.1757 -0.7939
17217TIP3    H273067   3.801   0.947  11.305  1.6547  0.1560  0.1430
17218TIP3   OH273068   1.501   2.146  11.435  0.3760  1.2530  0.0585
17218TIP3    H173069   1.448   2.146  11.514 -0.8548 -1.7427 -0.6379
17218TIP3    H273070   1.446   2.187  11.369 -0.6385 -0.6533 -0.3420
17219TIP3   OH273071   0.070   4.558   4.254  0.6773 -0.5139  0.5108
17219TIP3    H173072   0.160   4.525   4.256 -0.2040 -3.1841  0.0084
17219TIP3    H273073   0.057   4.586   4.163  0.6293 -1.3389  0.2552
17220TIP3   OH273074   0.070   1.531   3.642  0.8292 -0.2483 -0.2429
17220TIP3    H173075   0.023   1.564   3.566  0.6371  0.7224  0.2857
17220TIP3    H273076   0.162   1.549   3.622  0.9680 -1.6367 -1.0243
17221TIP3   OH273077   0.012   5.523   1.778  0.6225 -0.0155 -0.1908
17221TIP3    H173078   0.058   5.453   1.731  0.2931 -0.4732  0.1593
17221TIP3    H273079   0.035   5.603   1.730 -0.3680 -0.5605 -1.6373
17222TIP3   OH273080   6.763   6.097  15.545 -0.2165  0.3169  0.0823
17222TIP3    H173081   6.695   6.089  15.478  1.0225 -1.7291 -1.0327
17222TIP3    H273082   6.726   6.156  15.610 -3.6124 -1.7588  0.2259
17223TIP3   OH273083   0.778   6.306   0.930 -0.3242 -0.3552  0.0517
17223TIP3    H173084   0.844   6.366   0.965  0.3309 -1.1014  0.1389
17223TIP3    H273085   0.826   6.252   0.868 -0.3088 -2.3449  1.6754
17224TIP3   OH273086   1.375   3.169   2.440  0.1638 -0.1971  0.3854
17224TIP3    H173087   1.341   3.080   2.444  1.1060 -0.6959 -1.3984
17224TIP3    H273088   1.301   3.223   2.413  0.1309 -0.8436 -0.8802
17225TIP3   OH273089   5.015   2.534   2.750 -0.0963  0.4796 -0.1883
17225TIP3    H173090   4.939   2.542   2.806 -0.3420 -0.5431 -0.3602
17225TIP3    H273091   4.989   2.576   2.668 -1.0228 -1.1274 -0.7580
17226TIP3   OH273092   5.124   0.710  16.072  0.5187  0.8791  0.3658
17226TIP3    H173093   5.050   0.692  16.129  1.7071 -1.0991  1.3732
17226TIP3    H273094   5.144   0.626  16.030  1.9259  1.4591 -0.2030
17227TIP3   OH273095   1.199   4.158   1.400  0.2003  0.2279  0.1117
17227TIP3    H173096   1.205   4.064   1.419 -0.0730  0.3221  0.6704
17227TIP3    H273097   1.132   4.190   1.460  1.8124  1.1821  1.5094
17228TIP3   OH273098   0.313   1.843   5.695  0.1599  0.3256 -0.3156
17228TIP3    H173099   0.236   1.789   5.678 -0.2856  0.5510  0.8693
17228TIP3    H273100   0.386   1.781   5.692 -0.2813 -0.2534  0.3971
17229TIP3   OH273101   0.033   1.663   5.910 -0.3545 -0.2030 -0.4226
17229TIP3    H173102  -0.061   1.644   5.910 -0.4938  0.2085  2.0294
17229TIP3    H273103   0.074   1.577   5.907 -0.8411 -0.4548 -0.0466
17230TIP3   OH273104   2.281   4.447   3.596 -0.2581  0.2839  0.0470
17230TIP3    H173105   2.352   4.490   3.644 -0.6121 -0.3356  1.1736
17230TIP3    H273106   2.204   4.500   3.616 -0.7651 -0.9715  1.7146
17231TIP3   OH273107   0.943   3.402   1.561 -0.8446 -0.4439  0.0234
17231TIP3    H173108   0.942   3.362   1.648  0.3716  1.0617  0.7732
17231TIP3    H273109   0.859   3.379   1.523 -0.3920 -3.3365  0.5485
17232TIP3   OH273110   5.882   0.921   1.260  0.3347 -0.1197  0.2429
17232TIP3    H173111   5.830   0.928   1.180 -0.5246 -1.2650  0.6810
17232TIP3    H273112   5.875   1.007   1.301 -1.6940 -0.3887  0.5634
17233TIP3   OH273113   1.205   4.337  11.085  0.0266  0.0510 -0.6539
17233TIP3    H173114   1.213   4.270  11.018  0.2172  0.0756 -0.6559
17233TIP3    H273115   1.253   4.302  11.160  0.6942  0.4763 -0.8798
17234TIP3   OH273116   5.055   2.224   6.779 -0.1940 -0.1195  0.3263
17234TIP3    H173117   5.034   2.292   6.843  0.0206 -0.7493  1.0911
17234TIP3    H273118   5.141   2.192   6.806 -0.2092 -0.5568 -0.1333
17235TIP3   OH273119   4.243   2.284   4.851  0.1233  0.2261  0.3034
17235TIP3    H173120   4.212   2.198   4.880  1.5696  0.3257  2.3026
17235TIP3    H273121   4.179   2.310   4.784  0.3036 -2.8945 -1.2748
17236TIP3   OH273122   4.403   1.667   5.506 -0.2819 -0.1268 -0.5301
17236TIP3    H173123   4.357   1.627   5.432  0.0682  1.3701 -1.5977
17236TIP3    H273124   4.411   1.759   5.482  1.8757 -0.0411  0.3554
17237TIP3   OH273125   2.696   2.881  11.511  0.1689  0.4459  0.5624
17237TIP3    H173126   2.643   2.803  11.492  2.8250 -1.1501 -0.9895
17237TIP3    H273127   2.681   2.939  11.436 -0.3190  0.5533  0.7429
17238TIP3   OH273128   2.694   5.024   3.471 -0.4731  0.0345 -0.0959
17238TIP3    H173129   2.747   4.944   3.479  0.4553  0.5250 -1.1479
17238TIP3    H273130   2.657   5.019   3.383 -1.6566  0.0312  0.3844
17239TIP3   OH273131   0.201   4.068   1.620 -0.4092  0.0272 -0.1075
17239TIP3    H173132   0.166   4.157   1.627 -0.3929  0.1516 -1.3948
17239TIP3    H273133   0.187   4.044   1.528 -0.4725 -1.3287  0.2360
17240TIP3   OH273134   3.618   1.708   0.269  0.3068 -0.5107 -0.3222
17240TIP3    H173135   3.693   1.699   0.209  1.6915  0.8770  1.1103
17240TIP3    H273136   3.649   1.670   0.351 -0.7053 -0.2478  0.1892
17241TIP3   OH273137   5.690   0.882   3.491 -0.0744  0.1477  0.1244
17241TIP3    H173138   5.781   0.855   3.478  0.1327  0.3948  1.0062
17241TIP3    H273139   5.687   0.912   3.582 -1.3650 -1.1913  0.5540
17242TIP3   OH273140   0.262   2.348   4.482  1.2330 -0.7400  0.0202
17242TIP3    H173141   0.190   2.385   4.431  0.7048  0.0321  1.2777
17242TIP3    H273142   0.221   2.283   4.539  1.7781 -1.4046 -0.3226
17243TIP3   OH273143   5.518   1.377  12.848  0.2859 -0.1216  0.0917
17243TIP3    H173144   5.458   1.302  12.845 -1.6472  1.3053  0.9083
17243TIP3    H273145   5.604   1.340  12.826 -0.7682 -2.3660 -0.5456
17244TIP3   OH273146   3.057   2.815   0.183  0.6887  0.1705 -0.3366
17244TIP3    H173147   2.999   2.751   0.224  0.9059 -1.4403 -2.3442
17244TIP3    H273148   3.094   2.865   0.255 -1.1087 -0.5746  1.1704
17245TIP3   OH273149   6.782   0.090  15.251 -0.1829  0.4969 -0.1999
17245TIP3    H173150   6.864   0.092  15.301 -1.1013  1.9225  1.3451
17245TIP3    H273151   6.714   0.074  15.316 -1.3583  1.6581 -1.0855
17246TIP3   OH273152   3.031   4.828   5.260  0.1192 -0.3436 -0.2746
17246TIP3    H173153   2.939   4.807   5.240 -0.2335  1.1683 -0.3479
17246TIP3    H273154   3.041   4.803   5.352 -0.7416  0.5910  0.1010
17247TIP3   OH273155   6.763   2.453  14.386  0.3463 -0.8529 -0.0609
17247TIP3    H173156   6.804   2.409  14.461 -0.8049 -0.3893  0.8791
17247TIP3    H273157   6.807   2.537  14.380  0.6516 -1.0140 -0.1057
17248TIP3   OH273158   3.566   5.372  12.374  0.1708  0.1192 -0.6596
17248TIP3    H173159   3.488   5.386  12.428 -0.7693 -1.4298 -1.5446
17248TIP3    H273160   3.637   5.360  12.437 -0.3208  1.3499  0.1629
17249TIP3   OH273161   1.352   4.870  14.956  0.1861  0.7477  0.4565
17249TIP3    H173162   1.416   4.852  14.887  0.7638 -0.0087  1.1701
17249TIP3    H273163   1.389   4.944  15.005  0.1621  0.7796  0.4253
17250TIP3   OH273164   2.841   2.743  10.563  0.3021 -0.1768  0.3676
17250TIP3    H173165   2.914   2.785  10.609  0.3787 -0.8542  0.8799
17250TIP3    H273166   2.763   2.778  10.606  0.3367  0.1891  0.1349
17251TIP3   OH273167   2.522   5.655  15.099 -0.3470 -0.0969  0.0774
17251TIP3    H173168   2.614   5.679  15.089  0.0688 -1.2696  0.8462
17251TIP3    H273169   2.504   5.667  15.192 -0.8325 -0.3422  0.0192
17252TIP3   OH273170   4.819   2.591  13.699 -0.1726  0.2340  0.1807
17252TIP3    H173171   4.809   2.653  13.627  1.4593  1.1806  0.7246
17252TIP3    H273172   4.730   2.556  13.713 -1.1812  2.4931 -0.0998
17253TIP3   OH273173   6.489   0.796   4.445 -0.5973  0.0590  0.0171
17253TIP3    H173174   6.417   0.739   4.472 -1.9864  1.6537 -0.1958
17253TIP3    H273175   6.461   0.832   4.361 -0.6856  2.5257  1.0146
17254TIP3   OH273176   0.334   4.102  10.658 -0.3430  0.6226 -0.2442
17254TIP3    H173177   0.341   4.006  10.663 -0.7623  0.5774 -0.4447
17254TIP3    H273178   0.382   4.126  10.579 -1.5940  0.4104 -1.0993
17255TIP3   OH273179   0.509   2.772  16.864  0.2998 -0.7228  0.3622
17255TIP3    H173180   0.418   2.789  16.888  0.9244 -0.3957  2.7264
17255TIP3    H273181   0.517   2.806  16.775 -1.2936  1.4063  0.9647
17256TIP3   OH273182   3.411   3.939  17.254 -0.0772  0.2628 -0.3762
17256TIP3    H173183   3.487   3.966  17.202 -0.8064 -2.3418 -3.0527
17256TIP3    H273184   3.337   3.984  17.213 -0.2992  0.9448  0.7307
17257TIP3   OH273185   2.008   2.568  15.026  0.0179  0.4073  0.5486
17257TIP3    H173186   2.040   2.627  15.094 -1.1055  0.0221  1.4408
17257TIP3    H273187   1.993   2.485  15.070  1.9132 -0.7285 -0.7622
17258TIP3   OH273188   1.602   4.580  15.702 -1.1439  0.9668  0.1884
17258TIP3    H173189   1.529   4.642  15.715 -0.5357  1.3920  1.8990
17258TIP3    H273190   1.676   4.621  15.747  0.5354  1.1189 -2.5060
17259TIP3   OH273191   0.774   2.232   3.094  0.3879  0.1221  0.5333
17259TIP3    H173192   0.761   2.145   3.132 -1.7872  0.5832  0.9927
17259TIP3    H273193   0.863   2.231   3.059 -0.3701 -3.1505 -1.7055
17260TIP3   OH273194   0.561   0.332   5.335 -0.0109  0.0229 -0.2572
17260TIP3    H173195   0.499   0.405   5.337  2.2704  2.1016 -1.0445
17260TIP3    H273196   0.586   0.320   5.427 -0.7545 -0.1353 -0.0642
17261TIP3   OH273197   4.651   0.544   4.758 -0.2957  0.3878 -0.5608
17261TIP3    H173198   4.690   0.472   4.708 -2.0666 -0.4931 -0.7474
17261TIP3    H273199   4.673   0.524   4.849 -1.4319 -0.8778 -0.5249
17262TIP3   OH273200   5.478   4.267   5.999 -0.4684  0.9312  0.5017
17262TIP3    H173201   5.554   4.325   6.004 -0.2965  0.6226  2.9344
17262TIP3    H273202   5.507   4.187   6.043 -0.8084 -0.9585 -2.4451
17263TIP3   OH273203   3.177   4.285  16.194 -0.2750  0.1180 -0.2145
17263TIP3    H173204   3.127   4.366  16.200 -0.0283  0.2782 -0.2921
17263TIP3    H273205   3.144   4.242  16.115 -0.3155  0.2084 -0.2470
17264TIP3   OH273206   0.228   2.623   4.179  0.0087 -0.3048 -0.1599
17264TIP3    H173207   0.323   2.624   4.174  0.0246 -0.9525 -0.0698
17264TIP3    H273208   0.200   2.705   4.136  0.6291  0.2489  0.4672
17265TIP3   OH273209   5.199   3.628  14.136  0.5050 -0.2337 -0.3055
17265TIP3    H173210   5.205   3.694  14.205  0.8127  0.0421 -0.5953
17265TIP3    H273211   5.229   3.672  14.057 -2.1907  0.2604 -1.1843
17266TIP3   OH273212   6.434   2.549   1.803  0.1345  0.5493  0.7040
17266TIP3    H173213   6.463   2.594   1.882  0.8387  1.0648  0.1673
17266TIP3    H273214   6.444   2.614   1.733 -1.9063  0.6220  0.3964
17267TIP3   OH273215   1.037   4.401  14.499 -0.6158  0.1318  0.0539
17267TIP3    H173216   1.108   4.347  14.464  0.3126  0.6972  1.0075
17267TIP3    H273217   0.980   4.340  14.546  0.2787 -0.0744  0.8994
17268TIP3   OH273218   6.069   3.742  14.032  0.1391 -0.0713 -0.3150
17268TIP3    H173219   6.083   3.787  14.116 -1.3098  0.8119 -0.5104
17268TIP3    H273220   6.035   3.656  14.057 -0.4998  0.2685  0.0134
17269TIP3   OH273221   5.175   6.453   3.339  0.3366  0.0682 -0.2382
17269TIP3    H173222   5.086   6.485   3.352 -0.3149 -1.4530 -0.6714
17269TIP3    H273223   5.186   6.387   3.408  0.8140 -0.3325 -0.6903
17270TIP3   OH273224   4.398   4.373   4.846  0.1513  0.2977 -0.5103
17270TIP3    H173225   4.417   4.350   4.937  0.3507  0.0564 -0.6121
17270TIP3    H273226   4.405   4.468   4.844  1.5071  0.2189 -0.5719
17271TIP3   OH273227   5.634   5.266  14.897  0.3458  0.1628 -0.3095
17271TIP3    H173228   5.714   5.234  14.855 -0.6633 -0.7062 -1.6507
17271TIP3    H273229   5.611   5.346  14.849  0.0469  0.0350 -0.3843
17272TIP3   OH273230   4.136   2.097   5.263 -0.2387 -0.4839  0.9055
17272TIP3    H173231   4.202   2.113   5.331  0.8915 -0.3323 -0.1949
17272TIP3    H273232   4.124   2.182   5.221  1.0618 -1.0994 -0.8076
17273TIP3   OH273233   4.889   0.205  14.537 -0.7393 -0.4358 -0.2394
17273TIP3    H173234   4.845   0.168  14.614  0.2095 -0.5354  0.2727
17273TIP3    H273235   4.955   0.139  14.514  2.6171  1.7713  2.1005
17274TIP3   OH273236   5.490   6.258  12.334 -0.3153 -0.6066 -0.5405
17274TIP3    H173237   5.525   6.170  12.336 -3.4574 -2.0467 -1.4467
17274TIP3    H273238   5.409   6.253  12.386 -0.0252  2.0527  0.3215
17275TIP3   OH273239   5.087   5.234  16.527  0.8531  0.2450 -0.6588
17275TIP3    H173240   5.003   5.203  16.494 -0.2661  1.9555  0.4606
17275TIP3    H273241   5.114   5.167  16.590 -1.6112  1.4543  1.8663
17276TIP3   OH273242   0.222   5.804   5.020  0.4089  0.2517  0.0837
17276TIP3    H173243   0.315   5.799   5.002  0.6732 -1.3123  1.5454
17276TIP3    H273244   0.216   5.810   5.115 -0.9781  0.2816  0.0191
17277TIP3   OH273245   2.517   3.361  16.852 -0.3624 -0.6018  0.6504
17277TIP3    H173246   2.503   3.408  16.934  0.1198 -0.1903  0.5030
17277TIP3    H273247   2.512   3.429  16.784  1.1166 -0.6038  0.4927
17278TIP3   OH273248   2.115   0.822   3.358 -0.3902 -0.2895  1.2307
17278TIP3    H173249   2.129   0.753   3.293  1.6793 -0.8604  2.1894
17278TIP3    H273250   2.155   0.788   3.438  0.6616  1.9953  1.7530
17279TIP3   OH273251   3.579   5.658   0.013  0.0761  0.4004 -0.1602
17279TIP3    H173252   3.535   5.629   0.093  0.7478  1.4806  0.6402
17279TIP3    H273253   3.509   5.692  -0.042 -0.1803  1.8253  0.9721
17280TIP3   OH273254   2.507   0.485  16.833 -0.2181  0.3883 -0.3034
17280TIP3    H173255   2.473   0.396  16.841  2.3603 -0.5221  2.4336
17280TIP3    H273256   2.447   0.538  16.886 -0.5417 -0.1300 -0.1413
17281TIP3   OH273257   0.049   4.421  13.051  0.0333  0.2327 -0.4326
17281TIP3    H173258   0.023   4.331  13.075  0.1919 -0.4269 -2.5387
17281TIP3    H273259  -0.030   4.458  13.010 -0.6916  1.8303  2.1594
17282TIP3   OH273260   5.844   4.775  12.384 -0.1486  0.1570 -0.6824
17282TIP3    H173261   5.884   4.766  12.471 -2.3713 -0.6748  0.3379
17282TIP3    H273262   5.887   4.709  12.330 -0.4283 -1.0235  0.4921
17283TIP3   OH273263   0.484   5.865   0.406 -0.3952 -0.0911  0.0945
17283TIP3    H173264   0.555   5.869   0.469  0.2612 -2.1444 -0.4356
17283TIP3    H273265   0.509   5.926   0.337  0.2814  0.0566  0.4687
17284TIP3   OH273266   4.895   5.607   2.442  0.0520  0.1455 -0.7264
17284TIP3    H173267   4.940   5.605   2.526  0.2025  2.1398 -0.7265
17284TIP3    H273268   4.958   5.569   2.381  0.7017  0.4686 -0.2696
17285TIP3   OH273269   5.568   3.015  14.441  0.4158  0.5143  0.5500
17285TIP3    H173270   5.561   3.109  14.423 -0.7838  0.1499 -1.1043
17285TIP3    H273271   5.658   3.004  14.472  0.1320  2.4118  2.3069
17286TIP3   OH273272   6.442   6.128   1.732 -0.5199 -0.1860  0.5228
17286TIP3    H173273   6.521   6.174   1.703 -0.2361 -0.9764  0.0083
17286TIP3    H273274   6.421   6.167   1.817  0.3230  0.1516  0.5815
17287TIP3   OH273275   1.289   5.938   1.541  0.8127 -0.3092  0.5370
17287TIP3    H173276   1.291   5.990   1.621  1.0177 -1.3647  1.2377
17287TIP3    H273277   1.276   5.848   1.571 -2.6077 -0.4084 -0.7447
17288TIP3   OH273278   5.092   0.409   5.768  0.1442 -0.4522  0.5689
17288TIP3    H173279   5.001   0.383   5.756  0.5030 -1.4253 -0.2093
17288TIP3    H273280   5.094   0.454   5.853 -1.0733 -0.3186  0.5327
17289TIP3   OH273281   4.690   1.118   5.524  0.1839 -0.0521 -0.1507
17289TIP3    H173282   4.599   1.143   5.534  0.3291  0.1134  0.8248
17289TIP3    H273283   4.689   1.023   5.513 -0.1625  0.0478 -1.1261
17290TIP3   OH273284   5.228   0.621  11.480 -0.3144 -0.3516  0.1926
17290TIP3    H173285   5.204   0.667  11.399 -0.1983  0.3078  0.5237
17290TIP3    H273286   5.172   0.543  11.481 -1.3107  0.3448  0.1525
17291TIP3   OH273287   3.302   3.931  11.577 -0.2789  0.3617 -0.1214
17291TIP3    H173288   3.347   3.951  11.495  0.0675  3.0276  0.6480
17291TIP3    H273289   3.358   3.865  11.619 -0.4694 -1.0553 -1.9641
17292TIP3   OH273290   1.145   5.836  11.340 -0.4673  0.2239  0.0494
17292TIP3    H173291   1.065   5.783  11.347  0.8765 -1.7845  1.3425
17292TIP3    H273292   1.206   5.782  11.289  1.1758  0.1339  1.9757
17293TIP3   OH273293   3.267   4.738  12.350 -0.3108 -0.3628 -0.5004
17293TIP3    H173294   3.297   4.668  12.292 -0.2969  0.4899 -1.5655
17293TIP3    H273295   3.187   4.770  12.309 -1.1549 -0.7410  0.7958
17294TIP3   OH273296   5.717   0.480   6.044  0.2107 -0.1619 -0.1658
17294TIP3    H173297   5.717   0.387   6.065  1.0431 -0.0354  0.4556
17294TIP3    H273298   5.809   0.507   6.054 -0.1268  0.8629  0.3542
17295TIP3   OH273299   3.010   4.499  16.231  0.2074 -0.4158 -0.4212
17295TIP3    H173300   2.918   4.524  16.223  0.7742  2.0194 -0.0475
17295TIP3    H273301   3.033   4.520  16.321  1.0408 -1.4287 -0.3802
17296TIP3   OH273302   2.823   0.060  12.488  0.2946  0.0651 -0.1928
17296TIP3    H173303   2.765  -0.015  12.478  1.3701 -0.7632 -0.3573
17296TIP3    H273304   2.765   0.136  12.484 -0.8513 -0.7574  0.2659
17297TIP3   OH273305   0.540   4.609  14.977 -0.5642 -0.4685  0.1205
17297TIP3    H173306   0.525   4.545  14.907  1.0068  1.4394 -2.1560
17297TIP3    H273307   0.462   4.664  14.976  0.0241  0.4094 -1.2228
17298TIP3   OH273308   5.098   4.706   4.588  0.7353 -0.0457 -0.1457
17298TIP3    H173309   5.087   4.621   4.545  1.6241 -0.0998 -0.2767
17298TIP3    H273310   5.079   4.689   4.680 -1.5275  0.1387 -0.5038
17299TIP3   OH273311   5.887   2.704   2.095 -0.3607  0.1215  0.7351
17299TIP3    H173312   5.883   2.774   2.160  0.0632 -2.0420  3.2597
17299TIP3    H273313   5.974   2.665   2.107 -1.0350 -1.6166  0.3187
17300TIP3   OH273314   2.472   2.797  15.995 -1.0377  0.4380  1.0537
17300TIP3    H173315   2.528   2.852  15.940  0.4952  0.6983  2.7628
17300TIP3    H273316   2.407   2.761  15.935  2.1906 -1.5873 -1.5813
17301TIP3   OH273317   1.817   5.661   2.449 -0.1456 -0.2258  0.0777
17301TIP3    H173318   1.747   5.724   2.428 -1.9313 -1.8064  0.9600
17301TIP3    H273319   1.848   5.687   2.535 -0.3098 -0.0919  0.0972
17302TIP3   OH273320   1.520   2.595  13.860 -0.5743 -0.1448  0.0346
17302TIP3    H173321   1.544   2.512  13.818 -0.4408  1.2865 -2.9582
17302TIP3    H273322   1.587   2.657  13.831 -0.0216  0.8876  3.0858
17303TIP3   OH273323   5.498   3.560  11.503 -0.0266  0.2590 -0.2514
17303TIP3    H173324   5.452   3.603  11.431 -1.2393  0.5918  0.6732
17303TIP3    H273325   5.540   3.484  11.464 -0.9261  0.2606 -1.2565
17304TIP3   OH273326   6.772   4.950   0.242 -0.1589 -0.0776 -0.0908
17304TIP3    H173327   6.827   5.021   0.272  1.7163  0.2707 -3.8190
17304TIP3    H273328   6.682   4.981   0.256  0.5576  1.1845  2.1273
17305TIP3   OH273329   1.973   6.550   2.192  0.3403 -0.3134  0.2136
17305TIP3    H173330   1.972   6.517   2.102  0.8124  0.0127  0.0812
17305TIP3    H273331   1.892   6.600   2.200 -0.2892 -1.3335  0.3590
17306TIP3   OH273332   1.711   0.907   0.663 -0.3354 -0.1208  0.5185
17306TIP3    H173333   1.622   0.925   0.694 -0.7063  0.5967 -0.8497
17306TIP3    H273334   1.747   0.846   0.727 -1.2810  0.7136  1.9099
17307TIP3   OH273335   1.729   4.819  14.250  0.4104 -0.1458  0.1244
17307TIP3    H173336   1.727   4.859  14.164 -0.5232 -0.0825  0.1687
17307TIP3    H273337   1.779   4.880  14.304  0.0335  0.3599 -0.0998
17308TIP3   OH273338   4.555   2.680   3.699  0.2164 -0.4273  0.0735
17308TIP3    H173339   4.543   2.592   3.734 -0.5391  0.3414  1.8278
17308TIP3    H273340   4.472   2.724   3.716  0.5432  0.6040 -0.8832
17309TIP3   OH273341   2.234   4.215  14.352  0.0006 -0.5013 -0.4870
17309TIP3    H173342   2.236   4.126  14.316 -0.4345 -0.7041 -0.0151
17309TIP3    H273343   2.184   4.266  14.287 -0.4965 -0.7923 -0.3382
17310TIP3   OH273344   3.274   1.473  11.783  0.0657  0.2678 -0.2364
17310TIP3    H173345   3.253   1.413  11.711  0.9284  0.5715 -0.7512
17310TIP3    H273346   3.264   1.560  11.746 -1.5737  0.4793  0.6258
17311TIP3   OH273347   1.721   6.754   2.839 -0.0020 -0.0916  0.0426
17311TIP3    H173348   1.721   6.660   2.822  0.0173  0.0547 -0.8486
17311TIP3    H273349   1.660   6.767   2.911  0.6404 -0.8818  0.7367
17312TIP3   OH273350   0.321   0.992   5.219 -0.2733 -0.1672 -0.5386
17312TIP3    H173351   0.282   0.918   5.265  0.1038  0.2330  0.4479
17312TIP3    H273352   0.246   1.048   5.196 -0.4517 -0.2963 -0.2739
17313TIP3   OH273353   0.411   4.179  15.353 -0.3027  0.2733  0.3156
17313TIP3    H173354   0.353   4.231  15.409 -0.9834  1.2080 -1.1671
17313TIP3    H273355   0.397   4.215  15.265  1.0144 -0.8628 -0.3994
17314TIP3   OH273356   0.973   3.131   5.617  0.7008 -0.1493 -0.0090
17314TIP3    H173357   0.884   3.159   5.597 -0.8068 -1.7501  3.5873
17314TIP3    H273358   0.988   3.056   5.559  0.0222  0.5643 -1.1400
17315TIP3   OH273359   3.099   3.379  12.858  0.0890  0.6882  0.1743
17315TIP3    H173360   3.166   3.351  12.920  0.0849  0.0333 -0.0990
17315TIP3    H273361   3.062   3.297  12.825  1.3110  0.9517 -2.0133
17316TIP3   OH273362   6.068   3.488   3.792 -0.6459 -0.2045  0.1477
17316TIP3    H173363   6.158   3.460   3.776 -1.7391 -4.0568 -0.3368
17316TIP3    H273364   6.073   3.583   3.796  2.8464  0.0282 -3.5115
17317TIP3   OH273365   2.858   0.367  15.038 -0.0780  0.3110 -0.1921
17317TIP3    H173366   2.872   0.292  15.097  0.1984  0.1270 -0.4876
17317TIP3    H273367   2.785   0.414  15.077  0.9039  0.9071  1.0217
17318TIP3   OH273368   0.234   4.826  13.774 -0.1244 -0.0334 -0.0882
17318TIP3    H173369   0.243   4.914  13.810 -0.4146  0.3343 -0.9038
17318TIP3    H273370   0.146   4.823  13.736  0.3319 -0.2387 -1.1842
17319TIP3   OH273371   4.505   2.813  12.899  0.1606  0.0311 -0.2878
17319TIP3    H173372   4.583   2.797  12.846 -0.8925  0.3278 -2.0467
17319TIP3    H273373   4.518   2.761  12.978  1.0726 -1.8577 -1.5944
17320TIP3   OH273374   3.354   1.369   5.013 -0.1113  0.6285 -0.3572
17320TIP3    H173375   3.345   1.275   5.033  0.7144  0.4869 -0.5899
17320TIP3    H273376   3.298   1.383   4.937 -0.1147  0.2801 -0.4217
17321TIP3   OH273377   3.346   3.199  11.451  0.1822  0.0168 -0.4423
17321TIP3    H173378   3.345   3.292  11.475  1.7783  0.1007 -0.5568
17321TIP3    H273379   3.260   3.166  11.477  0.1191  1.1997  0.9792
17322TIP3   OH273380   2.104   6.326   5.413  0.0660 -0.3491  0.6384
17322TIP3    H173381   2.117   6.381   5.335  0.5596 -0.8260  0.3773
17322TIP3    H273382   2.178   6.266   5.412 -0.9180 -1.5910  0.4377
17323TIP3   OH273383   2.583   1.273   5.543  0.3870 -0.0538  0.2345
17323TIP3    H173384   2.529   1.346   5.574  0.1943 -0.1155  0.0447
17323TIP3    H273385   2.580   1.280   5.448 -0.8009 -1.1580  0.1696
17324TIP3   OH273386   2.576   3.993   5.754 -0.1049 -0.2865 -0.1671
17324TIP3    H173387   2.618   3.952   5.830  1.9635  1.5230 -0.2310
17324TIP3    H273388   2.563   3.921   5.692  2.3914 -1.0949  0.1341
17325TIP3   OH273389   3.884   5.871  13.703  0.1413  0.0953 -0.5852
17325TIP3    H173390   3.878   5.835  13.614  2.2171 -1.6138 -0.1271
17325TIP3    H273391   3.868   5.796  13.760  0.6011  0.7759  0.4689
17326TIP3   OH273392   4.436   4.989  11.936 -0.0690 -0.0682 -0.0505
17326TIP3    H173393   4.465   4.938  12.012 -0.4003 -0.3422 -0.1083
17326TIP3    H273394   4.479   5.074  11.948  0.8360 -0.4918 -0.1867
17327TIP3   OH273395   2.744   6.341  16.790 -0.0727  0.6050 -0.7498
17327TIP3    H173396   2.715   6.430  16.772 -0.1015  0.6323 -0.5650
17327TIP3    H273397   2.836   6.340  16.761  0.0616  0.8210 -0.3424
17328TIP3   OH273398   0.537   3.567  13.979 -0.2679  0.4965  0.1353
17328TIP3    H173399   0.559   3.644  13.926  0.5657  0.5092  0.4841
17328TIP3    H273400   0.585   3.495  13.938 -0.1561  0.3790  0.4696
17329TIP3   OH273401   6.548   6.445  12.738  0.7418 -0.6315  0.0871
17329TIP3    H173402   6.600   6.525  12.747 -0.7774  0.3168  1.0292
17329TIP3    H273403   6.570   6.393  12.816  1.1915 -0.8111 -0.1562
17330TIP3   OH273404   3.591   2.026   3.898  0.2674 -0.4786  0.1294
17330TIP3    H173405   3.624   2.100   3.949 -0.3686  0.3963 -0.6670
17330TIP3    H273406   3.510   2.059   3.859 -0.0335 -1.6122 -0.2454
17331TIP3   OH273407   0.723   4.819   4.531 -0.1170  0.3214  0.2307
17331TIP3    H173408   0.780   4.865   4.470 -0.9800  1.4497  0.2473
17331TIP3    H273409   0.697   4.885   4.596  1.2584 -0.9745  2.2192
17332TIP3   OH273410   0.506   6.571  13.033  0.5242  0.0592  0.0648
17332TIP3    H173411   0.518   6.660  13.001 -0.4849 -0.3089 -1.4745
17332TIP3    H273412   0.482   6.581  13.125  3.1677  1.1957  0.7275
17333TIP3   OH273413   4.976   5.544   6.332 -0.3572 -0.0940  0.0832
17333TIP3    H173414   4.984   5.564   6.425 -0.1620 -0.7898  0.2269
17333TIP3    H273415   4.883   5.558   6.312 -0.5513 -0.6538  0.5630
17334TIP3   OH273416   1.856   1.008   1.480 -0.3947  0.4937  0.4482
17334TIP3    H173417   1.830   1.097   1.500 -1.1578  0.3527  0.1246
17334TIP3    H273418   1.824   0.956   1.554  2.6004  0.8296  2.1429
17335TIP3   OH273419   6.386   6.019   0.551 -0.0222  0.0086 -0.0368
17335TIP3    H173420   6.378   6.114   0.539 -2.3628 -0.2572 -1.2532
17335TIP3    H273421   6.448   5.991   0.484 -0.0017  0.5885 -0.2662
17336TIP3   OH273422   1.776   0.940   1.083  0.3800 -0.1002 -0.1322
17336TIP3    H173423   1.816   1.025   1.066 -1.7368  0.8449 -0.7850
17336TIP3    H273424   1.841   0.892   1.134  0.9747  2.5335  1.7917
17337TIP3   OH273425   3.592   3.134  15.234  0.3407  0.4148 -0.1528
17337TIP3    H173426   3.535   3.081  15.291 -0.1186 -0.1332 -1.0962
17337TIP3    H273427   3.666   3.157  15.290  0.8938 -1.8099  0.1374
17338TIP3   OH273428   3.700   2.286  15.871 -0.2236  0.5716  0.4434
17338TIP3    H173429   3.733   2.374  15.886  0.1015  0.0764  3.0191
17338TIP3    H273430   3.613   2.285  15.913 -0.8873  0.0779 -0.8757
17339TIP3   OH273431   3.739   3.465  11.486 -0.1338  0.1520 -0.4538
17339TIP3    H173432   3.748   3.553  11.450  3.2097  0.0870 -0.0596
17339TIP3    H273433   3.755   3.476  11.580 -1.1611 -0.7045 -0.1613
17340TIP3   OH273434   3.660   5.323  12.870 -0.6319  0.8561 -0.3491
17340TIP3    H173435   3.748   5.284  12.873 -0.8687  0.2113 -1.2444
17340TIP3    H273436   3.675   5.417  12.870  0.0759  0.7493 -0.8388
17341TIP3   OH273437   2.969   6.502   1.953  0.6143 -0.0064 -0.4174
17341TIP3    H173438   2.903   6.562   1.988 -1.3252 -0.2972 -3.1778
17341TIP3    H273439   3.026   6.483   2.027 -1.7771  1.1077  1.8967
17342TIP3   OH273440   5.880   3.988   0.834  0.1943 -0.5165  0.4777
17342TIP3    H173441   5.946   3.982   0.765  1.3576 -2.2807  1.6537
17342TIP3    H273442   5.830   3.907   0.826 -0.9419  0.1717  0.4786
17343TIP3   OH273443   1.257   0.321   0.203 -0.2448  0.1044  0.2578
17343TIP3    H173444   1.181   0.345   0.257  0.8731  5.6764 -0.1294
17343TIP3    H273445   1.229   0.340   0.113  1.2630  1.4681  0.0392
17344TIP3   OH273446   4.828   3.761  14.803  0.4513 -0.2381 -0.1657
17344TIP3    H173447   4.787   3.744  14.887 -1.2060 -3.1666 -1.4259
17344TIP3    H273448   4.897   3.695  14.795  1.2376  0.6239 -0.7250
17345TIP3   OH273449   3.919   1.937   0.844  0.2830  0.2781  0.2353
17345TIP3    H173450   3.998   1.981   0.873 -0.3373  1.7188 -0.1815
17345TIP3    H273451   3.908   1.865   0.906  2.2943 -0.4099 -0.1368
17346TIP3   OH273452   2.041   0.480  16.946  0.7378 -0.0849 -0.4867
17346TIP3    H173453   2.116   0.420  16.947  0.9190 -0.0062 -3.0129
17346TIP3    H273454   1.967   0.424  16.920  0.1739  0.1236  0.6111
17347TIP3   OH273455   1.583   4.266  15.652  0.6408 -0.1519 -0.0042
17347TIP3    H173456   1.666   4.237  15.614  1.3006  0.6129  0.8009
17347TIP3    H273457   1.606   4.344  15.703 -0.6539  0.3484 -0.1412
17348TIP3   OH273458   1.269   2.623  16.791 -0.1013 -0.0519 -0.3126
17348TIP3    H173459   1.277   2.659  16.703 -0.5442 -0.1885 -0.4118
17348TIP3    H273460   1.188   2.662  16.825  0.1991  0.1935  0.1255
17349TIP3   OH273461   6.634   2.608   0.380  0.0825 -0.2172 -0.1385
17349TIP3    H173462   6.701   2.585   0.316  1.4650 -0.0946  1.2089
17349TIP3    H273463   6.589   2.526   0.398  0.8989 -0.6301  0.0714
17350TIP3   OH273464   2.409   2.055   3.524 -0.2697 -0.4943  0.5547
17350TIP3    H173465   2.429   1.985   3.462  0.9542 -0.7895  1.2527
17350TIP3    H273466   2.399   2.010   3.608 -1.7092 -0.0758  0.6313
17351TIP3   OH273467   3.036   2.448   3.319 -0.0062  0.0438  0.3300
17351TIP3    H173468   3.117   2.477   3.359 -0.0066 -0.1643  0.4831
17351TIP3    H273469   3.027   2.356   3.346 -0.4047  0.1300  0.5061
17352TIP3   OH273470   6.363   1.478  11.442 -0.3388  0.1442 -0.0424
17352TIP3    H173471   6.349   1.504  11.351  0.7748 -0.5399 -0.4276
17352TIP3    H273472   6.320   1.547  11.493 -1.5290  0.2090 -1.0747
17353TIP3   OH273473   1.512   0.424  12.317  0.2882 -0.2037 -0.6411
17353TIP3    H173474   1.432   0.424  12.266  1.4393  0.7722 -2.5740
17353TIP3    H273475   1.498   0.357  12.384 -2.5321  0.7058 -0.1990
17354TIP3   OH273476   2.158   3.081  11.344  0.2071 -0.0676 -0.3275
17354TIP3    H173477   2.134   3.044  11.259 -0.5059 -0.3193 -0.0219
17354TIP3    H273478   2.076   3.115  11.380  0.2090 -1.3110  0.9131
17355TIP3   OH273479   5.968   0.616  13.883  0.1123 -0.4686  0.1599
17355TIP3    H173480   5.959   0.588  13.792  1.7168 -2.3557  0.5206
17355TIP3    H273481   6.020   0.547  13.924  0.6508  1.0564  2.1782
17356TIP3   OH273482   3.449   3.206   2.842 -0.2631 -0.2959  0.1771
17356TIP3    H173483   3.418   3.249   2.922  3.8815  2.3513  0.6724
17356TIP3    H273484   3.493   3.127   2.872 -0.3686 -0.3199  0.2698
17357TIP3   OH273485   6.499   0.523   2.881 -0.2980  0.1494  0.3784
17357TIP3    H173486   6.471   0.564   2.799 -0.4121 -1.1519 -0.2604
17357TIP3    H273487   6.464   0.580   2.950 -1.1504  0.6556 -0.4599
17358TIP3   OH273488   0.845   1.946   2.765  0.8349 -0.1065  0.0315
17358TIP3    H173489   0.758   1.983   2.780  0.8171 -0.3716  0.6144
17358TIP3    H273490   0.902   2.023   2.755  0.3878  0.0720 -1.3334
17359TIP3   OH273491   3.508   4.081   2.066 -0.5110 -0.6488 -0.3828
17359TIP3    H173492   3.430   4.026   2.080 -0.6287 -0.3835  0.0386
17359TIP3    H273493   3.542   4.096   2.155 -0.1886 -0.4615 -0.5372
17360TIP3   OH273494   6.209   5.834  13.259  0.5554 -0.4157  0.0691
17360TIP3    H173495   6.304   5.832  13.272  0.3832 -1.4815  1.4703
17360TIP3    H273496   6.189   5.926  13.243  1.9217 -0.3037 -1.2229
17361TIP3   OH273497   4.662   6.327  16.097 -0.0670 -0.5416 -0.5111
17361TIP3    H173498   4.633   6.340  16.007 -0.2042 -0.0498 -0.3959
17361TIP3    H273499   4.725   6.398  16.112 -1.8841  0.9170  0.5905
17362TIP3   OH273500   4.291   2.385   2.347  0.3241 -0.4721 -0.1426
17362TIP3    H173501   4.321   2.373   2.438  1.6311 -0.7220 -0.5868
17362TIP3    H273502   4.371   2.389   2.296 -0.4196 -0.9648 -1.3819
17363TIP3   OH273503   0.665   3.359  15.389 -0.0167 -0.5596 -0.0825
17363TIP3    H173504   0.662   3.311  15.306 -0.4693  1.7723 -1.5078
17363TIP3    H273505   0.575   3.388  15.403 -0.0961 -1.5334  1.6649
17364TIP3   OH273506   2.034   0.323  13.788  0.3184 -0.0237 -0.4712
17364TIP3    H173507   2.031   0.369  13.705 -1.8108  1.9275  0.5866
17364TIP3    H273508   2.079   0.383  13.848  1.5694 -1.2799 -0.0846
17365TIP3   OH273509   1.534   1.000   0.336  0.0983 -0.1499 -0.3893
17365TIP3    H173510   1.484   1.073   0.299 -0.1765 -1.1304 -2.0398
17365TIP3    H273511   1.606   1.041   0.383  1.1769  1.1817 -3.0338
17366TIP3   OH273512   6.073   4.986   2.508 -0.3178 -0.2395  0.6281
17366TIP3    H173513   6.054   5.079   2.519  0.3589 -0.1340  0.9969
17366TIP3    H273514   6.070   4.971   2.413  1.5679  0.6212  0.3900
17367TIP3   OH273515   6.018   6.432  14.774 -0.3308 -0.6133  0.0786
17367TIP3    H173516   6.016   6.338  14.758  0.6113 -0.5355 -0.5667
17367TIP3    H273517   5.990   6.471  14.691  1.3736 -0.2773 -0.3598
17368TIP3   OH273518   5.734   4.718   1.418 -0.2948  0.1438  0.2189
17368TIP3    H173519   5.792   4.679   1.483 -1.6265 -0.5244  1.0610
17368TIP3    H273520   5.786   4.723   1.338  1.3384  0.8619  1.2916
17369TIP3   OH273521   0.004   0.754   2.778  0.5550 -0.7363 -0.2968
17369TIP3    H173522  -0.013   0.846   2.802  2.6792 -0.5738  0.8143
17369TIP3    H273523  -0.005   0.752   2.683 -0.8827  0.2883 -0.2172
17370TIP3   OH273524   0.177   6.556  13.093  0.2590 -0.4383  0.5358
17370TIP3    H173525   0.200   6.472  13.051 -0.7806 -1.0241  1.0825
17370TIP3    H273526   0.215   6.622  13.035 -0.5777 -1.2354 -1.0177
17371TIP3   OH273527   4.414   4.310   0.780 -0.0440  0.0473  0.0107
17371TIP3    H173528   4.474   4.263   0.838  1.6847 -0.4954 -2.0696
17371TIP3    H273529   4.337   4.328   0.834  0.6157 -2.1872  1.8694
17372TIP3   OH273530   1.892   6.151   5.524 -0.7243  0.5402  0.3682
17372TIP3    H173531   1.872   6.096   5.448 -0.0520 -0.0241  0.5883
17372TIP3    H273532   1.944   6.224   5.488  1.2819 -0.7307  0.5123
17373TIP3   OH273533   5.830   2.035   1.998 -0.4799 -0.9526  0.0905
17373TIP3    H173534   5.871   2.095   1.936  0.3064 -0.3307  1.1898
17373TIP3    H273535   5.884   1.956   1.994 -0.1070 -0.7137  0.3783
17374TIP3   OH273536   6.283   0.274  15.374  0.8298 -0.1443 -0.3641
17374TIP3    H173537   6.320   0.216  15.307  1.1553  2.4752 -2.6699
17374TIP3    H273538   6.190   0.251  15.377  1.0754 -1.2288 -0.6821
17375TIP3   OH273539   2.754   0.629  12.212 -0.1144  0.0284  0.1048
17375TIP3    H173540   2.797   0.707  12.246 -0.0932  0.8271 -1.6497
17375TIP3    H273541   2.747   0.644  12.118 -0.8167 -1.7523 -0.1749
17376TIP3   OH273542   4.649   6.485   3.830  0.0749 -0.2773 -0.3644
17376TIP3    H173543   4.724   6.465   3.774  1.3810 -0.1992  1.2936
17376TIP3    H273544   4.605   6.558   3.787  0.9018 -0.3586 -1.3832
17377TIP3   OH273545   6.685   6.391  13.632 -0.1935 -0.2279  0.2898
17377TIP3    H173546   6.748   6.405  13.561 -0.6430 -1.2405 -0.3379
17377TIP3    H273547   6.699   6.464  13.692  1.3548 -0.2537  0.0056
17378TIP3   OH273548   6.535   4.899  16.493  0.4742 -0.2192  0.2540
17378TIP3    H173549   6.600   4.839  16.530  1.1276 -0.4064 -1.1028
17378TIP3    H273550   6.583   4.981  16.483  0.7741 -0.5575 -1.4356
17379TIP3   OH273551   0.632   1.718   5.575  0.0152 -0.1787 -0.0155
17379TIP3    H173552   0.713   1.669   5.568  0.7885  1.2252 -2.0023
17379TIP3    H273553   0.614   1.748   5.485 -1.7120  1.0578  0.6740
17380TIP3   OH273554   4.643   3.678   2.890 -0.1682  0.4442 -0.4671
17380TIP3    H173555   4.725   3.723   2.908 -0.9895  1.0283  2.4214
17380TIP3    H273556   4.663   3.585   2.904  0.0824  0.5469 -0.1384
17381TIP3   OH273557   2.788   0.784  13.690  0.2976 -0.5601 -0.2376
17381TIP3    H173558   2.789   0.688  13.698 -1.3939 -0.4826  1.4031
17381TIP3    H273559   2.703   0.804  13.652  0.7436  0.3227 -0.8204
17382TIP3   OH273560   0.310   4.308   3.978 -0.5776 -0.3457 -0.3767
17382TIP3    H173561   0.305   4.214   3.966 -1.1861 -0.0961 -2.5550
17382TIP3    H273562   0.309   4.344   3.889 -0.5856  1.7282  0.3885
17383TIP3   OH273563   0.434   5.248   4.207  0.4018 -0.3854  0.1505
17383TIP3    H173564   0.494   5.238   4.280  0.7040  0.2918  0.0054
17383TIP3    H273565   0.384   5.166   4.205  1.2154 -0.8996  0.3554
17384TIP3   OH273566   2.760   4.310  13.955  0.0450 -0.2883  0.8637
17384TIP3    H173567   2.675   4.294  13.995 -0.5057  2.0500  0.7344
17384TIP3    H273568   2.740   4.351  13.870  1.2680 -2.2891 -0.4970
17385TIP3   OH273569   2.285   0.486   0.879  0.3831  0.1167 -0.3706
17385TIP3    H173570   2.197   0.520   0.861 -0.4157 -1.3695  0.5758
17385TIP3    H273571   2.319   0.543   0.947  0.3511  0.9789 -1.0538
17386TIP3   OH273572   2.848   6.267  15.130 -0.2086 -0.4612  0.0663
17386TIP3    H173573   2.767   6.219  15.113 -1.5168  1.4107  0.6039
17386TIP3    H273574   2.904   6.205  15.176 -0.7955 -2.2116 -1.4381
17387TIP3   OH273575   1.987   6.771   1.366 -0.1554  0.3768  0.4160
17387TIP3    H173576   1.999   6.704   1.433  3.7178  0.7910  0.4001
17387TIP3    H273577   2.006   6.727   1.284  1.1094  1.1152  0.2768
17388TIP3   OH273578   4.546   0.530   4.075 -0.0375 -0.0948  0.1984
17388TIP3    H173579   4.528   0.624   4.078 -1.3295 -0.0270 -3.7455
17388TIP3    H273580   4.499   0.494   4.150 -0.8098  2.2372  0.9240
17389TIP3   OH273581   1.161   1.136  13.402  0.1290  0.0640 -0.6894
17389TIP3    H173582   1.150   1.231  13.404 -1.6883 -0.0695 -1.6806
17389TIP3    H273583   1.116   1.108  13.322  1.3486 -1.5654 -0.8721
17390TIP3   OH273584   4.442   1.445  14.731 -0.1163  0.2698 -0.1807
17390TIP3    H173585   4.499   1.411  14.662  1.7701 -1.1923  1.9159
17390TIP3    H273586   4.416   1.367  14.781  1.0759  1.4458  2.4662
17391TIP3   OH273587   5.230   3.045   5.770  0.2916  0.3219  0.4130
17391TIP3    H173588   5.309   3.096   5.790  0.2971  0.1158  0.9359
17391TIP3    H273589   5.194   3.086   5.692  0.5719  0.8144  0.5387
17392TIP3   OH273590   2.796   2.721   2.913 -0.1219  0.2859  0.3787
17392TIP3    H173591   2.753   2.639   2.888 -1.0014  0.9703 -0.4242
17392TIP3    H273592   2.740   2.789   2.877  2.0565  1.2426 -1.4931
17393TIP3   OH273593   3.960   2.281   5.062  0.4713  0.2393 -0.4517
17393TIP3    H173594   3.927   2.359   5.106  1.8243  0.0602  0.9765
17393TIP3    H273595   3.885   2.248   5.012 -1.1234  0.5617  1.6028
17394TIP3   OH273596   2.578   5.007   1.516 -0.0056 -0.4921  0.0390
17394TIP3    H173597   2.532   4.923   1.515 -0.6772 -0.1549 -1.7406
17394TIP3    H273598   2.639   5.001   1.443  1.0376  0.0130  0.8529
17395TIP3   OH273599   3.278   6.447  14.987  0.5216  0.5547  0.3431
17395TIP3    H173600   3.269   6.536  14.954 -2.0678 -0.0170 -0.7309
17395TIP3    H273601   3.271   6.392  14.909 -1.2648 -0.6790  1.3225
17396TIP3   OH273602   3.390   0.505  14.960  0.8824 -0.1254  0.0414
17396TIP3    H173603   3.362   0.550  15.039  2.5804  0.0460  0.5959
17396TIP3    H273604   3.481   0.532  14.949  1.0119 -1.0503 -1.3318
17397TIP3   OH273605   6.304   1.224   5.510 -0.4717  0.2480  0.3346
17397TIP3    H173606   6.373   1.247   5.447  1.3124 -1.6090  1.4771
17397TIP3    H273607   6.342   1.245   5.595 -2.1278  0.9859  0.9317
17398TIP3   OH273608   0.041   3.404   6.081 -0.6117  0.0501  0.2983
17398TIP3    H173609  -0.016   3.454   6.023 -0.6006  0.2698  0.4758
17398TIP3    H273610   0.119   3.387   6.029 -0.4487  0.5632  0.3645
17399TIP3   OH273611   1.467   0.793   5.422 -0.2991  0.1914 -0.0786
17399TIP3    H173612   1.385   0.817   5.380 -0.4609 -0.5769 -0.2159
17399TIP3    H273613   1.499   0.717   5.372  0.6835  0.7087 -0.2644
17400TIP3   OH273614   1.355   2.873   4.795  0.3173 -0.0974  0.1703
17400TIP3    H173615   1.432   2.880   4.739 -0.5790 -1.1854 -1.2789
17400TIP3    H273616   1.309   2.795   4.763 -1.6317  0.7781  0.6630
17401TIP3   OH273617   3.704   6.162  16.455  0.5752  0.0298 -0.2405
17401TIP3    H173618   3.633   6.124  16.506  1.0164 -0.5074 -0.0195
17401TIP3    H273619   3.662   6.233  16.405 -0.2711 -0.7786 -0.7110
17402TIP3   OH273620   1.673   0.539  13.627  0.4767  0.5699 -0.2150
17402TIP3    H173621   1.626   0.589  13.694 -1.0816 -0.5662 -0.4232
17402TIP3    H273622   1.713   0.467  13.675  1.4872  1.1522 -0.1479
17403TIP3   OH273623   4.906   2.677  14.890 -0.1479 -0.0552 -0.4137
17403TIP3    H173624   4.997   2.688  14.915 -0.0675  0.1335 -0.7757
17403TIP3    H273625   4.897   2.584  14.869 -0.6004 -0.5686  1.7770
17404TIP3   OH273626   1.797   3.777  16.770 -0.6761  0.0425  0.3148
17404TIP3    H173627   1.724   3.824  16.811 -2.0457 -2.2109  0.6006
17404TIP3    H273628   1.805   3.815  16.683 -1.4266  1.0830  0.6861
17405TIP3   OH273629   2.164   5.092   1.475  0.5295 -0.2721  0.1583
17405TIP3    H173630   2.086   5.100   1.530 -0.3354  1.1037 -1.1669
17405TIP3    H273631   2.236   5.126   1.528 -0.5816  2.7663 -0.0865
17406TIP3   OH273632   5.928   1.290  14.043 -0.2135 -0.2189 -0.1641
17406TIP3    H173633   6.024   1.295  14.052 -0.3842  1.9291  1.3783
17406TIP3    H273634   5.898   1.255  14.126 -0.9768  5.2278  2.3194
17407TIP3   OH273635   1.449   3.551  16.042  0.1490  0.0841 -0.0343
17407TIP3    H173636   1.438   3.606  16.119  1.3217 -0.2943  0.4391
17407TIP3    H273637   1.544   3.552  16.026  0.0790 -0.9882 -0.5969
17408TIP3   OH273638   2.689   6.089   1.680 -0.3874  0.7891  0.2944
17408TIP3    H173639   2.659   6.100   1.770  0.1821  0.9752  0.4627
17408TIP3    H273640   2.679   6.176   1.641  1.0194  1.1441  0.6862
17409TIP3   OH273641   4.438   4.670  15.554  0.2291  0.1866 -0.3394
17409TIP3    H173642   4.348   4.697  15.573  0.2913  0.4034 -0.3501
17409TIP3    H273643   4.433   4.576  15.539 -0.0591  0.2619 -0.7264
17410TIP3   OH273644   0.336   6.408   1.875  0.3220 -0.0277 -0.2640
17410TIP3    H173645   0.427   6.438   1.874  0.0442  0.8941  0.7989
17410TIP3    H273646   0.339   6.326   1.925  0.6332 -0.2642 -0.6589
17411TIP3   OH273647   0.955   6.223   2.121  1.0699  0.5273  0.1238
17411TIP3    H173648   1.008   6.150   2.152  1.2660  0.1484 -1.0442
17411TIP3    H273649   1.015   6.276   2.069  0.8490  1.3477  0.6928
17412TIP3   OH273650   3.965   1.658  13.803  0.4237 -0.4027  0.1604
17412TIP3    H173651   4.026   1.717  13.759  0.7700 -0.7755  0.1312
17412TIP3    H273652   3.974   1.680  13.896  0.3074 -0.1820  0.1194
17413TIP3   OH273653   3.833   5.583  14.821  0.5074  0.2719  0.0104
17413TIP3    H173654   3.739   5.563  14.820  0.8369 -1.5600  1.3682
17413TIP3    H273655   3.840   5.663  14.769 -1.7871  0.4199 -0.1988
17414TIP3   OH273656   5.567   1.814  12.445  0.1041 -0.2294  0.1935
17414TIP3    H173657   5.593   1.789  12.533 -0.1626  0.6293  0.5285
17414TIP3    H273658   5.546   1.907  12.452 -0.2329 -0.2290 -0.7047
17415TIP3   OH273659   0.829   5.359  12.613 -0.2385 -0.0877  0.3366
17415TIP3    H173660   0.855   5.294  12.678  0.8693  0.7363  0.7632
17415TIP3    H273661   0.742   5.332  12.585  0.1411 -1.6870  0.5654
17416TIP3   OH273662   1.756   1.268  16.647 -0.2330 -0.7832  0.2785
17416TIP3    H173663   1.826   1.222  16.694  0.4635  1.0633  1.1519
17416TIP3    H273664   1.801   1.320  16.580 -0.6132  1.1118  1.4146
17417TIP3   OH273665   3.227   0.780  16.333 -0.3803  0.4527  0.0790
17417TIP3    H173666   3.225   0.708  16.397 -0.7462  1.4367  1.2042
17417TIP3    H273667   3.234   0.859  16.386 -2.1463  1.4122 -1.0082
17418TIP3   OH273668   4.594   2.191   0.524  0.0299  0.2762  0.0510
17418TIP3    H173669   4.562   2.252   0.457  1.4228  1.0473  0.0455
17418TIP3    H273670   4.611   2.110   0.476 -1.8027 -0.1605  0.0506
17419TIP3   OH273671   0.502   3.141  12.900 -0.0119  0.3830 -0.7692
17419TIP3    H173672   0.460   3.214  12.854  0.3239  1.5154  0.6142
17419TIP3    H273673   0.536   3.181  12.980 -1.0412 -1.5614  0.7392
17420TIP3   OH273674   4.081   6.475   1.625  0.4126 -0.1704  0.2088
17420TIP3    H173675   4.128   6.558   1.629  2.1295 -0.9899 -1.4230
17420TIP3    H273676   4.112   6.426   1.701  1.2645 -0.2089 -0.1485
17421TIP3   OH273677   5.608   0.165  14.754 -0.2784  0.3258 -0.0439
17421TIP3    H173678   5.690   0.117  14.764 -0.3479 -0.1155 -1.3282
17421TIP3    H273679   5.539   0.100  14.769 -0.3843  0.4119 -0.1465
17422TIP3   OH273680   4.931   5.643   3.198  0.1498  0.7151 -0.0664
17422TIP3    H173681   4.977   5.723   3.223  1.4576 -0.7098  2.4469
17422TIP3    H273682   4.988   5.601   3.134  0.9037  0.3900  0.8118
17423TIP3   OH273683   0.276   6.098   5.243  0.0922  0.7603 -0.0278
17423TIP3    H173684   0.204   6.133   5.191  0.5658  1.7792 -0.0243
17423TIP3    H273685   0.242   6.016   5.279 -0.9365  1.0434 -0.3175
17424TIP3   OH273686   2.914   1.302   2.774 -0.2318  0.1840  0.4250
17424TIP3    H173687   2.999   1.301   2.817  1.5808  2.1773 -2.6516
17424TIP3    H273688   2.928   1.252   2.693 -2.6838 -1.2671  0.8051
17425TIP3   OH273689   1.069   2.201   1.671 -0.8289 -0.4067 -0.0317
17425TIP3    H173690   1.016   2.229   1.596 -0.3899 -3.2492 -1.5508
17425TIP3    H273691   1.159   2.219   1.644 -0.7293  2.7922  1.8386
17426TIP3   OH273692   1.268   6.228  10.905  0.4516  0.3410 -0.3671
17426TIP3    H173693   1.304   6.286  10.972  0.1535  0.8144 -0.6077
17426TIP3    H273694   1.225   6.287  10.844 -1.1900 -0.2315  0.1861
17427TIP3   OH273695   2.817   1.073   2.217 -0.2159 -0.0249  0.0438
17427TIP3    H173696   2.897   1.023   2.232  0.2762  0.1759 -1.7111
17427TIP3    H273697   2.790   1.050   2.128 -0.5373  2.0310 -0.4463
17428TIP3   OH273698   5.692   2.541  12.846 -0.1173 -0.0338 -0.2762
17428TIP3    H173699   5.658   2.564  12.933 -2.2421 -0.2984 -0.9742
17428TIP3    H273700   5.742   2.618  12.819 -0.5930  0.6146  0.6241
17429TIP3   OH273701   2.694   1.236  15.384  0.0358  0.0838  0.2239
17429TIP3    H173702   2.660   1.147  15.391  0.9479 -0.2640  0.3041
17429TIP3    H273703   2.715   1.261  15.474 -2.6845  1.3998  0.5953
17430TIP3   OH273704   3.841   3.492  16.876 -0.7718  0.0721  0.3982
17430TIP3    H173705   3.825   3.399  16.891 -0.5135  0.1785  1.3905
17430TIP3    H273706   3.929   3.495  16.839 -0.1294  0.0141  1.8433
17431TIP3   OH273707   1.259   4.486  15.653  0.1972  0.2225  0.2256
17431TIP3    H173708   1.292   4.435  15.579  1.1527  2.3541 -0.9084
17431TIP3    H273709   1.263   4.426  15.728 -0.3037 -1.8436 -1.3198
17432TIP3   OH273710   4.159   2.332  12.807  0.1450 -0.0048  0.4262
17432TIP3    H173711   4.228   2.347  12.742  0.8258  1.6374  1.4579
17432TIP3    H273712   4.114   2.254  12.777  0.4402  0.6942 -2.0067
17433TIP3   OH273713   4.291   0.464  15.971  0.4428 -0.0503  0.5131
17433TIP3    H173714   4.304   0.438  15.879  0.6312 -1.4814  0.9233
17433TIP3    H273715   4.209   0.514  15.970  0.5760  0.1800 -0.4628
17434TIP3   OH273716   1.374   1.494   5.481 -0.2891 -0.4095 -0.1907
17434TIP3    H173717   1.440   1.427   5.463 -1.2637 -1.7294  0.8810
17434TIP3    H273718   1.415   1.552   5.545 -0.1767 -1.2913  0.5660
17435TIP3   OH273719   4.855   5.835  11.412  0.5277  0.0788  0.6464
17435TIP3    H173720   4.874   5.886  11.490 -1.3131 -1.4502  2.1928
17435TIP3    H273721   4.928   5.774  11.404  0.4562 -0.1324  1.5267
17436TIP3   OH273722   2.992   6.612  12.253 -0.0596  0.0545  0.0458
17436TIP3    H173723   3.010   6.581  12.342 -0.6336 -0.9000 -0.1607
17436TIP3    H273724   3.043   6.693  12.246 -0.0357  0.1659  1.2504
17437TIP3   OH273725   0.340   3.237  10.773  0.8188  0.3819  0.3875
17437TIP3    H173726   0.270   3.301  10.782  0.2948 -0.1124 -0.1299
17437TIP3    H273727   0.385   3.263  10.692 -0.9911 -1.3869 -1.2928
17438TIP3   OH273728   3.538   6.419   4.975  0.5845 -0.3355 -0.9861
17438TIP3    H173729   3.540   6.333   4.932  3.0788  0.4412 -2.6641
17438TIP3    H273730   3.575   6.479   4.910  0.4146  1.7406  0.7249
17439TIP3   OH273731   6.570   0.381  17.217  0.1200  0.4183 -0.2750
17439TIP3    H173732   6.647   0.386  17.160  2.2940  2.4853  2.5096
17439TIP3    H273733   6.606   0.365  17.304 -2.5335  1.9825  1.2508
17440TIP3   OH273734   4.748   4.800  15.589  0.4229  0.6234  0.3493
17440TIP3    H173735   4.655   4.802  15.565  0.0584 -1.3782  1.3155
17440TIP3    H273736   4.766   4.886  15.627 -0.6665  1.5136 -1.0699
17441TIP3   OH273737   4.005   4.467   5.244  0.3652 -0.3710 -0.5116
17441TIP3    H173738   3.921   4.424   5.264  0.0773  0.1390 -0.6196
17441TIP3    H273739   3.983   4.532   5.178  1.1409 -1.3783 -1.8139
17442TIP3   OH273740   5.359   6.402  14.283 -0.5239  0.3940  0.3946
17442TIP3    H173741   5.423   6.402  14.213 -0.3925  0.1116  0.5157
17442TIP3    H273742   5.397   6.347  14.352 -0.2585  1.3666  1.0483
17443TIP3   OH273743   1.980   4.535  10.711 -0.3885 -0.0146 -0.9205
17443TIP3    H173744   2.064   4.489  10.713 -1.6411 -2.4351  0.3467
17443TIP3    H273745   1.936   4.502  10.632 -1.0348 -0.5264 -0.3597
17444TIP3   OH273746   3.178   2.791   3.347  0.0886  0.2770  0.2491
17444TIP3    H173747   3.161   2.885   3.340  0.0281  0.3296  0.9879
17444TIP3    H273748   3.126   2.752   3.277  0.0918  0.7921 -0.0443
17445TIP3   OH273749   5.423   0.361   2.157 -0.0513 -0.3326  0.5156
17445TIP3    H173750   5.461   0.432   2.209  3.9784 -0.2148 -2.1241
17445TIP3    H273751   5.346   0.400   2.116  0.5033  1.6377  1.2483
17446TIP3   OH273752   0.491   2.523  13.098 -0.4690 -0.7644 -0.0606
17446TIP3    H173753   0.537   2.582  13.156 -3.1456 -0.1897  1.6347
17446TIP3    H273754   0.527   2.436  13.118  2.6731 -0.0374 -1.7721
17447TIP3   OH273755   0.869   5.893   5.050 -0.0533  1.2223 -0.1190
17447TIP3    H173756   0.795   5.916   4.993 -0.3560 -2.1678 -1.2900
17447TIP3    H273757   0.940   5.950   5.021 -0.4531  0.2341 -3.4220
17448TIP3   OH273758   4.258   2.765   3.926 -0.2331  0.4074  0.2066
17448TIP3    H173759   4.264   2.673   3.902  1.6332 -0.0543  2.0884
17448TIP3    H273760   4.268   2.812   3.843  0.6774 -1.0761 -0.5682
17449TIP3   OH273761   3.002   1.737  16.807  0.0878 -0.4770  0.1933
17449TIP3    H173762   3.084   1.739  16.757  0.2176  1.2012  0.4136
17449TIP3    H273763   3.029   1.751  16.898 -0.4718  0.9545  0.1662
17450TIP3   OH273764   2.828   3.132  10.416 -0.4042  0.0103 -0.3679
17450TIP3    H173765   2.787   3.068  10.358  0.0786 -0.2021 -0.4809
17450TIP3    H273766   2.922   3.124  10.399 -0.3386  0.8290 -0.4676
17451TIP3   OH273767   2.792   0.073  13.553 -0.9326 -0.2173  0.1737
17451TIP3    H173768   2.711   0.111  13.587 -0.3198  0.9373  0.4111
17451TIP3    H273769   2.845   0.056  13.632 -0.0952  1.0837 -0.0690
17452TIP3   OH273770   2.372   2.091   4.366  0.9472  0.3222 -0.2751
17452TIP3    H173771   2.459   2.070   4.398  0.3435 -0.1446  1.1693
17452TIP3    H273772   2.380   2.180   4.330  2.2641 -0.1825 -1.2998
17453TIP3   OH273773   2.735   2.319   4.397 -0.1704 -0.6812  0.3755
17453TIP3    H173774   2.700   2.245   4.445  1.8808 -1.9266  0.0814
17453TIP3    H273775   2.812   2.284   4.351 -1.0463  0.8075 -2.5042
17454TIP3   OH273776   0.805   2.831   5.508 -0.9495 -0.5405 -0.1768
17454TIP3    H173777   0.810   2.740   5.537 -0.5655 -0.0270  1.4653
17454TIP3    H273778   0.761   2.876   5.581  2.1943  1.2483  0.7602
17455TIP3   OH273779   2.560   0.703  13.490  0.0142  0.3248 -0.7437
17455TIP3    H173780   2.621   0.630  13.490 -1.1026 -0.6356 -0.8980
17455TIP3    H273781   2.478   0.667  13.457  0.3570  2.4824 -4.5555
17456TIP3   OH273782   5.065   4.244   4.245  0.5938 -0.0067 -0.1150
17456TIP3    H173783   4.991   4.188   4.220 -1.2998  2.5813 -0.7063
17456TIP3    H273784   5.074   4.229   4.340 -0.7437 -0.3641 -0.0139
17457TIP3   OH273785   1.228   3.091   3.759 -0.3219  0.1787 -0.4030
17457TIP3    H173786   1.149   3.142   3.742  1.0886  2.2052 -1.2912
17457TIP3    H273787   1.234   3.086   3.854 -1.1100  0.6550 -0.3198
17458TIP3   OH273788   3.930   6.130   1.696 -0.0441 -0.1441  0.0723
17458TIP3    H173789   3.877   6.052   1.676 -0.0467  0.4110 -2.3332
17458TIP3    H273790   4.019   6.105   1.673 -0.0207  0.4969 -0.5611
17459TIP3   OH273791   2.892   1.242   0.974  0.0737  0.2001 -0.0458
17459TIP3    H173792   2.925   1.187   1.045  1.4350  0.0114 -0.7904
17459TIP3    H273793   2.804   1.268   1.002  0.2509 -0.5794  1.2969
17460TIP3   OH273794   5.627   6.224   0.952  0.2439  0.6658 -0.3074
17460TIP3    H173795   5.707   6.261   0.990  0.0286 -0.3617  1.2351
17460TIP3    H273796   5.572   6.300   0.934  1.7005  1.4379 -1.8365
17461TIP3   OH273797   5.743   5.362  16.225 -0.1771 -0.2733 -0.6484
17461TIP3    H173798   5.741   5.455  16.203 -0.5890 -0.1308 -0.0097
17461TIP3    H273799   5.819   5.353  16.282  0.7966 -0.6161 -1.9516
17462TIP3   OH273800   3.027   4.147   1.462  0.2388 -0.2575 -0.0806
17462TIP3    H173801   2.937   4.116   1.447  0.1438  0.5848 -1.4347
17462TIP3    H273802   3.076   4.068   1.485 -0.2565 -1.2444 -2.1510
17463TIP3   OH273803   2.680   5.599   1.865 -0.0824  1.2146  0.0367
17463TIP3    H173804   2.775   5.599   1.878  0.0403 -0.6332 -0.5248
17463TIP3    H273805   2.644   5.577   1.951  0.2225 -1.3883 -0.4240
17464TIP3   OH273806   1.400   2.870   5.874 -0.6741  0.0018 -0.0232
17464TIP3    H173807   1.429   2.962   5.876  0.0266 -0.1675 -1.2399
17464TIP3    H273808   1.444   2.830   5.949  0.5769  0.2506 -0.5869
17465TIP3   OH273809   1.431   0.099   5.830 -0.2605 -0.3334  0.6112
17465TIP3    H173810   1.427   0.115   5.924  1.2939  1.1607  0.4656
17465TIP3    H273811   1.370   0.027   5.816 -3.7482  2.0498  2.1349
17466TIP3   OH273812   4.267   2.600   1.387 -0.4197 -0.0568  0.5492
17466TIP3    H173813   4.239   2.577   1.298 -0.2106 -0.1674  0.5131
17466TIP3    H273814   4.186   2.598   1.438 -1.2090  3.3807 -0.2870
17467TIP3   OH273815   0.149   0.168   0.475 -0.4942 -0.1116  0.0698
17467TIP3    H173816   0.148   0.145   0.568 -0.1200  1.9860  0.6420
17467TIP3    H273817   0.211   0.107   0.435 -1.0997 -1.4176  1.0729
17468TIP3   OH273818   2.815   5.873   1.017 -0.2183 -0.2084  0.1843
17468TIP3    H173819   2.729   5.866   1.059 -1.2364  1.6012 -1.4023
17468TIP3    H273820   2.849   5.957   1.047  0.1926 -0.0955 -0.5751
17469TIP3   OH273821   3.355   6.596   2.110  0.5341  0.3774 -0.3981
17469TIP3    H173822   3.387   6.683   2.088 -0.5814  0.9121  0.0076
17469TIP3    H273823   3.353   6.549   2.026 -0.2762  1.2380 -0.8841
17470TIP3   OH273824   0.647   2.121   2.801 -0.0030 -0.6467 -0.6801
17470TIP3    H173825   0.639   2.208   2.762  0.1260 -0.6245 -0.6566
17470TIP3    H273826   0.677   2.138   2.890 -0.3596 -0.6929 -0.5463
17471TIP3   OH273827   5.225   3.116  17.225 -0.1134 -0.1086 -0.1360
17471TIP3    H173828   5.263   3.192  17.181 -0.8470  1.2579  1.4894
17471TIP3    H273829   5.286   3.045  17.205  0.3130  0.7354 -2.1384
17472TIP3   OH273830   0.165   0.412   6.199 -0.0957 -0.9456  0.4265
17472TIP3    H173831   0.184   0.456   6.117 -1.0955 -2.6027 -0.7607
17472TIP3    H273832   0.238   0.352   6.212 -0.2593 -1.1500  0.4090
17473TIP3   OH273833   3.407   2.174   4.365  0.2119 -0.8257 -0.3520
17473TIP3    H173834   3.315   2.150   4.373 -0.6706  1.4119 -2.4685
17473TIP3    H273835   3.450   2.095   4.332 -1.1361 -1.6224 -0.2669
17474TIP3   OH273836   2.827   3.168  10.714  0.1520  0.0056 -0.0252
17474TIP3    H173837   2.808   3.158  10.621 -0.3155 -1.8370  0.2351
17474TIP3    H273838   2.900   3.109  10.730  1.2377  1.4185  0.5223
17475TIP3   OH273839   1.758   1.827   5.497 -0.1566  0.3806 -0.5821
17475TIP3    H173840   1.827   1.807   5.560 -1.3572 -0.2738  0.6034
17475TIP3    H273841   1.749   1.748   5.444 -0.3646  0.2405 -0.3453
17476TIP3   OH273842   3.368   3.422   5.410  0.2333  0.2733  0.3901
17476TIP3    H173843   3.393   3.330   5.397 -0.0120  0.1127  1.0314
17476TIP3    H273844   3.435   3.472   5.365 -0.0250 -0.2415 -0.6005
17477TIP3   OH273845   0.948   6.784  15.342 -0.0354 -0.2859 -0.4426
17477TIP3    H173846   0.981   6.827  15.263  0.2033 -0.7499 -0.6023
17477TIP3    H273847   0.963   6.690  15.326 -2.4686 -0.6598 -1.0388
17478TIP3   OH273848   1.287   6.679   4.702 -0.8942 -0.2258 -0.0270
17478TIP3    H173849   1.248   6.670   4.615 -0.0461 -1.6118 -0.2982
17478TIP3    H273850   1.213   6.676   4.762 -1.3727 -0.8630 -0.6308
17479TIP3   OH273851   6.001   4.354   0.283  0.2244 -0.1060 -0.0587
17479TIP3    H173852   6.042   4.268   0.272  1.1338  0.4477 -1.2868
17479TIP3    H273853   5.908   4.335   0.296  0.6776 -1.3582  1.7934
17480TIP3   OH273854   2.697   2.861  11.780  0.3345 -0.1496 -0.3021
17480TIP3    H173855   2.691   2.846  11.686  0.8269 -0.1421 -0.3372
17480TIP3    H273856   2.727   2.951  11.788 -0.2161  0.0167 -0.1301
17481TIP3   OH273857   4.002   5.713   4.493 -0.0121 -0.0473  0.2218
17481TIP3    H173858   4.013   5.801   4.457 -1.0778 -0.4302 -1.1344
17481TIP3    H273859   3.941   5.725   4.566 -2.0876  0.0605 -1.4537
17482TIP3   OH273860   4.858   3.657   5.179 -0.0529 -0.1326 -0.4681
17482TIP3    H173861   4.882   3.589   5.116 -0.5018 -0.0400 -0.7436
17482TIP3    H273862   4.929   3.657   5.243  0.4286 -0.2043 -0.9954
17483TIP3   OH273863   3.823   6.076  16.849 -0.4713  0.2144 -0.4518
17483TIP3    H173864   3.903   6.110  16.889  0.1086 -0.6248 -0.8914
17483TIP3    H273865   3.851   6.035  16.767 -1.6023  1.6172 -1.6011
17484TIP3   OH273866   0.628   0.010  12.928  0.1299 -0.8316 -0.4046
17484TIP3    H173867   0.602   0.032  12.838  0.0102 -0.1432 -0.2083
17484TIP3    H273868   0.723  -0.000  12.924  0.0269 -1.7647 -0.7990
17485TIP3   OH273869   2.407   6.152   1.644  0.0549  0.2407  0.8776
17485TIP3    H173870   2.357   6.232   1.660  0.4417  1.3295 -2.6181
17485TIP3    H273871   2.494   6.183   1.617 -0.1921 -1.2017 -1.8782
17486TIP3   OH273872   5.755   0.193   3.651 -0.3168 -0.4247 -0.2925
17486TIP3    H173873   5.734   0.243   3.730 -0.6576  0.7842 -1.1216
17486TIP3    H273874   5.713   0.241   3.580  0.4426 -1.1837 -1.2929
17487TIP3   OH273875   2.928   3.226  17.059 -0.4036  0.0204  0.5938
17487TIP3    H173876   2.896   3.155  17.115 -1.9145  1.1102  1.1612
17487TIP3    H273877   2.946   3.298  17.120  2.2549 -0.1908  0.1807
17488TIP3   OH273878   1.240   1.489  16.465 -0.5571  0.2191  0.0319
17488TIP3    H173879   1.193   1.559  16.420 -1.2576 -1.3469 -1.7537
17488TIP3    H273880   1.305   1.458  16.402 -1.1476 -1.6209  0.2688
17489TIP3   OH273881   4.005   3.315   5.876 -0.3641  0.4299  0.5871
17489TIP3    H173882   3.996   3.268   5.958 -0.7407  1.9343  1.4511
17489TIP3    H273883   4.071   3.266   5.827 -0.6243 -0.8674  1.4901
17490TIP3   OH273884   3.766   3.414  15.158 -0.4005  0.4476 -0.1450
17490TIP3    H173885   3.763   3.460  15.075 -0.6482  1.2123  0.2805
17490TIP3    H273886   3.698   3.347  15.151  0.5244 -0.4429 -1.0865
17491TIP3   OH273887   4.116   3.898  12.104  0.2391  0.2598 -0.1544
17491TIP3    H173888   4.201   3.932  12.131 -0.5640  2.1724  0.0688
17491TIP3    H273889   4.130   3.867  12.014  1.1268  0.7242 -0.1823
17492TIP3   OH273890   0.888   3.570  13.716 -0.3470 -0.4488  0.5184
17492TIP3    H173891   0.922   3.568  13.805  0.2192 -1.6523  0.2980
17492TIP3    H273892   0.802   3.527  13.722  0.5216 -2.3274  0.1903
17493TIP3   OH273893   1.459   1.606  16.575  0.6802 -0.4535 -0.0937
17493TIP3    H173894   1.442   1.701  16.572  1.0453 -0.3017  1.7134
17493TIP3    H273895   1.389   1.568  16.521 -0.5550  0.7254  0.6053
17494TIP3   OH273896   0.493   4.322  12.893  0.4893  0.4151  0.2845
17494TIP3    H173897   0.476   4.360  12.807  1.7757 -2.1287 -1.2214
17494TIP3    H273898   0.407   4.297  12.927 -0.0506  1.6830 -0.1050
17495TIP3   OH273899   1.077   2.412   4.306 -0.0854  0.0421  0.0606
17495TIP3    H173900   1.116   2.485   4.258 -0.5968  1.1175  1.2362
17495TIP3    H273901   0.989   2.404   4.269 -0.3132  0.5569  0.4898
17496TIP3   OH273902   5.128   2.617  13.408 -0.3845 -0.3820 -0.5769
17496TIP3    H173903   5.085   2.597  13.326  0.2550  1.3171 -1.3674
17496TIP3    H273904   5.221   2.619  13.387 -0.3650  4.1712 -0.8909
17497TIP3   OH273905   4.998   5.493  10.707 -0.5994 -0.0289  0.0758
17497TIP3    H173906   5.000   5.398  10.705 -1.2987 -0.0469 -0.0085
17497TIP3    H273907   4.907   5.516  10.686 -0.9527  0.6065  2.0432
17498TIP3   OH273908   2.525   1.435  14.505 -0.3940 -0.6789  0.5487
17498TIP3    H173909   2.581   1.419  14.581 -1.6985 -1.2762  1.4107
17498TIP3    H273910   2.489   1.522  14.519  0.4197 -0.2317 -0.0826
17499TIP3   OH273911   5.757   3.440   3.308  0.1233 -0.3249  0.0883
17499TIP3    H173912   5.674   3.454   3.355  0.6047  1.2000  0.5560
17499TIP3    H273913   5.738   3.464   3.218  0.6784  2.7936  0.6961
17500TIP3   OH273914   0.542   1.460   1.171 -0.1969  0.1002  0.3033
17500TIP3    H173915   0.537   1.552   1.196  0.7007  0.6834 -1.5223
17500TIP3    H273916   0.485   1.452   1.095  1.4658 -0.2836 -0.9820
17501TIP3   OH273917   0.168   6.013  13.417 -0.1487  0.3830 -0.4704
17501TIP3    H173918   0.086   6.057  13.396 -0.6652 -0.3471 -0.0163
17501TIP3    H273919   0.175   5.942  13.354  1.9066  2.4678 -2.8460
17502TIP3   OH273920   3.919   1.743   4.022 -0.0548  0.3112 -0.4549
17502TIP3    H173921   3.913   1.838   4.025  1.2989  0.4215 -0.5507
17502TIP3    H273922   4.013   1.725   4.021 -0.2938 -1.0073 -1.1244
17503TIP3   OH273923   3.007   2.661  16.112  0.3747 -0.2679  0.0280
17503TIP3    H173924   2.967   2.723  16.052  0.9392 -0.7619 -0.8829
17503TIP3    H273925   2.938   2.641  16.175 -0.5866 -0.5256 -1.0570
17504TIP3   OH273926   6.198   3.612  16.480  0.4235 -0.3047 -0.1048
17504TIP3    H173927   6.201   3.530  16.430  0.4134 -0.7911  0.6828
17504TIP3    H273928   6.289   3.630  16.504  0.2086 -1.1441  1.4072
17505TIP3   OH273929   1.056   1.669  15.505  0.7508 -0.2164  0.5426
17505TIP3    H173930   1.051   1.728  15.580 -0.3189 -0.0643  0.3626
17505TIP3    H273931   0.966   1.637  15.493  0.7205  0.3874 -1.1637
17506TIP3   OH273932   0.088   3.534  11.294  0.5152 -0.4746  1.0243
17506TIP3    H173933   0.099   3.506  11.203 -2.8774 -1.5688  0.8185
17506TIP3    H273934   0.138   3.470  11.345  0.1993 -1.5180  0.0649
17507TIP3   OH273935   1.609   2.286  15.343  0.4257  0.3898 -0.2510
17507TIP3    H173936   1.657   2.368  15.358  1.0189  0.3701 -1.8769
17507TIP3    H273937   1.529   2.313  15.298  0.5906  0.0826 -0.7261
17508TIP3   OH273938   3.987   1.722  16.717 -0.3164 -0.2793  0.3695
17508TIP3    H173939   3.910   1.778  16.717 -0.8372 -0.9872  0.4035
17508TIP3    H273940   3.973   1.661  16.789  0.3381 -0.3276  0.4605
17509TIP3   OH273941   0.592   4.075  13.134 -0.2047 -0.1316  0.2023
17509TIP3    H173942   0.676   4.030  13.146  0.5857  0.9748 -0.9891
17509TIP3    H273943   0.548   4.025  13.065 -0.1221 -0.1482  0.1612
17510TIP3   OH273944   5.519   6.770  13.375 -0.0539  0.2714  0.2961
17510TIP3    H173945   5.483   6.797  13.460  0.0207  0.5918  0.2260
17510TIP3    H273946   5.465   6.814  13.310 -0.2672 -0.1727  0.1702
17511TIP3   OH273947   0.154   0.492   3.835 -0.4363  0.0734 -0.2659
17511TIP3    H173948   0.195   0.499   3.749  0.9513 -1.1075  0.2599
17511TIP3    H273949   0.066   0.527   3.822  0.9884  3.7444 -1.2075
17512TIP3   OH273950   4.996   2.516   4.594  0.2874 -0.5356 -0.0306
17512TIP3    H173951   5.026   2.499   4.505  0.7139  1.5556 -0.3505
17512TIP3    H273952   4.901   2.526   4.586  0.3281 -0.3286 -0.2594
17513TIP3   OH273953   6.368   4.983  14.866  0.9613 -0.1230 -0.4721
17513TIP3    H173954   6.324   4.919  14.921 -1.6430  3.4330  2.1004
17513TIP3    H273955   6.461   4.969  14.882  0.3844 -1.3559  2.3471
17514TIP3   OH273956   0.243   1.956  11.768  0.2481 -0.4815 -0.1983
17514TIP3    H173957   0.178   1.888  11.748 -0.3029 -0.1784  0.5171
17514TIP3    H273958   0.260   1.946  11.862  0.5223  0.0536 -0.1888
17515TIP3   OH273959   1.670   2.816  17.242 -0.2044 -0.4066 -0.4954
17515TIP3    H173960   1.699   2.803  17.332  1.4445 -0.9248 -1.0771
17515TIP3    H273961   1.606   2.746  17.228 -0.2754 -0.4850  0.1868
17516TIP3   OH273962   6.432   3.075  13.486  0.1355  0.2687 -0.3186
17516TIP3    H173963   6.511   3.038  13.447  1.0706  1.2965  0.5486
17516TIP3    H273964   6.401   3.008  13.547  0.9670  0.2904  0.1390
17517TIP3   OH273965   0.614   1.210  16.769  0.1895  0.1071  0.4296
17517TIP3    H173966   0.570   1.233  16.851  1.4060  0.7738  0.9081
17517TIP3    H273967   0.680   1.277  16.757 -0.7981  0.7707 -1.7894
17518TIP3   OH273968   4.533   6.469   1.844  0.0479 -0.1816 -0.1190
17518TIP3    H173969   4.490   6.526   1.909  1.1285  1.0857 -0.4850
17518TIP3    H273970   4.528   6.381   1.883  1.7714  0.6885  2.3361
17519TIP3   OH273971   3.127   0.943   0.622  0.0014  0.1164  0.0728
17519TIP3    H173972   3.169   0.906   0.544 -0.8127  1.6590 -1.1578
17519TIP3    H273973   3.196   0.996   0.663  0.1985 -0.0220 -0.0759
17520TIP3   OH273974   2.273   0.104  14.249 -0.0270  0.2052  0.2108
17520TIP3    H173975   2.342   0.079  14.310  0.4997  0.6420 -0.1848
17520TIP3    H273976   2.307   0.078  14.163 -0.5069  0.1111  0.0485
17521TIP3   OH273977   1.987   6.287   1.660 -0.3076 -0.2346 -0.4806
17521TIP3    H173978   2.041   6.217   1.695  0.2807  0.0429 -0.8117
17521TIP3    H273979   1.988   6.272   1.565  1.9624  1.6575 -0.8536
17522TIP3   OH273980   3.726   1.063   3.822 -0.0162 -0.8838  0.3287
17522TIP3    H173981   3.801   1.045   3.878  1.0319  0.8955 -0.4182
17522TIP3    H273982   3.728   0.993   3.757 -0.1103 -1.8767  1.3550
17523TIP3   OH273983   5.478   5.118   3.786  0.1168 -0.7365  0.6827
17523TIP3    H173984   5.537   5.110   3.711 -0.1057  2.4004  0.0278
17523TIP3    H273985   5.532   5.158   3.854 -0.8240  0.9291  0.5146
17524TIP3   OH273986   5.252   2.113   2.716  0.5963 -0.0279 -0.0161
17524TIP3    H173987   5.283   2.133   2.804  1.5996 -2.5833  0.3008
17524TIP3    H273988   5.226   2.198   2.679  1.3242  1.2599  2.2726
17525TIP3   OH273989   4.995   2.170  16.790  0.0751 -0.0865  0.3649
17525TIP3    H173990   4.980   2.089  16.839  0.3268  1.4762  3.3184
17525TIP3    H273991   4.908   2.208  16.778  0.0495 -0.2729 -0.0462
17526TIP3   OH273992   0.987   2.773   3.028 -0.3091  0.1803  0.2304
17526TIP3    H173993   0.926   2.701   3.046 -1.3928  0.9473 -0.2782
17526TIP3    H273994   0.969   2.837   3.096  0.7486 -0.0540  0.7594
17527TIP3   OH273995   1.963   0.277   1.049  0.2042  0.4006 -0.2116
17527TIP3    H173996   1.971   0.287   1.144 -0.2153  0.1667 -0.1503
17527TIP3    H273997   2.053   0.267   1.018  0.6312  3.1512 -0.1529
17528TIP3   OH273998   3.741   4.715   1.609  0.3913 -0.4145  0.1709
17528TIP3    H173999   3.678   4.778   1.573 -0.2009 -0.2858  1.3727
17528TIP3    H274000   3.789   4.683   1.533 -1.2307 -0.6326 -0.8191
17529TIP3   OH274001   0.877   4.384  13.898  0.2054  0.0935  0.6056
17529TIP3    H174002   0.787   4.415  13.898  0.0861 -0.2386  0.2085
17529TIP3    H274003   0.893   4.357  13.807  0.0566 -1.6941  1.0701
17530TIP3   OH274004   1.595   6.225  17.078 -0.4096 -0.0786  0.0235
17530TIP3    H174005   1.609   6.314  17.046  0.5773 -0.3969 -0.4620
17530TIP3    H274006   1.503   6.207  17.061  0.1599 -0.4406 -3.2162
17531TIP3   OH274007   3.411   5.874  11.503 -0.2245  0.3156 -0.1469
17531TIP3    H174008   3.332   5.826  11.479  0.5976 -0.8987 -0.5228
17531TIP3    H274009   3.386   5.925  11.580 -1.1745 -0.6192  0.1827
17532TIP3   OH274010   2.863   6.141   3.002 -0.2633 -0.3477  0.0777
17532TIP3    H174011   2.796   6.091   3.048 -0.8531  0.2744 -0.0863
17532TIP3    H274012   2.908   6.191   3.071 -0.3103 -0.3723  0.1263
17533TIP3   OH274013   3.011   4.934  13.104 -0.3509 -0.0604  0.9949
17533TIP3    H174014   2.978   4.933  13.014 -0.2444  1.9104  0.8912
17533TIP3    H274015   3.100   4.900  13.097  0.4639  2.0982 -0.0585
17534TIP3   OH274016   0.582   2.382   6.742 -0.3299 -0.1892 -0.2418
17534TIP3    H174017   0.533   2.444   6.690  1.7038  1.4304 -0.3477
17534TIP3    H274018   0.570   2.298   6.698 -5.1572 -0.6081  1.2451
17535TIP3   OH274019   6.094   2.463   0.808  0.0946  0.4183  0.0743
17535TIP3    H174020   6.029   2.510   0.756 -1.1664  0.2607  1.4473
17535TIP3    H274021   6.137   2.532   0.860 -0.0848  0.3436  0.3246
17536TIP3   OH274022   1.651   2.578   4.299 -0.4791  0.1779 -0.0229
17536TIP3    H174023   1.614   2.493   4.276  2.0717 -0.5670 -1.9224
17536TIP3    H274024   1.631   2.635   4.224  1.9079 -0.2263 -1.0664
17537TIP3   OH274025   6.198   6.221  14.388 -0.2869 -0.0933  0.0177
17537TIP3    H174026   6.188   6.311  14.357 -2.0683  0.1889  1.3032
17537TIP3    H274027   6.177   6.168  14.311  0.4644  0.5566 -0.6658
17538TIP3   OH274028   1.919   1.213   3.495 -0.0811 -0.4379 -0.5064
17538TIP3    H174029   1.833   1.251   3.478  0.1362  0.3049 -0.0179
17538TIP3    H274030   1.978   1.289   3.499  0.3115 -0.7874  0.8189
17539TIP3   OH274031   2.619   3.510  13.221 -0.2236  0.1223 -0.3891
17539TIP3    H174032   2.696   3.525  13.277  0.3384 -0.3215 -1.0167
17539TIP3    H274033   2.544   3.516  13.280  0.3448 -0.1619  0.3763
17540TIP3   OH274034   4.072   4.905  16.199 -0.1489 -0.1196  0.6955
17540TIP3    H174035   4.048   4.812  16.200 -0.5238 -0.0585 -0.6802
17540TIP3    H274036   4.145   4.911  16.138 -0.0390  0.4823  0.8727
17541TIP3   OH274037   4.618   1.772  14.395 -0.0555 -0.6808  0.0353
17541TIP3    H174038   4.623   1.859  14.354  0.1413 -0.7502 -0.0939
17541TIP3    H274039   4.628   1.711  14.322  1.1823 -0.7991  0.2822
17542TIP3   OH274040   3.816   3.683  15.259  0.4787 -0.1708  0.0179
17542TIP3    H174041   3.793   3.612  15.199 -1.0595  0.7637 -0.5495
17542TIP3    H274042   3.911   3.692  15.250  0.6421 -1.8851 -0.1748
17543TIP3   OH274043   1.499   0.153   1.444 -0.0385 -0.3738 -0.3525
17543TIP3    H174044   1.589   0.146   1.413 -0.3477 -1.7272 -0.9957
17543TIP3    H274045   1.445   0.131   1.368 -0.8284 -2.4941  0.7382
17544TIP3   OH274046   0.602   0.412  14.123 -0.1226 -0.3318  0.9379
17544TIP3    H174047   0.557   0.346  14.071  0.6207 -0.3428  0.2948
17544TIP3    H274048   0.543   0.488  14.122 -0.4373 -0.5775  0.6873
17545TIP3   OH274049   3.199   1.318   2.830 -0.3999 -0.4394 -0.9261
17545TIP3    H174050   3.268   1.385   2.838 -0.2360 -0.7874  1.3874
17545TIP3    H274051   3.230   1.245   2.884 -1.9954 -1.1279 -0.8830
17546TIP3   OH274052   6.006   3.115  16.349 -0.3263  0.3668 -0.5363
17546TIP3    H174053   5.977   3.090  16.262  1.4984 -0.6315 -0.8965
17546TIP3    H274054   5.985   3.040  16.405  0.6499  0.0146 -0.6192
17547TIP3   OH274055   2.022   1.526  12.444 -0.1476  0.0007  0.3301
17547TIP3    H174056   1.980   1.441  12.438 -0.0596  0.0783 -2.5228
17547TIP3    H274057   1.956   1.588  12.414  1.2526  0.3334 -2.3339
17548TIP3   OH274058   2.143   4.956   3.559 -0.2420 -0.0400  0.1277
17548TIP3    H174059   2.175   5.038   3.596 -0.4900 -0.6630  1.8214
17548TIP3    H274060   2.061   4.939   3.606  0.4259 -1.8598  0.7271
17549TIP3   OH274061   0.294   4.517  15.869 -0.2793 -0.0675 -0.1777
17549TIP3    H174062   0.383   4.540  15.897  0.9088 -1.4984 -2.5124
17549TIP3    H274063   0.259   4.598  15.830  0.1873  0.3500  0.2578
17550TIP3   OH274064   2.487   6.378   5.068  0.0755 -0.0696  0.1893
17550TIP3    H174065   2.552   6.369   4.999 -0.6762  0.9953 -0.6986
17550TIP3    H274066   2.410   6.331   5.035  0.2927 -1.1558  1.1433
17551TIP3   OH274067   2.530   4.787   3.296  0.9404  0.0793 -0.1231
17551TIP3    H174068   2.594   4.719   3.315 -1.0253 -1.8450 -0.0394
17551TIP3    H274069   2.475   4.792   3.374 -1.2888 -1.0340 -1.5332
17552TIP3   OH274070   6.441   2.970   3.751  0.0409  0.2961 -0.2088
17552TIP3    H174071   6.382   3.039   3.720 -0.9523 -0.3456  0.1822
17552TIP3    H274072   6.484   2.937   3.672 -0.5352  0.4216 -0.5795
17553TIP3   OH274073   4.583   4.681  14.067  0.4842 -0.0264  0.6494
17553TIP3    H174074   4.560   4.689  14.160  1.1236  3.8159  0.6083
17553TIP3    H274075   4.673   4.648  14.067  0.3816 -0.3267  1.3680
17554TIP3   OH274076   4.872   4.129   5.214 -0.2605  0.3979  0.5113
17554TIP3    H174077   4.896   4.219   5.194  0.1934  0.2234  0.2729
17554TIP3    H274078   4.950   4.078   5.194 -0.4497 -0.0237  0.8440
17555TIP3   OH274079   4.898   5.361   2.869 -0.5902  0.4211 -0.3569
17555TIP3    H174080   4.954   5.300   2.916  1.4385  1.1055 -1.7679
17555TIP3    H274081   4.810   5.345   2.905  0.4243 -0.8549  1.7551
17556TIP3   OH274082   1.690   2.077   1.730  0.0819 -0.6381  0.0489
17556TIP3    H174083   1.715   2.019   1.802 -0.4986  1.0806  1.7251
17556TIP3    H274084   1.602   2.107   1.753  0.5587  1.3000 -0.4415
17557TIP3   OH274085   6.083   3.238  10.781 -0.1941  0.2035 -0.1275
17557TIP3    H174086   6.142   3.289  10.726  0.4566 -1.8193 -1.4361
17557TIP3    H274087   6.041   3.176  10.720 -1.4431 -0.3713  1.2461
17558TIP3   OH274088   6.353   5.135   3.161  0.3023 -0.5377  0.3338
17558TIP3    H174089   6.312   5.060   3.203  0.9490 -2.2322 -1.8720
17558TIP3    H274090   6.311   5.140   3.075  0.3865  1.5698  0.3699
17559TIP3   OH274091   1.264   0.685  11.733  0.0545 -0.2494  0.1310
17559TIP3    H174092   1.235   0.754  11.673 -0.7595 -0.3232  0.4174
17559TIP3    H274093   1.221   0.605  11.700 -2.1840  0.0746  2.0003
17560TIP3   OH274094   5.566   1.223   1.035 -0.5310  0.0871 -0.2517
17560TIP3    H174095   5.553   1.291   1.102 -0.3405  0.0523 -0.1771
17560TIP3    H274096   5.635   1.258   0.978  1.1456 -0.9371  1.0338
17561TIP3   OH274097   6.305   1.858  15.742 -0.7616 -0.1627  0.3861
17561TIP3    H174098   6.313   1.798  15.668 -3.1012 -2.2789  1.7028
17561TIP3    H274099   6.267   1.938  15.704  0.8941 -0.0411 -1.1258
17562TIP3   OH274100   6.288   2.141   6.854  0.7547  0.0698 -0.1032
17562TIP3    H174101   6.246   2.167   6.772  0.8300 -0.3380 -0.2760
17562TIP3    H274102   6.344   2.215   6.877  2.6045 -0.7433 -1.6918
17563TIP3   OH274103   3.863   6.124  14.186 -0.0415 -0.6180 -0.6835
17563TIP3    H174104   3.831   6.036  14.206 -0.9203 -0.4246 -1.1889
17563TIP3    H274105   3.893   6.118  14.095 -0.7523 -0.2221 -0.9473
17564TIP3   OH274106   3.943   5.481  11.291 -0.0471 -0.9543 -0.5388
17564TIP3    H174107   3.962   5.463  11.383 -0.4370  2.7086  0.4195
17564TIP3    H274108   4.027   5.467  11.246  1.2269  0.8305  1.0945
17565TIP3   OH274109   5.831   6.216   2.020  0.5686  0.4868  0.4268
17565TIP3    H174110   5.798   6.305   2.005  2.0589  1.1713  0.9848
17565TIP3    H274111   5.767   6.159   1.977 -0.2150  1.8443 -0.2866
17566TIP3   OH274112   1.245   3.162  16.957  0.7208 -0.4441 -0.0363
17566TIP3    H174113   1.211   3.089  16.905  0.4246 -1.1562  1.1020
17566TIP3    H274114   1.174   3.182  17.019  1.1083  0.2759  0.1877
17567TIP3   OH274115   1.596   5.820   1.709 -0.2204 -0.9423  0.6362
17567TIP3    H174116   1.663   5.752   1.710 -1.4023 -2.1426  1.2329
17567TIP3    H274117   1.527   5.785   1.653 -0.5412  0.0867  0.3692
17568TIP3   OH274118   5.204   2.349  16.344  0.2818  0.8006  0.0031
17568TIP3    H174119   5.136   2.314  16.402  1.1488 -0.6936  0.1696
17568TIP3    H274120   5.166   2.429  16.308 -0.5509  1.3896  2.0808
17569TIP3   OH274121   6.508   5.482  15.139 -0.4401 -0.2613 -0.4944
17569TIP3    H174122   6.464   5.501  15.056 -0.9524  2.0573  0.2341
17569TIP3    H274123   6.601   5.492  15.119 -0.6018  1.1659 -0.6340
17570TIP3   OH274124   2.620   6.426  13.365  0.3272 -0.1098 -0.4452
17570TIP3    H174125   2.541   6.426  13.418  0.5821 -1.1130 -0.0552
17570TIP3    H274126   2.607   6.356  13.301 -0.0125  1.1240 -1.7910
17571TIP3   OH274127   5.236   5.204  14.082 -0.3623  0.2957 -0.1100
17571TIP3    H174128   5.298   5.261  14.037 -0.6356 -0.1713 -1.0990
17571TIP3    H274129   5.159   5.201  14.024 -0.5203 -0.7275  0.1288
17572TIP3   OH274130   4.137   2.440   4.644 -0.4103  0.4931  0.6818
17572TIP3    H174131   4.080   2.408   4.574 -0.6173 -1.1000  1.5398
17572TIP3    H274132   4.078   2.458   4.717  0.0079  0.2693  1.0847
17573TIP3   OH274133   3.352   5.957  16.350 -0.7706 -0.0165 -0.0028
17573TIP3    H174134   3.407   5.908  16.411 -0.9062 -1.8637 -1.2972
17573TIP3    H274135   3.349   6.046  16.387 -1.2619 -1.1362  2.9372
17574TIP3   OH274136   2.580   3.184  13.794  0.2202  0.2859  0.2215
17574TIP3    H174137   2.609   3.181  13.703 -1.3808 -0.6696 -0.3135
17574TIP3    H274138   2.650   3.143  13.844  0.8307  0.2218 -0.6697
17575TIP3   OH274139   0.305   5.444  16.217 -0.5646 -0.6640 -0.7274
17575TIP3    H174140   0.360   5.522  16.220  0.5226 -1.2981 -2.5219
17575TIP3    H274141   0.338   5.388  16.287 -1.2761  0.3905  0.4964
17576TIP3   OH274142   5.582   5.078   4.134 -0.1112  1.3194  0.4010
17576TIP3    H174143   5.488   5.091   4.143 -0.4451  0.6967 -1.5522
17576TIP3    H274144   5.590   4.996   4.083  1.4360  1.8095 -0.2129
17577TIP3   OH274145   4.450   2.903  11.450 -0.0836 -0.5262 -0.4136
17577TIP3    H174146   4.398   2.837  11.405 -0.2267  0.0261 -1.0862
17577TIP3    H274147   4.452   2.875  11.541 -1.2502 -0.7620 -0.4423
17578TIP3   OH274148   1.166   5.022  16.480 -0.0418  0.2203 -0.5196
17578TIP3    H174149   1.170   5.025  16.575 -0.6367 -0.2055 -0.4775
17578TIP3    H274150   1.079   5.054  16.458 -0.2529 -0.5498 -0.8639
17579TIP3   OH274151   3.924   5.087   4.223 -0.4956  0.0740  0.8721
17579TIP3    H174152   3.839   5.130   4.223 -0.0394  1.0085  0.9137
17579TIP3    H274153   3.906   4.997   4.248 -1.5591  0.0679  0.1094
17580TIP3   OH274154   0.497   5.753   2.568 -0.3823 -0.5994  0.7225
17580TIP3    H174155   0.502   5.657   2.569  1.5544 -0.5414  2.0617
17580TIP3    H274156   0.569   5.780   2.511 -1.9976  0.0898 -1.1144
17581TIP3   OH274157   3.107   6.699  12.783  0.0565  0.1912 -0.4121
17581TIP3    H174158   3.196   6.716  12.752  0.0155  1.5696  0.1813
17581TIP3    H274159   3.057   6.776  12.758 -1.0223 -0.6157 -0.8404
17582TIP3   OH274160   4.614   0.242   4.052  0.3254 -0.2027  0.0509
17582TIP3    H174161   4.519   0.241   4.041  0.3737  1.6639 -0.9402
17582TIP3    H274162   4.641   0.153   4.028 -1.0771 -0.4997 -0.5820
17583TIP3   OH274163   5.267   0.860   4.920  0.4284  0.4811 -0.2444
17583TIP3    H174164   5.206   0.789   4.899 -0.4262  0.5631  1.7461
17583TIP3    H274165   5.213   0.939   4.916  1.1531  0.9423 -1.4844
17584TIP3   OH274166   6.077   2.251  16.039 -0.3235 -0.0057  0.2548
17584TIP3    H174167   5.997   2.210  16.073 -1.3485  1.6870 -0.0294
17584TIP3    H274168   6.060   2.262  15.945  0.2170  0.4145  0.2068
17585TIP3   OH274169   2.957   4.539  14.939 -0.2295  0.1040 -0.1456
17585TIP3    H174170   3.009   4.484  14.880  0.1204  1.6103 -1.3055
17585TIP3    H274171   2.895   4.584  14.881 -0.1851  1.2701  0.6833
17586TIP3   OH274172   2.410   0.125   4.792 -0.2470 -0.0341  0.4462
17586TIP3    H174173   2.369   0.150   4.710 -0.1738  0.0910  0.4481
17586TIP3    H274174   2.483   0.186   4.803 -0.6896  0.4118  0.9603
17587TIP3   OH274175   5.665   6.179   2.389  0.0217 -0.5004  0.3453
17587TIP3    H174176   5.633   6.250   2.444  0.4918  0.3425 -0.4500
17587TIP3    H274177   5.755   6.202   2.368 -0.4656 -0.2149 -1.6808
17588TIP3   OH274178   5.838   2.091   5.617  0.0609  0.8806 -0.1147
17588TIP3    H174179   5.825   2.138   5.699  0.3646 -0.0290  0.4702
17588TIP3    H274180   5.848   2.160   5.551 -0.9521  1.6268  0.4767
17589TIP3   OH274181   6.598   6.087   2.279 -0.0358 -0.0927 -0.5841
17589TIP3    H174182   6.574   6.003   2.319 -1.2869  1.1224  1.3329
17589TIP3    H274183   6.677   6.114   2.327 -0.3395  0.3924 -0.3568
17590TIP3   OH274184   2.678   6.200  10.970  0.1207  0.5540  0.7435
17590TIP3    H174185   2.692   6.255  11.047  0.3224 -0.4432  1.4363
17590TIP3    H274186   2.764   6.164  10.950  0.1280  1.0365 -0.1439
17591TIP3   OH274187   4.830   3.264  14.180  0.0024 -0.2967  0.2378
17591TIP3    H174188   4.830   3.319  14.101 -2.9331  0.3998  0.5873
17591TIP3    H274189   4.852   3.324  14.251 -1.9390  0.2285  0.4566
17592TIP3   OH274190   1.038   4.060  15.329 -0.1296 -0.4050  0.4463
17592TIP3    H174191   0.968   4.032  15.270 -0.6020 -0.4128  1.0014
17592TIP3    H274192   1.094   4.115  15.275  1.3762 -3.1374 -0.9630
17593TIP3   OH274193   4.856   0.494   6.215 -0.4394  0.1942 -0.0167
17593TIP3    H174194   4.936   0.546   6.207 -0.0298 -0.4719 -0.2977
17593TIP3    H274195   4.879   0.423   6.274 -0.7655 -0.1197 -0.2600
17594TIP3   OH274196   0.803   3.565  15.205  0.1075 -0.9010  0.5305
17594TIP3    H174197   0.853   3.611  15.273 -0.1162  1.0842 -0.5565
17594TIP3    H274198   0.719   3.546  15.247  0.1234 -0.0835  0.9672
17595TIP3   OH274199   0.340   5.972  14.285 -0.6555  0.1565  0.1580
17595TIP3    H174200   0.367   5.934  14.368 -0.4508 -0.9525 -0.3891
17595TIP3    H274201   0.267   6.030  14.307 -0.2670  0.2820  1.1626
17596TIP3   OH274202   1.507   0.513  14.207 -0.0546  0.3426 -0.3214
17596TIP3    H174203   1.589   0.550  14.240 -0.2284 -1.0228  1.8320
17596TIP3    H274204   1.532   0.426  14.175 -0.3174  0.7617 -1.7248
17597TIP3   OH274205   3.310   2.147   0.093  0.8721  0.0477  0.6017
17597TIP3    H174206   3.319   2.228   0.041 -0.4583  0.1254  0.4666
17597TIP3    H274207   3.274   2.083   0.032 -3.3899  0.8675  1.9479
17598TIP3   OH274208   1.001   4.394   3.315 -0.1325 -0.3537 -0.3309
17598TIP3    H174209   1.083   4.383   3.268 -0.0202 -1.2940  0.0531
17598TIP3    H274210   0.950   4.316   3.293 -0.2157 -0.6404  0.8018
17599TIP3   OH274211   6.720   0.444   2.344 -0.3636 -0.0320  0.1350
17599TIP3    H174212   6.677   0.528   2.360 -0.4362 -0.0791  0.1916
17599TIP3    H274213   6.774   0.458   2.267 -1.7787 -0.4430 -0.9695
17600TIP3   OH274214   6.054   2.890   1.552  0.1186 -0.3822 -0.0354
17600TIP3    H174215   6.052   2.921   1.642 -0.7274 -0.8331  0.1064
17600TIP3    H274216   6.101   2.806   1.557  1.3428  0.2651 -0.2420
17601TIP3   OH274217   1.714   1.771  16.538  0.2750  0.2970 -0.2690
17601TIP3    H174218   1.669   1.699  16.584 -0.1131  1.2292  0.8680
17601TIP3    H274219   1.730   1.836  16.606  0.0551  1.5621 -1.3906
17602TIP3   OH274220   1.221   5.189   0.135  0.1400 -0.2270  0.3293
17602TIP3    H174221   1.189   5.278   0.151  1.4114  0.0892  1.2652
17602TIP3    H274222   1.279   5.171   0.209  0.5297 -1.5382 -0.2698
17603TIP3   OH274223   5.558   1.800   0.129  0.4471  0.0986  0.0373
17603TIP3    H174224   5.463   1.799   0.142 -0.1322  3.4350 -2.6469
17603TIP3    H274225   5.592   1.849   0.204 -0.2003  0.4898  0.0820
17604TIP3   OH274226   4.731   5.359   5.353 -0.6590 -0.4707  1.1100
17604TIP3    H174227   4.798   5.427   5.340 -0.0942 -1.0211  1.1116
17604TIP3    H274228   4.681   5.390   5.429  0.0726 -0.4239  1.5853
17605TIP3   OH274229   1.546   1.569   3.016 -0.2616  0.1178  0.5962
17605TIP3    H174230   1.586   1.483   3.003  0.2237  0.6517 -1.9723
17605TIP3    H274231   1.455   1.558   2.989 -0.5327  0.1214  1.4914
17606TIP3   OH274232   6.211   2.833  16.149 -0.2335  0.3023  0.1754
17606TIP3    H174233   6.158   2.783  16.211 -0.7697  0.8435  0.1587
17606TIP3    H274234   6.173   2.813  16.064  0.2538 -0.1284  0.0510
17607TIP3   OH274235   0.243   1.988  12.806 -0.1708  0.2465  0.8741
17607TIP3    H174236   0.162   2.025  12.841 -1.4397 -1.7892  0.2565
17607TIP3    H274237   0.244   1.898  12.838  0.7074 -0.4440 -0.9558
17608TIP3   OH274238   0.146   5.804   0.042  0.3023  0.2026  0.7204
17608TIP3    H174239   0.108   5.738   0.100  1.4043 -0.3614  0.8059
17608TIP3    H274240   0.077   5.822  -0.022 -0.8151  0.5775  1.9696
17609TIP3   OH274241   2.341   1.632  13.141 -0.0021 -0.0869 -0.2829
17609TIP3    H174242   2.416   1.575  13.155  0.6565  0.7966 -0.1296
17609TIP3    H274243   2.339   1.689  13.218 -0.5749  0.1741 -0.4846
17610TIP3   OH274244   5.966   3.457  14.009  0.1337 -0.2668  0.0698
17610TIP3    H174245   5.979   3.418  14.095  0.0628 -1.2636 -0.3611
17610TIP3    H274246   6.016   3.402  13.949  0.4440  0.6016 -0.4988
17611TIP3   OH274247   3.004   2.613  10.818  0.4951 -0.1573 -0.2088
17611TIP3    H174248   3.062   2.559  10.765 -0.2550 -1.1242 -0.0823
17611TIP3    H274249   3.022   2.703  10.791  2.6746 -0.3432  0.4719
17612TIP3   OH274250   5.663   1.635  17.122 -0.2391  0.4748  0.1252
17612TIP3    H174251   5.707   1.719  17.138 -0.5142  0.9084 -1.2874
17612TIP3    H274252   5.573   1.649  17.151 -0.1952  0.5486  0.2269
17613TIP3   OH274253   6.599   5.085   2.604  0.1593  0.2935 -0.5497
17613TIP3    H174254   6.505   5.066   2.595  0.2324 -0.0689 -0.5286
17613TIP3    H274255   6.602   5.180   2.618 -0.4298 -0.0100  2.2312
17614TIP3   OH274256   3.428   4.008  11.936 -0.2470  0.1028 -0.2469
17614TIP3    H174257   3.524   4.004  11.940 -0.2198  0.1614 -0.7071
17614TIP3    H274258   3.404   3.931  11.883 -0.5102 -0.3808  0.5634
17615TIP3   OH274259   2.635   0.896  13.273 -0.0188  0.3319 -0.0654
17615TIP3    H174260   2.584   0.847  13.338  1.2151 -0.8717  0.0397
17615TIP3    H274261   2.656   0.979  13.316 -1.5204  0.6777  0.0387
17616TIP3   OH274262   4.764   6.036   5.145 -0.3613 -0.6771 -0.3850
17616TIP3    H174263   4.759   6.125   5.108 -0.7834 -0.2117  0.7341
17616TIP3    H274264   4.752   5.978   5.070  2.5735  0.1193 -1.6299
17617TIP3   OH274265   2.526   4.787   6.277  0.2185  0.3979  0.8689
17617TIP3    H174266   2.536   4.699   6.314  1.0810  0.6949  1.3688
17617TIP3    H274267   2.444   4.783   6.228  0.3436 -0.7477  0.7144
17618TIP3   OH274268   2.408   4.811   3.553  0.3978 -0.4731  0.2046
17618TIP3    H174269   2.315   4.829   3.566  0.2755 -0.9383  0.0135
17618TIP3    H274270   2.451   4.848   3.630  0.5909  3.6771 -1.6167
17619TIP3   OH274271   5.301   6.139   1.935  0.1155  0.5432  0.5740
17619TIP3    H174272   5.331   6.217   1.890 -0.4452  1.3056  1.4902
17619TIP3    H274273   5.229   6.169   1.991 -1.9223 -1.0805 -0.9936
17620TIP3   OH274274   6.189   3.798   2.683 -0.4104  0.3304 -0.0634
17620TIP3    H174275   6.220   3.774   2.596  1.5964  1.1519  0.3623
17620TIP3    H274276   6.096   3.775   2.683 -0.0730 -1.2814 -1.8203
17621TIP3   OH274277   6.585   2.826  16.024  0.0820 -0.3342 -0.1051
17621TIP3    H174278   6.540   2.843  16.106 -0.3598  0.9031 -0.5861
17621TIP3    H274279   6.664   2.880  16.027  0.6258 -1.1024 -0.0510
17622TIP3   OH274280   1.655   2.421  14.165  0.7984 -0.2820 -0.3889
17622TIP3    H174281   1.735   2.458  14.127  1.0450 -0.8997 -0.4748
17622TIP3    H274282   1.675   2.410  14.257 -0.1660  2.2476  0.2123
17623TIP3   OH274283   0.339   0.516   3.034 -0.4537  0.1965  0.5972
17623TIP3    H174284   0.296   0.445   2.987  0.9247 -0.9389  1.0004
17623TIP3    H274285   0.431   0.510   3.010 -0.1675  1.3190  1.3073
17624TIP3   OH274286   1.027   2.496   1.292  0.0807 -0.0838  0.2795
17624TIP3    H174287   0.981   2.580   1.296 -1.1441 -0.6070 -1.3971
17624TIP3    H274288   1.026   2.474   1.199 -1.1246 -2.7374  0.8376
17625TIP3   OH274289   1.132   0.320  13.683 -0.2650 -0.5487 -0.3577
17625TIP3    H174290   1.119   0.226  13.673 -2.0276 -0.3367 -0.4350
17625TIP3    H274291   1.085   0.343  13.764  0.2397  0.2560 -0.2708
17626TIP3   OH274292   5.704   1.730  16.827  0.1772 -0.8342 -0.1175
17626TIP3    H174293   5.780   1.784  16.808 -0.4745  0.5518  1.0794
17626TIP3    H274294   5.713   1.707  16.920 -0.4926 -1.2720 -0.1526
17627TIP3   OH274295   3.559   5.476   1.648 -0.5082  0.1444 -0.4145
17627TIP3    H174296   3.545   5.567   1.674 -1.0598 -0.0291 -0.0841
17627TIP3    H274297   3.612   5.438   1.718  1.1228  0.6217 -1.3353
17628TIP3   OH274298   2.203   4.711   2.241 -0.0484 -0.0085  0.0989
17628TIP3    H174299   2.210   4.761   2.160  0.9845 -0.6554 -0.2218
17628TIP3    H274300   2.126   4.655   2.228 -0.6284  0.7804  0.0789
17629TIP3   OH274301   0.436   5.078  12.911  0.1057  0.3854 -0.2177
17629TIP3    H174302   0.512   5.065  12.855 -2.0758 -2.1024 -2.9090
17629TIP3    H274303   0.371   5.121  12.855 -1.5619 -0.4827  0.9431
17630TIP3   OH274304   5.812   2.005  11.603 -0.3046  0.1953  0.0407
17630TIP3    H174305   5.896   1.985  11.562  0.4327  1.3434  0.9406
17630TIP3    H274306   5.747   1.987  11.535  0.5742 -1.5575 -0.3883
17631TIP3   OH274307   3.052   1.358   5.369  0.0575 -0.6425  0.3342
17631TIP3    H174308   3.029   1.289   5.431 -0.3160  1.6213  2.9363
17631TIP3    H274309   2.984   1.424   5.381  1.7913  1.3360 -0.0082
17632TIP3   OH274310   1.901   2.677  15.726  0.1832 -0.3439  0.0719
17632TIP3    H174311   1.807   2.673  15.708 -0.2414  1.1406  1.6851
17632TIP3    H274312   1.941   2.636  15.649 -1.6857  0.8155 -1.6407
17633TIP3   OH274313   6.262   1.902   0.223 -0.4154 -0.1644 -0.3443
17633TIP3    H174314   6.294   1.812   0.213 -1.1247 -0.4690  0.0624
17633TIP3    H274315   6.204   1.915   0.148 -0.6393 -0.1921 -0.1771
17634TIP3   OH274316   0.648   3.368  11.899  0.3803 -0.4140  0.1191
17634TIP3    H174317   0.624   3.289  11.850  0.3897 -0.1538 -0.3100
17634TIP3    H274318   0.628   3.440  11.839  1.4205 -0.1423  0.0865
17635TIP3   OH274319   2.402   4.634   5.188 -0.0548  0.1647 -0.3472
17635TIP3    H174320   2.407   4.538   5.188  0.2577  0.1605 -1.9024
17635TIP3    H274321   2.471   4.661   5.250 -0.8384 -0.6119  0.9071
17636TIP3   OH274322   6.250   5.420   6.139 -0.3637 -0.0263 -0.1266
17636TIP3    H174323   6.223   5.384   6.223 -0.4341  0.6896  0.1698
17636TIP3    H274324   6.339   5.389   6.126 -0.4047 -0.2588  0.1387
17637TIP3   OH274325   4.314   3.901   0.086 -0.3134 -0.2862 -0.2241
17637TIP3    H174326   4.294   3.852   0.166 -1.2037 -0.3081 -0.4532
17637TIP3    H274327   4.322   3.992   0.114 -0.0204 -0.3748 -0.0166
17638TIP3   OH274328   1.134   2.006  17.248 -0.2406  0.1500  0.4154
17638TIP3    H174329   1.162   2.088  17.288  0.1811  0.6884 -0.9371
17638TIP3    H274330   1.048   1.988  17.287 -0.3956  1.2996  0.6251
17639TIP3   OH274331   5.762   0.221   6.137 -0.0944 -0.1479 -0.1359
17639TIP3    H174332   5.734   0.147   6.083 -0.3431 -0.0721 -0.1075
17639TIP3    H274333   5.838   0.257   6.091 -0.2343 -0.1568 -0.3702
17640TIP3   OH274334   5.472   2.585   2.457 -0.0046  0.5702  0.3262
17640TIP3    H174335   5.566   2.568   2.448 -0.0730 -0.4850  1.3291
17640TIP3    H274336   5.459   2.669   2.414  1.6514  1.4230  1.3651
17641TIP3   OH274337   0.565   0.136  12.069 -0.3589 -0.0972  1.2580
17641TIP3    H174338   0.594   0.204  12.007 -1.8131  1.3199  2.0576
17641TIP3    H274339   0.636   0.131  12.133  0.2799 -0.1645  0.5638
17642TIP3   OH274340   0.661   6.407  11.988  0.3734  0.2933  0.2536
17642TIP3    H174341   0.637   6.320  12.022  0.2818  0.6161  1.0406
17642TIP3    H274342   0.578   6.455  11.985  0.6269  0.8292  1.2533
17643TIP3   OH274343   3.066   1.955  14.991 -0.5297  0.2315 -0.6793
17643TIP3    H174344   3.086   2.029  15.048 -0.0323  1.3364 -2.2124
17643TIP3    H274345   3.092   1.878  15.042 -0.4432  1.1332  0.7078
17644TIP3   OH274346   5.002   3.753  13.894  0.1262 -0.2418 -0.3327
17644TIP3    H174347   5.037   3.835  13.931 -0.9145  0.0271  0.0837
17644TIP3    H274348   4.970   3.705  13.970 -0.7491 -0.3104 -0.7400
17645TIP3   OH274349   4.096   3.627   2.317 -0.1672  0.5807 -0.2812
17645TIP3    H174350   4.163   3.680   2.273 -1.3021  1.7943 -0.6005
17645TIP3    H274351   4.036   3.602   2.247 -0.4132  0.0401  0.1150
17646TIP3   OH274352   3.706   1.194  14.817 -0.2738  0.0219  0.2465
17646TIP3    H174353   3.690   1.104  14.791 -2.2443  0.5569 -0.5262
17646TIP3    H274354   3.745   1.235  14.740 -1.5001  0.3708 -0.2090
17647TIP3   OH274355   6.715   0.707   2.267 -0.5521  0.2976 -0.2594
17647TIP3    H174356   6.699   0.789   2.221 -0.5912  0.0889 -0.6244
17647TIP3    H274357   6.741   0.646   2.198  0.0123  0.1482  0.0790
17648TIP3   OH274358   2.307   3.291   2.288 -0.2662  0.0301 -0.2770
17648TIP3    H174359   2.344   3.372   2.323 -1.7717  0.4076  0.5592
17648TIP3    H274360   2.370   3.261   2.223  1.9851  0.0855  1.7520
17649TIP3   OH274361   0.373   0.003   0.073 -0.5870  0.2570 -0.6190
17649TIP3    H174362   0.365  -0.033  -0.015 -0.0619  1.9249 -1.3905
17649TIP3    H274363   0.464   0.035   0.077 -1.2124  2.0951 -0.2678
17650TIP3   OH274364   4.232   1.991   0.284  0.0940 -0.1926  0.1288
17650TIP3    H174365   4.238   2.078   0.245  1.1710  0.8477  2.4152
17650TIP3    H274366   4.161   1.997   0.348  1.4280 -0.3393  1.6964
17651TIP3   OH274367   1.184   0.609  15.028  0.1293 -0.3709 -0.0021
17651TIP3    H174368   1.172   0.622  14.934 -1.0443 -1.1602  0.0179
17651TIP3    H274369   1.137   0.528  15.047  1.6434 -1.0719  1.0041
17652TIP3   OH274370   4.932   0.944   2.542 -0.0317 -0.1889  0.1344
17652TIP3    H174371   5.000   0.992   2.588 -1.3087  1.9560 -0.1129
17652TIP3    H274372   4.944   0.967   2.450 -1.3872  0.6537  0.1448
17653TIP3   OH274373   1.619   4.312   1.146 -0.2480  0.0470  0.1312
17653TIP3    H174374   1.685   4.356   1.092 -0.2945 -0.8334 -0.6670
17653TIP3    H274375   1.668   4.277   1.221  0.9125 -3.3258 -1.9568
17654TIP3   OH274376   0.467   1.666  15.457  0.1626 -0.2255 -0.0866
17654TIP3    H174377   0.476   1.636  15.547  0.7372 -0.1703 -0.1178
17654TIP3    H274378   0.415   1.746  15.463 -0.5205 -0.6819  0.1025
17655TIP3   OH274379   2.096   5.249  16.303 -0.2871  0.4735 -0.3375
17655TIP3    H174380   2.146   5.217  16.228 -0.3541  1.3276 -0.7573
17655TIP3    H274381   2.161   5.253  16.374  0.1045  0.9800 -0.7150
17656TIP3   OH274382   5.155   1.162  14.416  0.0292 -0.0867  0.3375
17656TIP3    H174383   5.216   1.088  14.417  0.5183  0.2965 -0.2557
17656TIP3    H274384   5.080   1.130  14.366 -0.1655 -0.4819  0.8692
17657TIP3   OH274385   2.882   2.092  12.618 -0.2234 -0.5788  0.2042
17657TIP3    H174386   2.923   2.163  12.569  0.1644 -0.9964 -0.0840
17657TIP3    H274387   2.952   2.058  12.674 -1.0395  0.9030  2.2336
17658TIP3   OH274388   1.708   2.427   5.943 -0.6620 -0.2542  0.0550
17658TIP3    H174389   1.778   2.382   5.895  0.1316  0.4694  0.5082
17658TIP3    H274390   1.659   2.474   5.876  1.7543  2.5781  0.0383
17659TIP3   OH274391   3.544   1.124   4.027 -0.3926 -0.3011  0.0910
17659TIP3    H174392   3.579   1.149   3.942 -1.5161  1.7576  0.1815
17659TIP3    H274393   3.476   1.059   4.007  2.4213 -3.4787 -0.1534
17660TIP3   OH274394   0.443   0.933  16.728 -0.0985  0.3194 -0.8257
17660TIP3    H174395   0.531   0.960  16.702  0.3913  0.4150  0.8189
17660TIP3    H274396   0.388   1.011  16.715  0.9013  1.6085  1.9875
17661TIP3   OH274397   6.324   6.649   2.696  0.1294  0.0319 -0.0833
17661TIP3    H174398   6.283   6.631   2.612 -0.3522  1.3493 -0.1550
17661TIP3    H274399   6.279   6.727   2.728 -0.8444 -1.3572  2.1694
17662TIP3   OH274400   6.725   4.042  14.361 -0.0256 -0.5967  0.1696
17662TIP3    H174401   6.705   4.071  14.450 -0.2438  2.0037 -0.6356
17662TIP3    H274402   6.748   4.122  14.315 -1.5920 -1.6046 -2.5780
17663TIP3   OH274403   3.184   5.399  16.956 -0.0996  0.3455 -0.3629
17663TIP3    H174404   3.106   5.451  16.938  0.5684  0.6389 -2.8267
17663TIP3    H274405   3.231   5.448  17.022 -1.6313  0.5190  0.6529
17664TIP3   OH274406   6.355   4.065  14.411  0.0970 -0.2225  0.3565
17664TIP3    H174407   6.412   4.040  14.339  0.8394 -1.6427  1.3936
17664TIP3    H274408   6.386   4.152  14.436 -0.0983  0.2457 -0.9292
17665TIP3   OH274409   4.279   0.280  14.538 -0.6751 -0.0488  0.0910
17665TIP3    H174410   4.223   0.236  14.474 -0.6030  0.0524 -0.0409
17665TIP3    H274411   4.220   0.340  14.584 -1.1384 -1.4317  1.3773
17666TIP3   OH274412   0.665   1.811  16.933 -0.3958  0.7207  0.0566
17666TIP3    H174413   0.712   1.858  16.863 -1.9368  1.5173 -0.4776
17666TIP3    H274414   0.644   1.878  16.997 -2.1183  0.6997 -0.4414
17667TIP3   OH274415   3.032   4.270  12.145 -0.0617 -0.0206  0.1100
17667TIP3    H174416   3.089   4.194  12.133 -0.2894 -0.0630 -0.7730
17667TIP3    H274417   3.075   4.323  12.213 -0.3033 -1.3083  1.3090
17668TIP3   OH274418   0.939   4.902  15.159  0.0412 -0.1042 -0.0432
17668TIP3    H174419   0.886   4.823  15.158  0.5315 -0.4329 -0.3907
17668TIP3    H274420   0.903   4.954  15.232 -0.9101 -0.1996 -0.4347
17669TIP3   OH274421   3.063   3.628   1.417 -0.4489  0.5918 -0.3163
17669TIP3    H174422   3.059   3.649   1.323  2.5395 -0.5375 -0.8124
17669TIP3    H274423   2.985   3.574   1.433 -1.0365  0.8319 -2.1407
17670TIP3   OH274424   0.087   4.176  12.240  0.0020  0.5120 -0.1044
17670TIP3    H174425   0.020   4.218  12.186 -0.4899 -0.2310 -0.0883
17670TIP3    H274426   0.115   4.245  12.301 -1.0604  0.7234  0.1805
17671TIP3   OH274427   3.934   4.615   3.021 -0.5753 -0.6281 -0.0706
17671TIP3    H174428   3.937   4.546   3.088 -3.0867  0.0226  0.8063
17671TIP3    H274429   4.006   4.674   3.044  2.0129 -3.1352 -1.1638
17672TIP3   OH274430   6.522   2.745  13.806 -0.0433  0.3663  0.1739
17672TIP3    H174431   6.472   2.767  13.885 -0.2623  0.7143 -0.0597
17672TIP3    H274432   6.614   2.756  13.831 -0.0692 -0.4121  0.6495
17673TIP3   OH274433   3.705   3.952  15.060  0.4160  0.0154  0.8126
17673TIP3    H174434   3.716   3.974  15.153 -1.1822  1.8382  0.6428
17673TIP3    H274435   3.696   3.856  15.059  0.9677 -0.0863  2.4764
17674TIP3   OH274436   2.511   0.940  12.066  0.1393  0.3292 -0.3621
17674TIP3    H174437   2.494   0.942  12.160  1.5474  2.8027 -0.0957
17674TIP3    H274438   2.606   0.942  12.058  0.0316  1.5305 -1.8197
17675TIP3   OH274439   3.304   1.369  12.168 -0.1266 -0.2909 -0.2640
17675TIP3    H174440   3.355   1.319  12.231 -1.2690 -1.2329 -0.0447
17675TIP3    H274441   3.330   1.334  12.083  1.7894  1.3262 -0.4151
17676TIP3   OH274442   1.939   6.745  15.418  0.2282 -0.1256 -0.0638
17676TIP3    H174443   1.965   6.817  15.362  0.0684 -0.9770 -1.2669
17676TIP3    H274444   1.857   6.713  15.381 -0.6727  0.2106  1.5263
17677TIP3   OH274445   1.123   3.085  17.268 -0.7021  0.0471 -0.6799
17677TIP3    H174446   1.161   3.173  17.274 -1.3526  0.3410 -0.8190
17677TIP3    H274447   1.046   3.096  17.212 -0.9881 -0.5391 -0.4087
17678TIP3   OH274448   4.657   5.733  17.009 -0.1178 -0.0578 -0.2658
17678TIP3    H174449   4.655   5.638  16.993 -0.4165 -0.0497 -0.2975
17678TIP3    H274450   4.738   5.763  16.968  1.7255 -0.7774  2.5598
17679TIP3   OH274451   3.814   5.130   3.772  0.0135 -0.4550  0.4138
17679TIP3    H174452   3.828   5.114   3.865 -0.1436  0.2759  0.5767
17679TIP3    H274453   3.901   5.125   3.733  0.2601  0.4319  0.8107
17680TIP3   OH274454   2.962   2.338  16.847 -0.8953 -0.5219 -0.0527
17680TIP3    H174455   3.050   2.326  16.811 -0.7365  0.6281 -0.0986
17680TIP3    H274456   2.906   2.350  16.770 -0.8851 -0.0397  0.0125
17681TIP3   OH274457   5.605   4.451  15.778  0.2682 -0.2352 -0.8731
17681TIP3    H174458   5.624   4.476  15.688  1.2885 -0.1206 -0.6416
17681TIP3    H274459   5.512   4.470  15.789 -0.2885 -1.8256 -2.3916
17682TIP3   OH274460   4.840   1.692  13.522  0.0740  0.3756  0.5381
17682TIP3    H174461   4.837   1.601  13.551  0.1857  0.2635  0.1934
17682TIP3    H274462   4.848   1.742  13.604 -0.7542  0.1260  0.7825
17683TIP3   OH274463   3.489   1.476   1.249  0.7735  0.4830  0.1135
17683TIP3    H174464   3.554   1.471   1.319 -0.4508  0.1718  1.2651
17683TIP3    H274465   3.520   1.547   1.192  1.9080  0.5898  0.8426
17684TIP3   OH274466   2.654   4.839   6.044 -0.1026  0.2135  0.3960
17684TIP3    H174467   2.599   4.813   6.118 -0.2093  0.4125  0.3897
17684TIP3    H274468   2.645   4.935   6.042  1.3519  0.3936  1.2639
17685TIP3   OH274469   0.133   3.033   2.330 -0.2144 -0.1576 -0.3268
17685TIP3    H174470   0.143   3.095   2.403 -0.7936 -1.2257  0.6887
17685TIP3    H274471   0.210   3.048   2.276 -0.4779  1.6449 -0.2602
17686TIP3   OH274472   0.703   5.732   3.420 -0.1874 -0.0151 -0.1450
17686TIP3    H174473   0.671   5.823   3.425 -0.6692 -0.1393 -0.7165
17686TIP3    H274474   0.791   5.735   3.457 -0.2910  0.6424  0.0653
17687TIP3   OH274475   4.466   5.994   4.179  0.5343 -0.1717  0.0150
17687TIP3    H174476   4.427   5.914   4.215  1.1049 -0.4321  0.0668
17687TIP3    H274477   4.392   6.043   4.144  0.3375 -1.4712 -1.5270
17688TIP3   OH274478   6.288   3.404  16.154 -0.1850  0.4780 -0.0658
17688TIP3    H174479   6.355   3.453  16.202 -0.0859 -0.3692  0.6918
17688TIP3    H274480   6.240   3.356  16.222 -1.0918  0.5022 -0.6644
17689TIP3   OH274481   1.692   4.785   3.913  0.1261 -0.3483  0.7360
17689TIP3    H174482   1.623   4.721   3.897 -0.0174  0.0064 -0.0842
17689TIP3    H274483   1.694   4.839   3.834 -0.1679  1.0605  1.6647
17690TIP3   OH274484   1.810   6.405   4.482 -0.4862 -0.2469  0.4946
17690TIP3    H174485   1.740   6.412   4.546 -0.4016  0.5420  0.5077
17690TIP3    H274486   1.840   6.495   4.469  0.2816 -0.5378  0.2217
17691TIP3   OH274487   4.944   2.014  12.749  0.3965 -0.6469 -0.1536
17691TIP3    H174488   5.035   1.991  12.728  0.5136 -0.6887  0.3757
17691TIP3    H274489   4.895   1.992  12.670  0.9502  0.0420 -0.7015
17692TIP3   OH274490   2.869   0.509   4.752 -0.3334 -0.3314 -0.1943
17692TIP3    H174491   2.861   0.567   4.677  0.4426 -0.6192 -0.5028
17692TIP3    H274492   2.937   0.549   4.806  0.0805 -0.8619 -0.3231
17693TIP3   OH274493   6.152   0.194  11.605  0.4622 -0.2172  0.3714
17693TIP3    H174494   6.183   0.179  11.516 -1.4865 -0.6449 -0.2981
17693TIP3    H274495   6.230   0.219  11.655  1.8433 -1.3772 -1.1173
17694TIP3   OH274496   0.072   5.011  14.656 -0.0554  0.3569 -0.1009
17694TIP3    H174497   0.031   5.081  14.606  0.0529 -1.0515 -2.2937
17694TIP3    H274498   0.166   5.023  14.640  0.0002  0.0767  0.0216
17695TIP3   OH274499   1.849   1.092  15.415 -0.2524  0.1679 -0.1943
17695TIP3    H174500   1.873   1.146  15.491  0.9935 -0.3792 -0.1551
17695TIP3    H274501   1.858   1.150  15.340 -1.1695  0.6252  0.0385
17696TIP3   OH274502   3.149   4.789   0.110 -0.3595 -0.4025  0.6342
17696TIP3    H174503   3.126   4.720   0.172 -1.4793 -0.2622  0.4003
17696TIP3    H274504   3.244   4.781   0.099  0.0375  0.1316  3.0268
17697TIP3   OH274505   0.314   1.363  17.237  0.5907  0.6339 -0.2276
17697TIP3    H174506   0.355   1.401  17.315  2.7774  0.8261 -1.4046
17697TIP3    H274507   0.299   1.272  17.260 -0.7049  1.1301  1.0951
17698TIP3   OH274508   6.734   3.158   4.177  0.0153  0.2361 -0.2762
17698TIP3    H174509   6.674   3.113   4.117 -2.4251 -0.0410  2.1909
17698TIP3    H274510   6.815   3.108   4.171 -0.5434 -0.5427 -2.3355
17699TIP3   OH274511   5.652   0.741   5.397 -0.2009  0.3060 -0.1483
17699TIP3    H174512   5.584   0.679   5.370  1.1475 -0.6905 -1.4392
17699TIP3    H274513   5.605   0.820   5.420 -1.8684 -0.6828 -0.0018
17700TIP3   OH274514   2.494   3.921   2.857 -0.5939  1.1133  0.2161
17700TIP3    H174515   2.550   3.888   2.786 -1.9110 -0.1155 -0.2912
17700TIP3    H274516   2.473   4.011   2.831 -0.8348  0.7664 -0.8221
17701TIP3   OH274517   4.815   0.886  10.882  0.6836  0.0538 -0.9912
17701TIP3    H174518   4.831   0.792  10.879  1.5509  0.1412  0.1108
17701TIP3    H274519   4.743   0.896  10.945  0.0858  0.0861 -1.6655
17702TIP3   OH274520   1.652   4.304   3.178 -0.0272  0.3334 -0.1104
17702TIP3    H174521   1.670   4.232   3.238  0.3769  0.7722  0.2956
17702TIP3    H274522   1.571   4.343   3.211 -0.3649 -0.0596 -0.4559
17703TIP3   OH274523   1.744   6.487   0.188 -0.3859 -0.3711 -0.2041
17703TIP3    H174524   1.698   6.443   0.117  0.4135 -0.7307 -0.5127
17703TIP3    H274525   1.697   6.569   0.201 -2.2447 -1.5311  0.7309
17704TIP3   OH274526   0.248   6.263  11.801 -0.7300 -0.7524  0.1583
17704TIP3    H174527   0.198   6.190  11.766 -2.4185  0.6177 -0.4437
17704TIP3    H274528   0.259   6.243  11.894 -0.3566 -2.1777 -0.1744
17705TIP3   OH274529   1.301   6.596  13.075  0.3230  0.4837  0.3661
17705TIP3    H174530   1.278   6.539  13.003  2.4759 -1.4506  1.0708
17705TIP3    H274531   1.267   6.682  13.051 -1.9155 -0.7950 -1.3379
17706TIP3   OH274532   1.423   3.621   0.470 -0.0126 -0.2107 -0.0854
17706TIP3    H174533   1.500   3.673   0.445  0.3719 -0.8626 -0.2730
17706TIP3    H274534   1.436   3.603   0.563  0.3417 -0.7906 -0.2465
17707TIP3   OH274535   2.780   0.722   0.201 -0.0864  0.0661 -0.4096
17707TIP3    H174536   2.768   0.786   0.130 -0.7497  1.8796  1.2293
17707TIP3    H274537   2.697   0.673   0.203 -0.3831  0.5588 -0.3978
17708TIP3   OH274538   6.246   4.607  10.356 -0.0816 -0.5315 -0.2125
17708TIP3    H174539   6.258   4.512  10.355  1.3068 -0.3865  0.2517
17708TIP3    H274540   6.163   4.620  10.401  0.4352 -1.4928  1.0935
17709TIP3   OH274541   5.224   0.441  12.245  0.3983 -0.1839 -0.3482
17709TIP3    H174542   5.252   0.474  12.159 -1.0355 -0.2883 -0.8841
17709TIP3    H274543   5.182   0.357  12.225 -0.7045  0.1893  0.3475
17710TIP3   OH274544   5.342   5.723   3.014  0.0773 -0.3834  0.2755
17710TIP3    H174545   5.288   5.787   2.968  0.4761 -0.4232 -0.2586
17710TIP3    H274546   5.317   5.732   3.106  0.6135  1.0316  0.3033
17711TIP3   OH274547   3.239   5.279   5.497 -0.5280  0.1626 -0.7999
17711TIP3    H174548   3.321   5.259   5.544 -0.3753  0.4675 -0.9320
17711TIP3    H274549   3.266   5.291   5.406 -0.4217  2.0972 -0.5507
17712TIP3   OH274550   2.574   4.469  15.432  0.3577  0.1432  0.0758
17712TIP3    H174551   2.566   4.504  15.521 -0.8806  2.6829 -0.9188
17712TIP3    H274552   2.593   4.376  15.444 -0.2404  0.3031  2.9758
17713TIP3   OH274553   1.322   2.754  11.465  0.5317  0.7374 -0.1818
17713TIP3    H174554   1.369   2.818  11.412  0.5867 -0.0794 -1.1611
17713TIP3    H274555   1.284   2.694  11.401  1.1711 -0.6842  0.7252
17714TIP3   OH274556   4.837   4.640  16.226 -0.4082 -0.0271  0.9043
17714TIP3    H174557   4.803   4.641  16.315 -3.4154 -2.0927 -0.0815
17714TIP3    H274558   4.816   4.727  16.192 -1.3538 -0.0060  1.5012
17715TIP3   OH274559   1.402   1.013  11.560 -0.4175 -0.6696 -0.5335
17715TIP3    H174560   1.390   1.096  11.513  1.3593  0.4633  0.9004
17715TIP3    H274561   1.349   1.022  11.639  0.1428 -0.7059 -0.1499
17716TIP3   OH274562   4.412   0.633  13.304  0.3289 -0.3013 -0.2889
17716TIP3    H174563   4.364   0.572  13.249  1.3104 -0.8227 -0.5917
17716TIP3    H274564   4.413   0.593  13.391  1.0888 -0.8107 -0.5169
17717TIP3   OH274565   5.226   5.305   4.404 -0.0948 -0.5626  0.3928
17717TIP3    H174566   5.242   5.274   4.493 -0.7014  0.1218  0.7553
17717TIP3    H274567   5.132   5.290   4.390  0.1900 -1.6318 -0.5284
17718TIP3   OH274568   0.599   1.165  15.213  0.1730 -1.0384 -0.8207
17718TIP3    H174569   0.626   1.094  15.154  0.1841  0.6316 -2.9652
17718TIP3    H274570   0.587   1.241  15.155 -0.7777  0.4803  1.2352
17719TIP3   OH274571   3.678   4.000  13.540 -0.3888 -0.5004 -0.1672
17719TIP3    H174572   3.704   3.924  13.591 -1.2630 -1.1265 -0.6249
17719TIP3    H274573   3.731   4.072  13.574 -0.4850 -1.0448  1.1621
17720TIP3   OH274574   6.131   2.450   1.836 -0.8745  0.1733 -0.2867
17720TIP3    H174575   6.074   2.515   1.793 -2.0426 -0.4831  0.2260
17720TIP3    H274576   6.212   2.454   1.786 -2.0144 -0.2265 -2.3141
17721TIP3   OH274577   4.666   5.259   3.765 -0.2058 -0.2641 -0.4165
17721TIP3    H174578   4.707   5.321   3.704 -1.0115 -0.9725 -1.7125
17721TIP3    H274579   4.580   5.241   3.727 -2.0186  1.5492  2.4858
17722TIP3   OH274580   1.806   5.614   1.754 -0.2640 -0.1560 -0.1699
17722TIP3    H174581   1.814   5.538   1.696 -0.4220 -0.9862  0.8556
17722TIP3    H274582   1.893   5.653   1.755  0.8768 -2.4273  2.0154
17723TIP3   OH274583   5.632   1.623   6.654 -0.0580  0.1360 -0.1764
17723TIP3    H174584   5.709   1.621   6.597  0.7275 -1.4414  0.8534
17723TIP3    H274585   5.560   1.591   6.599 -0.0587  1.7695 -1.1953
17724TIP3   OH274586   4.662   3.490  15.716 -0.6053 -0.7522  0.2317
17724TIP3    H174587   4.719   3.561  15.687 -0.3014 -0.5555  1.2545
17724TIP3    H274588   4.690   3.414  15.664 -2.2056  0.2409 -2.2558
17725TIP3   OH274589   3.626   0.692  16.415  0.0371 -0.1093  0.2355
17725TIP3    H174590   3.716   0.716  16.437  0.9808 -0.5049 -2.7187
17725TIP3    H274591   3.583   0.775  16.395  0.5911 -0.1057 -1.0157
17726TIP3   OH274592   0.082   1.395   5.245  0.0062  0.0592 -0.2607
17726TIP3    H174593   0.092   1.424   5.335  1.0773 -0.8266 -0.0631
17726TIP3    H274594   0.041   1.469   5.200  1.2561  1.2972  0.5340
17727TIP3   OH274595   5.876   4.834   2.964  0.2020  0.6199 -0.4177
17727TIP3    H174596   5.927   4.905   3.003  2.3940 -0.1182 -1.7587
17727TIP3    H274597   5.867   4.769   3.034  0.3999  1.1056  0.0632
17728TIP3   OH274598   0.334   6.469  15.263  0.2671 -0.4742  0.0035
17728TIP3    H174599   0.409   6.449  15.319 -0.5419 -2.2619  0.4947
17728TIP3    H274600   0.359   6.436  15.177  0.7670  0.6233 -0.2939
17729TIP3   OH274601   3.705   0.520  16.231  0.0672 -0.3014 -0.1973
17729TIP3    H174602   3.796   0.520  16.261  0.0538  1.3069 -0.0944
17729TIP3    H274603   3.655   0.556  16.303 -0.3991  0.5790 -0.9426
17730TIP3   OH274604   6.719   4.441  13.955  0.2743  0.2384 -0.2461
17730TIP3    H174605   6.808   4.467  13.932 -0.1850  1.3617 -0.8157
17730TIP3    H274606   6.697   4.373  13.892  1.1028 -0.8578  0.5887
17731TIP3   OH274607   5.967   2.341  16.723 -0.5391 -0.0122 -0.1895
17731TIP3    H174608   5.953   2.247  16.720  0.9270 -0.2593 -0.2459
17731TIP3    H274609   6.039   2.353  16.785 -0.9990  1.1210  0.1652
17732TIP3   OH274610   0.640   3.438   5.867 -0.2880 -0.1855  0.1596
17732TIP3    H174611   0.603   3.352   5.846 -0.6518 -0.0402  0.1957
17732TIP3    H274612   0.593   3.466   5.946  1.3119 -0.8865  1.4411
17733TIP3   OH274613   6.530   1.781  14.851  0.3176  0.0981 -0.3679
17733TIP3    H174614   6.623   1.760  14.843  0.0936 -0.3784 -2.0056
17733TIP3    H274615   6.496   1.717  14.915  0.9640 -0.2137 -0.3329
17734TIP3   OH274616   3.471   1.724   4.477  0.3277 -0.2485  0.0911
17734TIP3    H174617   3.498   1.632   4.470  0.8743 -0.3231  2.3413
17734TIP3    H274618   3.538   1.764   4.533  0.3146  1.6498 -1.1639
17735TIP3   OH274619   5.631   4.103  16.418 -0.4441 -0.7024  0.2322
17735TIP3    H174620   5.547   4.129  16.455 -0.1157  1.2656 -0.3225
17735TIP3    H274621   5.619   4.011  16.396 -3.3349  0.0950 -2.1627
17736TIP3   OH274622   3.686   0.746  10.359  0.0315 -0.9027 -0.3776
17736TIP3    H174623   3.618   0.803  10.394 -1.2363 -1.0411 -2.4361
17736TIP3    H274624   3.760   0.804  10.343 -0.7900 -0.0650 -1.2233
17737TIP3   OH274625   5.421   1.168  15.361  0.0066 -0.3063 -0.1475
17737TIP3    H174626   5.503   1.133  15.325 -0.4345 -1.7085  0.1254
17737TIP3    H274627   5.446   1.249  15.404  1.0862 -0.2281 -0.8782
17738TIP3   OH274628   6.052   5.758   3.610 -0.0076  0.1275 -0.3677
17738TIP3    H174629   6.077   5.787   3.698  0.8348  0.7125 -0.7835
17738TIP3    H274630   5.957   5.770   3.607 -0.2007 -0.8706  0.8006
17739TIP3   OH274631   1.172   0.819   1.745 -0.3025  0.1005 -0.0628
17739TIP3    H174632   1.124   0.880   1.801  0.8221  0.2908  0.7253
17739TIP3    H274633   1.209   0.875   1.675 -1.7751 -0.1491 -1.0872
17740TIP3   OH274634   1.089   3.302   4.993  0.0014 -0.6391 -0.2670
17740TIP3    H174635   1.014   3.355   5.019 -0.4079 -0.6801 -1.3184
17740TIP3    H274636   1.055   3.213   4.986  0.0701 -0.6095 -1.0340
17741TIP3   OH274637   4.775   1.193   5.268 -0.0758  0.3557  0.0114
17741TIP3    H174638   4.737   1.160   5.349 -2.0516 -0.7929 -1.2707
17741TIP3    H274639   4.861   1.152   5.263 -0.2486 -0.1766  1.1340
17742TIP3   OH274640   6.629   2.427   4.170 -0.2210  0.5313  0.6616
17742TIP3    H174641   6.543   2.469   4.164 -0.0985  0.7974  0.7323
17742TIP3    H274642   6.673   2.474   4.241  0.0545  0.5264  0.4938
17743TIP3   OH274643   4.031   4.839  14.904 -0.3222 -0.1623  0.3173
17743TIP3    H174644   4.025   4.757  14.954 -2.4594 -0.0467  0.3224
17743TIP3    H274645   4.058   4.904  14.968 -0.2609 -0.5451  0.6899
17744TIP3   OH274646   2.670   4.758  15.013  0.2169  0.6925  0.5246
17744TIP3    H174647   2.642   4.813  15.086  1.6073 -0.2334  1.8068
17744TIP3    H274648   2.762   4.780  15.001  0.6911 -1.0157  0.7867
17745TIP3   OH274649   4.978   1.403   4.706 -0.6763  0.5272 -0.1379
17745TIP3    H174650   5.045   1.389   4.773 -0.3673  1.0062 -0.3402
17745TIP3    H274651   4.996   1.337   4.639 -1.1745 -0.1517  0.3893
17746TIP3   OH274652   2.812   2.097   3.770  0.0763  0.0856  0.2722
17746TIP3    H174653   2.860   2.180   3.779  0.7266 -0.1042 -1.1108
17746TIP3    H274654   2.721   2.123   3.757  0.3058  0.6119 -0.3564
17747TIP3   OH274655   1.193   5.180  15.686  0.0830 -0.7183 -0.1137
17747TIP3    H174656   1.160   5.138  15.766  0.4501  3.4412  2.5747
17747TIP3    H274657   1.285   5.154  15.682  0.2073 -0.5857  1.2045
17748TIP3   OH274658   3.998   2.595   0.100 -0.5905 -0.0854  0.3404
17748TIP3    H174659   4.001   2.504   0.072  1.5198 -0.2659  0.9238
17748TIP3    H274660   4.044   2.644   0.032 -1.8629  0.5969 -0.0602
17749TIP3   OH274661   4.464   2.389   2.857  0.0457  0.1510  0.3549
17749TIP3    H174662   4.536   2.447   2.836 -0.2060  0.1758 -0.4777
17749TIP3    H274663   4.415   2.435   2.926 -0.1594  0.9334 -0.3015
17750TIP3   OH274664   1.088   2.074   6.683 -0.0778  0.2054 -0.0367
17750TIP3    H174665   1.041   1.991   6.673  1.2566 -0.6977  0.8758
17750TIP3    H274666   1.179   2.052   6.667  0.2425  1.6310 -0.3460
17751TIP3   OH274667   6.447   3.105  12.709  0.0522  0.4482  0.2299
17751TIP3    H174668   6.533   3.146  12.716  1.1309 -1.7606  0.8947
17751TIP3    H274669   6.391   3.159  12.764  1.0852  1.7143  0.1033
17752TIP3   OH274670   5.817   3.756   4.718  0.2447 -0.1209  0.1159
17752TIP3    H174671   5.779   3.668   4.715 -0.1898  0.0842 -0.8925
17752TIP3    H274672   5.873   3.755   4.796 -0.3928 -1.0221  0.5944
17753TIP3   OH274673   6.572   0.751   0.582 -0.2768  0.3806  0.0032
17753TIP3    H174674   6.496   0.713   0.537  0.9144 -0.2796 -1.5344
17753TIP3    H274675   6.645   0.693   0.559  0.3604 -0.2674  3.1910
17754TIP3   OH274676   2.714   2.486   5.145  0.0778 -0.1018  0.2405
17754TIP3    H174677   2.683   2.521   5.062 -0.0110 -1.2813 -0.2446
17754TIP3    H274678   2.638   2.439   5.181  0.2896 -0.1014  0.7020
17755TIP3   OH274679   3.438   1.074   1.291 -0.6987  0.2738 -0.3208
17755TIP3    H174680   3.517   1.092   1.239  0.1615  0.0172  0.8654
17755TIP3    H274681   3.461   1.099   1.380 -2.6663  2.1958 -0.2443
17756TIP3   OH274682   3.255   3.634   0.912  0.5042  0.9797  0.2700
17756TIP3    H174683   3.211   3.706   0.868 -0.5618 -0.0926 -0.4629
17756TIP3    H274684   3.185   3.576   0.942  1.3355  0.2275  0.8386
17757TIP3   OH274685   5.221   4.270  16.880  0.5281 -0.3024 -0.2336
17757TIP3    H174686   5.167   4.300  16.954 -0.4873  0.1020 -1.1094
17757TIP3    H274687   5.256   4.351  16.842  0.6577 -0.4714 -0.4712
17758TIP3   OH274688   1.430   5.829   5.907  0.2092  0.7384 -0.4798
17758TIP3    H174689   1.523   5.810   5.913  0.0928 -0.1981 -1.3339
17758TIP3    H274690   1.399   5.825   5.998  0.8972  0.5224 -0.2492
17759TIP3   OH274691   2.395   5.925  12.031 -0.4128  0.5010  0.0680
17759TIP3    H174692   2.373   5.867  11.958 -0.9494  0.2527  0.4201
17759TIP3    H274693   2.423   5.865  12.101  0.2243  0.7438  0.0288
17760TIP3   OH274694   3.673   3.381   5.513 -0.2479  1.1495 -0.3110
17760TIP3    H174695   3.677   3.463   5.562  2.2962  0.2993  1.1094
17760TIP3    H274696   3.647   3.407   5.425 -1.6048  3.1846  0.6085
17761TIP3   OH274697   6.248   3.651   0.221  0.2064 -0.5477 -0.2403
17761TIP3    H174698   6.160   3.684   0.238  0.0303 -0.0556 -1.9858
17761TIP3    H274699   6.249   3.564   0.263 -0.7942 -0.1911  0.5623
17762TIP3   OH274700   6.688   5.230   1.711 -0.0818  0.1366  0.1049
17762TIP3    H174701   6.627   5.157   1.721 -1.0172  1.1270  2.1719
17762TIP3    H274702   6.648   5.302   1.760  0.4659  2.3159 -2.3840
17763TIP3   OH274703   6.064   4.505   1.446 -0.6352  0.3747 -0.2234
17763TIP3    H174704   6.135   4.544   1.395 -1.7487  2.1283 -0.4837
17763TIP3    H274705   6.066   4.551   1.529 -1.4389  0.4078 -0.2184
17764TIP3   OH274706   0.825   4.282   4.725  0.0565 -0.4305 -0.0049
17764TIP3    H174707   0.850   4.359   4.673 -0.0707 -0.4788 -0.1395
17764TIP3    H274708   0.730   4.275   4.714 -0.0750 -0.0197  0.8227
17765TIP3   OH274709   4.241   3.497   3.887  0.5770  0.0661 -0.1873
17765TIP3    H174710   4.291   3.562   3.839 -0.7893  0.6563 -0.8669
17765TIP3    H274711   4.151   3.508   3.856  0.0056 -0.9079  1.0298
17766TIP3   OH274712   3.360   0.148  14.785 -0.0858  0.3368 -0.0121
17766TIP3    H174713   3.433   0.174  14.729 -0.4096  1.3148 -0.0112
17766TIP3    H274714   3.398   0.145  14.873 -0.2361  1.8009  0.1300
17767TIP3   OH274715   6.234   3.887  14.551  0.1531  0.2327 -0.1019
17767TIP3    H174716   6.302   3.828  14.585  0.7870  0.0769 -1.5779
17767TIP3    H274717   6.282   3.953  14.501 -0.7575  0.2282 -1.0110
17768TIP3   OH274718   3.517   6.701   4.281 -0.8469 -0.7459 -0.3805
17768TIP3    H174719   3.431   6.714   4.320 -0.9894 -3.3235  0.3047
17768TIP3    H274720   3.569   6.659   4.350  1.2651  1.4015 -0.5007
17769TIP3   OH274721   3.193   0.201   4.597 -0.2340  0.4167 -0.3838
17769TIP3    H174722   3.182   0.143   4.672 -0.2130 -0.3605 -0.9717
17769TIP3    H274723   3.236   0.279   4.633  1.4609 -0.6805  0.0862
17770TIP3   OH274724   6.155   0.796  11.837  0.4363 -0.3418  0.1944
17770TIP3    H174725   6.067   0.815  11.869 -0.0414  0.3697 -1.4302
17770TIP3    H274726   6.197   0.748  11.908 -0.7061  0.7380  1.6518
17771TIP3   OH274727   0.373   2.484   6.153 -0.0620 -0.6568 -0.3837
17771TIP3    H174728   0.451   2.534   6.129 -0.1313  0.0153  0.7359
17771TIP3    H274729   0.303   2.522   6.101  0.4624 -1.8507 -2.0869
17772TIP3   OH274730   3.550   1.136   1.535 -0.2416  0.2174  0.2277
17772TIP3    H174731   3.525   1.211   1.589  0.3359 -0.0448  0.8819
17772TIP3    H274732   3.568   1.066   1.599 -1.1178 -0.5959 -0.3778
17773TIP3   OH274733   4.825   1.154   5.992 -0.4453  0.2693 -0.0091
17773TIP3    H174734   4.849   1.147   5.899 -0.7853 -1.9088  0.0055
17773TIP3    H274735   4.908   1.171   6.037 -0.2583  1.2208 -0.6793
17774TIP3   OH274736   2.875   6.656  11.735 -0.2399  0.0804  0.1339
17774TIP3    H174737   2.908   6.744  11.715 -1.3531  0.3128 -0.7414
17774TIP3    H274738   2.860   6.658  11.830 -0.2335  0.8158  0.1266
17775TIP3   OH274739   1.783   6.292   2.639  0.2226 -0.0816 -0.8281
17775TIP3    H174740   1.878   6.283   2.649  0.1014  0.8391  1.9185
17775TIP3    H274741   1.773   6.347   2.562  1.9863  0.8446 -0.4580
17776TIP3   OH274742   5.687   1.332  16.163  0.5139  0.3218 -1.4825
17776TIP3    H174743   5.682   1.241  16.135 -0.1544  0.3271 -1.3881
17776TIP3    H274744   5.607   1.347  16.213  1.9410  0.1343  1.0374
17777TIP3   OH274745   2.311   3.542   3.542 -0.0423 -0.1468 -0.5228
17777TIP3    H174746   2.367   3.471   3.572 -0.0499  0.9989  2.5141
17777TIP3    H274747   2.364   3.590   3.480  1.7430 -0.0989  0.9632
17778TIP3   OH274748   5.975   6.221   5.761  0.5199 -0.5213  0.1954
17778TIP3    H174749   5.978   6.245   5.854  2.0104  4.3665 -0.8346
17778TIP3    H274750   6.062   6.243   5.728 -0.8921  0.9542 -2.9301
17779TIP3   OH274751   0.141   3.595  16.864 -0.5028 -0.1509 -0.1965
17779TIP3    H174752   0.182   3.583  16.779  0.0307  1.4282 -0.1838
17779TIP3    H274753   0.071   3.658  16.848  0.8389  1.6994  0.8561
17780TIP3   OH274754   2.238   0.784  12.370  0.1435 -0.2363  0.3604
17780TIP3    H174755   2.174   0.722  12.405 -0.9165 -0.5182 -1.9058
17780TIP3    H274756   2.290   0.733  12.308 -0.2481  0.9455 -0.9877
17781TIP3   OH274757   0.397   6.213   2.528  0.2379  0.7255  0.6566
17781TIP3    H174758   0.410   6.173   2.442  0.3829  1.7251  0.1905
17781TIP3    H274759   0.364   6.142   2.583  1.2739 -0.2118  0.0949
17782TIP3   OH274760   2.799   2.193  14.961 -0.6161 -0.1193 -0.1089
17782TIP3    H174761   2.815   2.107  14.924  1.4726  1.2307 -2.6608
17782TIP3    H274762   2.886   2.231  14.974 -1.2927  0.5280  4.0562
17783TIP3   OH274763   3.996   0.636  11.986  0.0985  0.1433  0.1647
17783TIP3    H174764   3.956   0.708  12.033 -2.6982 -0.7478 -0.6539
17783TIP3    H274765   4.053   0.593  12.050 -1.7787  0.3401  2.0422
17784TIP3   OH274766   3.175   1.019  16.441 -0.1538 -0.7485 -0.1476
17784TIP3    H174767   3.089   0.999  16.406  0.0987  0.5699 -1.6223
17784TIP3    H274768   3.187   1.112  16.425  1.0029 -0.6040  1.2846
17785TIP3   OH274769   1.642   3.789  12.616 -0.1052  0.2498  0.0680
17785TIP3    H174770   1.653   3.725  12.686  1.4421 -0.1318 -0.4804
17785TIP3    H274771   1.577   3.750  12.558  0.0886 -0.3731  0.2598
17786TIP3   OH274772   6.586   5.162   1.389  0.4075 -0.4115 -0.1574
17786TIP3    H174773   6.525   5.191   1.457  2.9559 -1.5931  2.8703
17786TIP3    H274774   6.636   5.241   1.367  0.6820 -0.3708  0.5949
17787TIP3   OH274775   6.617   4.016  13.746 -0.4189  0.1949 -0.4743
17787TIP3    H174776   6.699   4.024  13.794 -0.3144  0.0498 -0.6257
17787TIP3    H274777   6.588   4.106  13.733 -0.2083  0.2535 -0.5455
17788TIP3   OH274778   3.157   4.643   1.733 -0.1413  0.1394 -0.5849
17788TIP3    H174779   3.080   4.586   1.730 -0.3988  0.5018 -2.5189
17788TIP3    H274780   3.232   4.584   1.732 -0.4110 -0.2062 -1.4725
17789TIP3   OH274781   0.986   5.848   3.241 -0.4961 -0.5444 -0.1745
17789TIP3    H174782   0.995   5.827   3.334 -1.4566  0.9311  0.2745
17789TIP3    H274783   0.974   5.763   3.198  1.7088 -1.4310  0.7862
17790TIP3   OH274784   3.163   0.309   1.175  0.3337 -0.2331 -0.0405
17790TIP3    H174785   3.193   0.396   1.149  0.3241  0.3073  1.6705
17790TIP3    H274786   3.096   0.324   1.242  0.5988 -1.5504  0.5674
17791TIP3   OH274787   0.752   5.902  12.744  0.7202  0.4542  0.5590
17791TIP3    H174788   0.777   5.811  12.762  0.0820  0.3251  0.8015
17791TIP3    H274789   0.799   5.924  12.664 -0.1967 -0.5368 -0.2714
17792TIP3   OH274790   1.013   1.983   3.991  0.7155  0.0439  0.4201
17792TIP3    H174791   0.919   1.966   3.998  0.7812 -0.0387  1.1719
17792TIP3    H274792   1.021   2.040   3.914 -0.0284  0.6618  0.7779
17793TIP3   OH274793   4.789   1.516  12.995  0.1071 -0.7180 -0.0762
17793TIP3    H174794   4.792   1.468  13.078 -1.2416  0.0640  0.4647
17793TIP3    H274795   4.869   1.569  12.994 -0.3848  0.1024  1.2798
17794TIP3   OH274796   3.873   5.010   5.748  0.1880  0.3794 -0.0991
17794TIP3    H174797   3.914   5.096   5.736  0.6846  0.0573 -0.7660
17794TIP3    H274798   3.893   4.962   5.668 -0.6672 -0.1337 -0.0170
17795TIP3   OH274799   5.257   2.692   5.585  0.2207 -0.3594 -0.2924
17795TIP3    H174800   5.238   2.710   5.493 -1.2570  0.4811  0.1499
17795TIP3    H274801   5.353   2.695   5.591  0.3725 -1.0015 -1.8991
17796TIP3   OH274802   1.730   3.552  16.067 -0.0192 -0.3738 -0.7151
17796TIP3    H174803   1.720   3.493  16.141 -0.1098 -0.1823 -0.5717
17796TIP3    H274804   1.710   3.499  15.990  0.3642 -0.6487 -0.6248
17797TIP3   OH274805   5.211   3.177   5.096 -0.3545  0.5460  0.0012
17797TIP3    H174806   5.172   3.240   5.036  0.1982  3.0736  2.1298
17797TIP3    H274807   5.282   3.137   5.045 -1.5038  0.6521 -1.7886
17798TIP3   OH274808   3.685   0.292  14.230  0.2335 -0.3421 -0.5940
17798TIP3    H174809   3.617   0.358  14.247  1.6055  1.1836 -0.7605
17798TIP3    H274810   3.690   0.242  14.311 -1.8330 -1.2386 -0.9540
17799TIP3   OH274811   1.750   4.815   5.055  0.0869  0.4245  0.5885
17799TIP3    H174812   1.769   4.882   4.989 -0.4784  1.7235  1.6912
17799TIP3    H274813   1.831   4.764   5.061  0.2398  0.4559 -0.8920
17800TIP3   OH274814   3.998   4.232  16.509 -0.3807 -0.0547 -0.0864
17800TIP3    H174815   4.042   4.153  16.540  2.6279  0.4742 -2.4341
17800TIP3    H274816   3.977   4.281  16.588 -1.2869 -2.6365  1.3601
17801TIP3   OH274817   1.213   5.120  11.991  0.3670 -0.4354 -0.9867
17801TIP3    H174818   1.254   5.204  12.013 -0.2123 -0.5380  0.6251
17801TIP3    H274819   1.262   5.055  12.043  0.1677 -0.9614 -1.4466
17802TIP3   OH274820   2.734   5.765   3.576  0.3118  0.3881 -0.0240
17802TIP3    H174821   2.809   5.789   3.631  0.8017 -0.2765 -0.3874
17802TIP3    H274822   2.658   5.801   3.622  0.5614 -1.1845  1.7099
17803TIP3   OH274823   4.069   6.337   4.048  0.5393  0.6614  0.3598
17803TIP3    H174824   4.038   6.326   3.958  1.1178  0.9390  0.1232
17803TIP3    H274825   4.039   6.423   4.074  0.8147  0.7933  0.2475
17804TIP3   OH274826   5.797   1.265  12.463 -0.1397 -0.1055 -0.1518
17804TIP3    H174827   5.764   1.253  12.374  0.9391 -1.3367 -0.4212
17804TIP3    H274828   5.801   1.360  12.475 -1.7394  0.0808 -0.8436
17805TIP3   OH274829   5.958   1.438   1.189 -0.4283 -0.0775 -0.4279
17805TIP3    H174830   5.938   1.479   1.273  1.9220 -0.8088  0.5649
17805TIP3    H274831   6.006   1.505   1.141 -0.8214 -0.0357 -0.7703
17806TIP3   OH274832   6.518   3.105   4.457 -0.0376 -0.0690 -0.3135
17806TIP3    H174833   6.429   3.116   4.424  0.2346  0.4042 -0.9089
17806TIP3    H274834   6.552   3.194   4.465  0.6250 -0.2704 -0.7763
17807TIP3   OH274835   6.093   1.992  16.484 -0.2433 -0.4737  0.1070
17807TIP3    H174836   6.119   2.083  16.486  0.9938 -0.8215  0.6158
17807TIP3    H274837   6.145   1.950  16.553  2.5672 -2.4179 -2.9230
17808TIP3   OH274838   2.999   6.284  12.735 -0.4256 -0.2127  0.8138
17808TIP3    H174839   2.925   6.223  12.731  0.6007 -1.5394  1.2796
17808TIP3    H274840   3.076   6.228  12.721  0.5291  1.0359  0.9713
17809TIP3   OH274841   0.018   1.074   5.184  0.0975 -0.2780  0.7230
17809TIP3    H174842  -0.067   1.069   5.227  0.5392  0.9664  1.7933
17809TIP3    H274843   0.045   1.165   5.194  2.2150 -0.9514  1.7237
17810TIP3   OH274844   2.915   5.642  15.961 -0.6646  0.0391  0.3297
17810TIP3    H174845   2.863   5.563  15.946  0.5443 -0.9288  1.1028
17810TIP3    H274846   2.879   5.680  16.041 -2.2951  1.2054 -0.8719
17811TIP3   OH274847   2.841   3.880  12.107  0.2062  0.1385 -0.2010
17811TIP3    H174848   2.774   3.949  12.103  0.0258 -0.0794 -1.4548
17811TIP3    H274849   2.887   3.896  12.189 -2.0812 -0.3568  1.2804
17812TIP3   OH274850   0.232   0.559  17.246 -0.7148  0.3773 -0.4712
17812TIP3    H174851   0.176   0.631  17.275 -2.5057 -2.1567  3.0581
17812TIP3    H274852   0.320   0.597  17.245 -1.7536  3.0451 -0.7067
17813TIP3   OH274853   1.188   3.098   2.725 -0.2439 -0.0227  0.5063
17813TIP3    H174854   1.143   3.175   2.762  1.1477  0.4540  1.2696
17813TIP3    H274855   1.181   3.031   2.793  0.8528  0.3130  0.9764
17814TIP3   OH274856   3.883   0.746  15.462 -0.1236  0.1391  0.0028
17814TIP3    H174857   3.909   0.718  15.375 -1.7487  0.1925 -0.5363
17814TIP3    H274858   3.958   0.796  15.495  0.8201 -0.5521 -1.0286
17815TIP3   OH274859   4.768   3.266  15.039 -0.2803 -0.4173 -0.1767
17815TIP3    H174860   4.717   3.346  15.023 -1.5917 -0.9516  1.1475
17815TIP3    H274861   4.775   3.226  14.952 -1.2422  0.1901 -0.5634
17816TIP3   OH274862   2.278   1.114  11.131 -0.2159  0.1615  0.3881
17816TIP3    H174863   2.233   1.174  11.190 -1.7642 -0.6890  0.1092
17816TIP3    H274864   2.231   1.031  11.139  0.4367 -0.3757 -0.9657
17817TIP3   OH274865   5.188   2.638  11.370  0.3791  0.5617 -0.3208
17817TIP3    H174866   5.139   2.560  11.396 -1.3689  1.3514 -1.0367
17817TIP3    H274867   5.256   2.606  11.311  1.0263 -0.6275  1.0210
17818TIP3   OH274868   1.010   6.189  11.043  0.3647 -0.1149 -0.5065
17818TIP3    H174869   1.103   6.180  11.062  0.4156  0.3486 -0.5342
17818TIP3    H274870   0.997   6.282  11.024 -0.6259  0.4127  2.2649
17819TIP3   OH274871   3.816   1.059  11.139 -0.0167 -0.3033  0.0105
17819TIP3    H174872   3.898   1.097  11.170  0.0710 -1.6820  1.6179
17819TIP3    H274873   3.756   1.134  11.134  1.2291  0.6824 -0.9700
17820TIP3   OH274874   5.787   3.413   1.323 -0.3985  0.0416  0.3161
17820TIP3    H174875   5.825   3.340   1.371 -1.5776  0.2837  1.6673
17820TIP3    H274876   5.701   3.382   1.296  0.8599 -0.8180 -3.4483
17821TIP3   OH274877   1.452   0.364  14.720 -0.4722  0.3654 -0.0865
17821TIP3    H174878   1.385   0.395  14.659  0.2776  0.4897 -0.8654
17821TIP3    H274879   1.403   0.342  14.800 -1.6255 -0.8877 -1.0954
17822TIP3   OH274880   0.176   1.413   2.772  0.0927 -0.9794 -0.6048
17822TIP3    H174881   0.210   1.453   2.692  2.0464 -1.1938  0.0849
17822TIP3    H274882   0.170   1.320   2.752 -0.0119 -0.9548 -0.6921
17823TIP3   OH274883   1.348   6.471  11.334  0.6259  0.1631 -0.4514
17823TIP3    H174884   1.409   6.462  11.261  0.2810 -0.1796 -0.6999
17823TIP3    H274885   1.290   6.395  11.326 -0.4628  1.0076 -0.8110
17824TIP3   OH274886   0.772   3.745  12.443 -0.1932 -0.7147  0.0149
17824TIP3    H174887   0.825   3.710  12.514  0.1726  1.1609  0.7291
17824TIP3    H274888   0.683   3.750  12.479 -0.3867 -1.5312 -0.3298
17825TIP3   OH274889   4.183   4.404   1.783 -0.0881  0.0053  0.1469
17825TIP3    H174890   4.110   4.371   1.730 -1.1271 -0.5644  1.8720
17825TIP3    H274891   4.169   4.499   1.785  0.0625  0.0595 -0.7054
17826TIP3   OH274892   2.697   5.089   1.082  0.0180  0.1299 -0.1464
17826TIP3    H174893   2.727   5.091   1.173  3.3006 -1.9412 -0.9791
17826TIP3    H274894   2.606   5.061   1.088 -0.0227  0.5139  2.5179
17827TIP3   OH274895   2.767   6.012  11.365  0.2565 -0.3556  0.0926
17827TIP3    H174896   2.821   6.042  11.438  0.2629  1.1151 -0.4826
17827TIP3    H274897   2.679   6.005  11.401  0.0130  1.5960 -0.0186
17828TIP3   OH274898   6.641   6.118  11.545 -0.1471 -0.0288  0.4319
17828TIP3    H174899   6.612   6.034  11.582 -1.5614  0.7904  1.2660
17828TIP3    H274900   6.618   6.112  11.452  0.9578 -1.0451  0.1941
17829TIP3   OH274901   5.402   0.832  10.924 -0.1410  0.7648  0.2480
17829TIP3    H174902   5.397   0.785  11.008 -0.7036  0.3285 -0.0210
17829TIP3    H274903   5.493   0.861  10.918 -0.1316  0.9374  1.0829
17830TIP3   OH274904   3.567   2.618  15.117 -0.7015 -0.0998  0.1709
17830TIP3    H174905   3.533   2.600  15.029  0.6888  1.1357 -0.6762
17830TIP3    H274906   3.549   2.711  15.131 -1.9387 -0.5275  1.7174
17831TIP3   OH274907   2.966   3.056  16.796 -0.4109  0.7603 -0.8313
17831TIP3    H174908   2.878   3.020  16.785 -1.1875  2.5114 -0.7274
17831TIP3    H274909   2.981   3.054  16.891 -0.0158 -0.2197 -0.9043
17832TIP3   OH274910   4.679   1.971   4.264  0.0666  0.0691  0.3979
17832TIP3    H174911   4.713   2.012   4.343 -0.0867 -0.7519  0.8954
17832TIP3    H274912   4.734   1.894   4.252 -0.6230 -0.4203  0.3322
17833TIP3   OH274913   4.306   4.974  17.000  0.2690 -0.1069 -0.2645
17833TIP3    H174914   4.216   5.007  16.993 -0.8136 -2.6075  0.4078
17833TIP3    H274915   4.323   4.971  17.094  0.5538 -0.8313 -0.3300
17834TIP3   OH274916   1.830   5.109   0.952 -0.4229 -0.2336 -0.0189
17834TIP3    H174917   1.747   5.075   0.920 -0.7119 -0.0751  0.5608
17834TIP3    H274918   1.820   5.204   0.950  0.2180 -0.1604 -1.1917
17835TIP3   OH274919   4.585   3.333  12.481 -0.0978  0.1042  0.0823
17835TIP3    H174920   4.514   3.385  12.519 -0.4726 -0.1993 -0.1826
17835TIP3    H274921   4.623   3.390  12.414 -0.1782  0.2207  0.1350
17836TIP3   OH274922   2.010   4.991  13.145  0.1152  0.0980  0.5722
17836TIP3    H174923   1.921   5.025  13.139 -0.2793 -0.8161  1.0101
17836TIP3    H274924   2.046   5.029  13.224 -0.1349 -0.0754  0.7701
17837TIP3   OH274925   4.093   6.531  12.470  0.1195  0.3599 -0.3844
17837TIP3    H174926   4.104   6.562  12.560 -2.6313 -0.1023  0.1780
17837TIP3    H274927   4.026   6.587  12.432  0.0144 -0.5449 -1.6114
17838TIP3   OH274928   3.707   4.786   0.363  0.5690 -0.1434  0.4342
17838TIP3    H174929   3.693   4.760   0.454  1.1845 -0.2182  0.5147
17838TIP3    H274930   3.769   4.722   0.329 -2.2678 -2.3157 -1.1183
17839TIP3   OH274931   4.992   2.502  13.156 -0.3707  0.0056  0.7911
17839TIP3    H174932   4.934   2.524  13.083 -0.5721 -0.2238  0.8803
17839TIP3    H274933   5.029   2.417  13.133 -1.4023 -0.6682  1.5328
17840TIP3   OH274934   5.282   1.666  15.056 -0.1422  0.3564  0.7823
17840TIP3    H174935   5.222   1.652  15.129  0.4211  0.5232  1.2857
17840TIP3    H274936   5.226   1.689  14.982 -0.7762 -0.4831  0.9876
17841TIP3   OH274937   0.760   0.189  11.182 -0.8242 -0.0959  0.5235
17841TIP3    H174938   0.727   0.184  11.272 -2.4682 -2.0734 -0.0955
17841TIP3    H274939   0.696   0.244  11.136 -1.9780 -1.8718 -0.1191
17842TIP3   OH274940   1.131   3.494   5.825 -0.0520 -0.1478 -0.2647
17842TIP3    H174941   1.220   3.500   5.858  0.1037 -1.6008 -0.3748
17842TIP3    H274942   1.138   3.440   5.746 -0.8876  0.5672 -0.8534
17843TIP3   OH274943   3.293   4.720   5.505 -0.6470 -0.3942 -0.8124
17843TIP3    H174944   3.337   4.680   5.580  1.0291 -0.9431 -2.0583
17843TIP3    H274945   3.252   4.799   5.542  0.7791 -0.2418  0.5394
17844TIP3   OH274946   3.550   2.057   2.045  0.8724  0.2890 -0.0857
17844TIP3    H174947   3.623   2.120   2.050 -0.4106  1.8314  0.0384
17844TIP3    H274948   3.475   2.110   2.020 -0.3362 -1.1791  0.3179
17845TIP3   OH274949   5.618   3.029  13.994 -0.0794  0.1264 -0.3161
17845TIP3    H174950   5.574   2.967  14.052 -0.0057 -0.5539 -0.9699
17845TIP3    H274951   5.548   3.063  13.938 -0.3378  1.5518  0.7987
17846TIP3   OH274952   1.069   3.296   2.849  0.4818  0.2533 -0.5376
17846TIP3    H174953   1.137   3.362   2.835  0.6666  0.1825  0.0070
17846TIP3    H274954   0.987   3.345   2.847  0.6911  0.7158  1.1564
17847TIP3   OH274955   3.286   1.262  11.619  0.6635 -0.5178 -0.3130
17847TIP3    H174956   3.372   1.270  11.659  0.0505  2.0056  0.7241
17847TIP3    H274957   3.230   1.229  11.689  0.5719 -1.1985 -0.6947
17848TIP3   OH274958   0.094   4.899   4.107  0.6814  0.6945 -0.0401
17848TIP3    H174959   0.078   4.944   4.024 -1.0877  0.6593  0.2416
17848TIP3    H274960   0.084   4.806   4.087 -2.7092  0.7455  0.6529
17849TIP3   OH274961   4.962   0.341  12.544 -0.4076  0.0896  0.2381
17849TIP3    H174962   4.868   0.360  12.541 -0.0228  2.2346 -0.2310
17849TIP3    H274963   5.000   0.415  12.592  1.0091 -0.9472  0.7750
17850TIP3   OH274964   3.441   0.605  11.567  0.1375  0.6500  0.3031
17850TIP3    H174965   3.464   0.516  11.596  1.4900  0.7798 -0.2510
17850TIP3    H274966   3.433   0.656  11.647 -0.6355  0.0328  0.6260
17851TIP3   OH274967   5.296   0.904  12.359 -0.1155 -0.1902 -0.1125
17851TIP3    H174968   5.203   0.883  12.352 -0.3812  0.3096  1.4683
17851TIP3    H274969   5.341   0.825  12.331 -1.0595 -1.5454  1.9540
17852TIP3   OH274970   6.718   4.340  16.796 -0.3468 -0.2287 -0.0870
17852TIP3    H174971   6.645   4.280  16.778 -0.9359  0.6089 -0.5658
17852TIP3    H274972   6.712   4.356  16.891 -0.8355 -0.1139 -0.1324
17853TIP3   OH274973   5.966   3.800   4.962  0.1576 -0.2960  0.2687
17853TIP3    H174974   5.928   3.838   5.041  0.6942 -0.2341  0.5031
17853TIP3    H274975   5.972   3.873   4.901  0.8566 -0.0716  0.5950
17854TIP3   OH274976   5.484   2.932  17.267 -0.1199 -0.0045  0.3372
17854TIP3    H174977   5.431   2.882  17.331  3.2716 -1.8042  2.0003
17854TIP3    H274978   5.499   2.870  17.196  2.5278 -0.8846  1.5342
17855TIP3   OH274979   6.630   1.187   3.702 -0.3720 -0.3347  0.5446
17855TIP3    H174980   6.652   1.270   3.743  1.2034  0.8629 -2.4836
17855TIP3    H274981   6.552   1.206   3.650  1.7644  0.2870 -2.6969
17856TIP3   OH274982   2.715   6.444   4.103  0.1033  0.2858  0.7180
17856TIP3    H174983   2.725   6.421   4.195  0.1691  2.3029  1.2654
17856TIP3    H274984   2.620   6.452   4.091  0.0887 -0.0805  0.5724
17857TIP3   OH274985   3.651   2.601  11.805  0.0480  0.7775 -0.6434
17857TIP3    H174986   3.610   2.684  11.779 -1.2906  0.1746 -0.5297
17857TIP3    H274987   3.609   2.535  11.749 -0.0154 -0.0234  0.3266
17858TIP3   OH274988   0.366   1.551   5.594  0.6205 -0.4973 -0.0085
17858TIP3    H174989   0.400   1.615   5.531 -2.2303 -0.7868 -2.0393
17858TIP3    H274990   0.335   1.478   5.540 -3.5831 -0.0149  1.4097
17859TIP3   OH274991   3.119   4.124  11.560 -0.2923 -0.6646 -0.2827
17859TIP3    H174992   3.180   4.057  11.590 -2.6802 -3.1165 -0.5711
17859TIP3    H274993   3.163   4.166  11.487  2.0452 -0.5546  1.0904
17860TIP3   OH274994   2.306   5.652  14.898  0.0523 -0.3397  0.7125
17860TIP3    H174995   2.388   5.659  14.946 -0.0971 -0.1372  0.9389
17860TIP3    H274996   2.239   5.684  14.959 -0.1772 -0.3779  0.4833
17861TIP3   OH274997   4.797   2.615  15.691 -0.2262  0.0992  0.5501
17861TIP3    H174998   4.779   2.674  15.619 -0.6771 -0.8368 -0.1254
17861TIP3    H274999   4.793   2.670  15.769 -1.3846  0.8184  0.0087
17862TIP3   OH275000   6.086   1.570  12.623  0.3669  1.1379 -0.0888
17862TIP3    H175001   6.022   1.562  12.552  0.5638  1.8818 -0.3619
17862TIP3    H275002   6.090   1.664  12.641  1.8492  1.1766 -0.5090
17863TIP3   OH275003   5.686   1.657  12.985  0.3656 -0.1593 -0.3571
17863TIP3    H175004   5.639   1.575  12.999  1.1416 -0.5285  0.1533
17863TIP3    H275005   5.750   1.661  13.056  0.8466  0.5163 -0.8088
17864TIP3   OH275006   2.294   3.079   4.934 -1.1422 -0.1193 -0.7176
17864TIP3    H175007   2.360   3.047   4.995 -1.1091  1.6308  0.2234
17864TIP3    H275008   2.301   3.020   4.858 -0.2147 -1.4647  0.3567
17865TIP3   OH275009   6.304   3.702  11.350 -0.2878 -0.0443  0.5199
17865TIP3    H175010   6.257   3.774  11.392 -0.0060  0.1300  0.5363
17865TIP3    H275011   6.237   3.658  11.298 -0.1554  1.1880 -0.7704
17866TIP3   OH275012   5.286   3.299   3.698 -0.0423  0.6352  0.3067
17866TIP3    H175013   5.224   3.354   3.748  0.7463  2.7000 -0.8535
17866TIP3    H275014   5.369   3.345   3.705  0.9378 -1.0371  0.1563
17867TIP3   OH275015   3.251   5.842  15.563 -0.1850 -0.2695  0.1988
17867TIP3    H175016   3.189   5.913  15.551  0.1614 -0.2473 -1.7179
17867TIP3    H275017   3.333   5.886  15.585 -0.7179 -0.2862  2.4321
17868TIP3   OH275018   5.492   3.353   3.391  0.0806 -0.2654 -0.3887
17868TIP3    H175019   5.425   3.343   3.324  0.1834 -1.0065 -0.3893
17868TIP3    H275020   5.523   3.264   3.408  0.2311 -0.0630  0.4598
17869TIP3   OH275021   2.526   2.559   1.665  0.5042 -0.5313 -0.4067
17869TIP3    H175022   2.483   2.615   1.730  0.3005 -2.9059  1.7002
17869TIP3    H275023   2.606   2.529   1.708  0.2566 -2.3648 -1.1241
17870TIP3   OH275024   2.874   3.724  16.046  0.2378  0.4022  0.3940
17870TIP3    H175025   2.818   3.773  16.106  0.0240  0.3747  0.2179
17870TIP3    H275026   2.813   3.672  15.993  0.3728  1.0077 -0.3673
17871TIP3   OH275027   0.965   6.076  15.508 -0.2978 -0.3046 -0.4434
17871TIP3    H175028   0.960   6.023  15.429  0.4697  0.1783 -0.8258
17871TIP3    H275029   1.015   6.154  15.482 -0.2529 -0.0207  0.4483
17872TIP3   OH275030   3.042   3.009  11.896 -0.1158  0.2087 -0.3722
17872TIP3    H175031   2.996   3.093  11.896 -0.1233  0.2139  0.4464
17872TIP3    H275032   2.978   2.946  11.864  0.1320  0.6216 -1.7775
17873TIP3   OH275033   4.656   6.521   0.201  0.7417 -0.5072  0.8222
17873TIP3    H175034   4.578   6.565   0.236 -0.8119 -1.5703 -1.1214
17873TIP3    H275035   4.704   6.494   0.279  0.6800  2.6048  2.1077
17874TIP3   OH275036   1.241   6.053  14.460 -0.8065  0.4863  0.4348
17874TIP3    H175037   1.171   5.999  14.425 -0.8794 -0.1562  1.5506
17874TIP3    H275038   1.216   6.070  14.551 -0.0774  1.1990  0.5175
17875TIP3   OH275039   5.653   4.409  16.621  0.3803  0.1197  0.6284
17875TIP3    H175040   5.733   4.388  16.573  0.2444  0.2051  0.3606
17875TIP3    H275041   5.584   4.359  16.577  0.2992 -0.0200  0.9089
17876TIP3   OH275042   0.881   3.303   3.084  0.0688  0.1145  0.2581
17876TIP3    H175043   0.863   3.374   3.022 -2.1637  0.2019  0.9196
17876TIP3    H275044   0.893   3.226   3.028 -2.8729 -0.0007 -0.3420
17877TIP3   OH275045   3.472   4.150   1.239 -0.3859 -0.2154  0.3788
17877TIP3    H175046   3.544   4.178   1.297  0.1822 -0.8606  0.0017
17877TIP3    H275047   3.512   4.083   1.183 -0.9924  0.2094 -0.5803
17878TIP3   OH275048   3.647   0.188   1.360 -0.2855 -0.3299 -0.0976
17878TIP3    H175049   3.639   0.242   1.282  3.1490  1.0814  0.3747
17878TIP3    H275050   3.684   0.106   1.328  0.2948 -0.0793 -0.0774
17879TIP3   OH275051   2.867   5.306   2.073 -0.4732 -0.2870 -0.6382
17879TIP3    H175052   2.959   5.324   2.090 -0.6434 -0.0931  0.1140
17879TIP3    H275053   2.829   5.391   2.052 -0.4769 -0.3711 -0.9760
17880TIP3   OH275054   4.999   1.472   6.257  0.3499  0.6695 -0.1750
17880TIP3    H175055   5.037   1.460   6.344  0.7024 -1.9034 -0.5977
17880TIP3    H275056   5.045   1.547   6.220  2.3853 -0.0530  0.7545
17881TIP3   OH275057   4.350   2.768  12.691  0.3177 -0.2854  0.1569
17881TIP3    H175058   4.292   2.844  12.698  0.0659 -0.5182  0.6397
17881TIP3    H275059   4.395   2.764  12.776  0.7696 -0.3230 -0.0822
17882TIP3   OH275060   0.536   4.755  13.278  0.3375  0.3988 -0.1831
17882TIP3    H175061   0.496   4.828  13.324 -1.7823 -1.0727  0.4893
17882TIP3    H275062   0.498   4.758  13.190  0.3698  0.2172 -0.2045
17883TIP3   OH275063   1.271   1.782  16.303 -0.5719  0.0939  0.1690
17883TIP3    H175064   1.309   1.799  16.217  1.5974  0.1258  1.0844
17883TIP3    H275065   1.302   1.853  16.358 -1.9338  0.0722  1.0115
17884TIP3   OH275066   2.331   2.182   2.465  0.1818 -0.0962  0.1374
17884TIP3    H175067   2.280   2.103   2.483  2.0678 -1.5105 -0.3900
17884TIP3    H275068   2.334   2.187   2.370 -0.7618  1.2374  0.1450
17885TIP3   OH275069   6.274   0.874  11.608  0.2787 -0.4270  0.1618
17885TIP3    H175070   6.368   0.863  11.613  0.1925 -1.9430 -0.8474
17885TIP3    H275071   6.238   0.806  11.665 -0.2026 -1.3107 -1.1274
17886TIP3   OH275072   1.335   4.080  13.689 -0.2268  0.0148  0.5085
17886TIP3    H175073   1.363   4.085  13.780 -0.5398  0.5211  0.5830
17886TIP3    H275074   1.380   4.003  13.654  1.6445  1.0580  0.4961
17887TIP3   OH275075   2.387   0.788   3.490 -0.4952  0.2956 -0.5150
17887TIP3    H175076   2.448   0.853   3.524  1.2357 -1.8086  0.5776
17887TIP3    H275077   2.324   0.774   3.561  0.1477 -0.4434 -0.0812
17888TIP3   OH275078   0.598   2.030  17.080  0.1636 -0.3298 -0.3997
17888TIP3    H175079   0.617   2.117  17.045  0.9049 -0.4237 -0.2633
17888TIP3    H275080   0.504   2.031  17.098  0.1551  0.4256 -0.4373
17889TIP3   OH275081   1.076   2.645  15.791  0.3201 -0.2980 -0.0431
17889TIP3    H175082   1.041   2.575  15.846  1.0166 -1.5356 -1.1275
17889TIP3    H275083   1.015   2.718  15.804 -0.0950 -0.8863  1.5587
17890TIP3   OH275084   1.689   3.869  11.134 -0.4989 -0.4100  0.0419
17890TIP3    H175085   1.658   3.930  11.201 -2.7348 -1.7505  0.3107
17890TIP3    H275086   1.614   3.856  11.076  0.1155 -2.3892 -0.3815
17891TIP3   OH275087   2.825   5.104   1.338 -0.2154 -0.0541 -0.3210
17891TIP3    H175088   2.881   5.180   1.322  0.1219 -0.4524 -1.0745
17891TIP3    H275089   2.884   5.029   1.333 -0.7370 -0.4457 -0.7045
17892TIP3   OH275090   3.139   4.308   4.047 -0.0029 -0.1279 -0.3239
17892TIP3    H175091   3.182   4.343   3.969  0.7746 -0.1261  0.0878
17892TIP3    H275092   3.160   4.214   4.046  3.4016  0.4142  1.8677
17893TIP3   OH275093   0.038   3.240  16.521  0.0788 -0.1635  0.5671
17893TIP3    H175094   0.107   3.231  16.587  0.0494 -1.1827  0.4838
17893TIP3    H275095  -0.036   3.278  16.569  0.5749  0.5800  0.7452
17894TIP3   OH275096   4.676   2.831   3.468  0.3126  0.0369 -0.0426
17894TIP3    H175097   4.634   2.802   3.548  0.4165  1.4103  0.5414
17894TIP3    H275098   4.615   2.895   3.431  0.0729 -0.8829 -1.2892
17895TIP3   OH275099   1.524   1.248   2.661 -0.3673  0.4181  0.4839
17895TIP3    H175100   1.598   1.189   2.648 -0.1350  0.1046  2.7681
17895TIP3    H275101   1.539   1.320   2.600  1.0326 -0.3654 -0.1319
17896TIP3   OH275102   2.210   0.831   5.743  0.0157 -0.4018  0.0178
17896TIP3    H175103   2.260   0.911   5.726 -0.3354 -0.4434 -1.3632
17896TIP3    H275104   2.163   0.848   5.824  0.2350  0.6594 -0.0659
17897TIP3   OH275105   0.947   4.411   2.248 -0.1503 -0.3878 -0.5904
17897TIP3    H175106   0.887   4.437   2.318 -0.0883 -0.5826 -0.4670
17897TIP3    H275107   0.946   4.486   2.187  1.1003  0.5039  0.4392
17898TIP3   OH275108   1.935   0.247  16.605 -0.2401  0.1389  0.0850
17898TIP3    H175109   1.915   0.333  16.567 -0.2043  0.9183  1.7243
17898TIP3    H275110   1.973   0.197  16.533 -0.7645  1.3093 -1.0476
17899TIP3   OH275111   0.714   6.205   3.402 -0.4810 -0.5765 -0.1420
17899TIP3    H175112   0.726   6.167   3.315 -2.1916  0.0341 -0.6920
17899TIP3    H275113   0.786   6.267   3.412 -0.3745 -0.5159 -1.2193
17900TIP3   OH275114   5.427   2.889   3.744  0.3598  0.2209 -0.7735
17900TIP3    H175115   5.522   2.889   3.741  0.4420  0.9815  0.9124
17900TIP3    H275116   5.400   2.838   3.667  2.2071 -4.2146  1.1836
17901TIP3   OH275117   4.803   1.489  11.673  0.3001 -0.1072 -0.2451
17901TIP3    H175118   4.822   1.461  11.583 -1.5832 -0.4046 -0.5959
17901TIP3    H275119   4.886   1.480  11.719  1.0526 -0.9751 -1.6968
17902TIP3   OH275120   4.027   5.628   5.488  0.5895  0.6119 -0.3885
17902TIP3    H175121   4.024   5.722   5.507  2.2344  1.0184 -1.8921
17902TIP3    H275122   4.083   5.591   5.556  1.9464  1.1620 -1.1577
17903TIP3   OH275123   0.858   3.581   0.241 -0.3875  0.0620 -0.2262
17903TIP3    H175124   0.812   3.624   0.169  0.3396  1.3995  0.0650
17903TIP3    H275125   0.923   3.646   0.270  0.6863 -1.2070  0.3237
17904TIP3   OH275126   0.609   5.442  13.723 -0.5247 -0.8071  0.1316
17904TIP3    H175127   0.595   5.348  13.714  1.2411 -1.0166 -0.8745
17904TIP3    H275128   0.566   5.479  13.645 -0.6740 -0.8377  0.1988
17905TIP3   OH275129   4.345   4.096   3.994 -0.2292 -0.0011 -0.3140
17905TIP3    H175130   4.340   4.174   4.049 -1.1947 -0.8154  0.8019
17905TIP3    H275131   4.435   4.096   3.961  0.3712  0.5673  1.2145
17906TIP3   OH275132   2.678   4.989  12.029  0.2101 -0.4334  0.1890
17906TIP3    H175133   2.637   4.983  12.115  0.5976 -0.0272  0.4002
17906TIP3    H275134   2.706   4.900  12.009 -1.9418 -1.0154 -0.5339
17907TIP3   OH275135   4.564   0.615   5.244  0.1317  0.1571  0.0159
17907TIP3    H175136   4.495   0.567   5.200  0.4100 -0.3229  0.0943
17907TIP3    H275137   4.572   0.697   5.195  1.1270 -0.7799 -1.4849
17908TIP3   OH275138   2.768   4.524   2.726 -0.3989 -0.2455 -0.3768
17908TIP3    H175139   2.778   4.429   2.728  1.5387 -0.0927  1.9826
17908TIP3    H275140   2.732   4.546   2.811  0.1189  1.2055 -0.5055
17909TIP3   OH275141   1.879   1.277  13.809 -0.1814  0.7641 -0.6258
17909TIP3    H175142   1.809   1.239  13.862 -0.8714  0.7427 -1.5450
17909TIP3    H275143   1.854   1.260  13.719  1.9930 -1.0117 -0.9756
17910TIP3   OH275144   0.324   5.416  10.273  0.0323  0.3903 -0.0983
17910TIP3    H175145   0.269   5.352  10.228 -1.0990  1.5952 -0.4961
17910TIP3    H275146   0.265   5.463  10.331  0.9722  0.6275  0.7017
17911TIP3   OH275147   3.001   6.541   4.282 -0.4476 -0.7549 -0.1466
17911TIP3    H175148   3.057   6.509   4.352  0.4012 -2.2428 -1.4253
17911TIP3    H275149   2.915   6.552   4.322  0.0733 -1.3227  1.1683
17912TIP3   OH275150   5.043   3.015  12.660 -0.1484  0.4116  0.5872
17912TIP3    H175151   5.118   3.025  12.718 -0.6305  0.8743  1.1520
17912TIP3    H275152   4.970   3.054  12.709 -1.3964 -2.5278  1.3337
17913TIP3   OH275153   0.448   5.580   1.970 -0.2280 -0.8723 -0.0722
17913TIP3    H175154   0.387   5.508   1.952  0.5323 -1.6016  0.2180
17913TIP3    H275155   0.456   5.625   1.886  0.4150 -2.0163 -0.6567
17914TIP3   OH275156   0.553   6.393  11.286 -0.1481 -0.6132 -0.2978
17914TIP3    H175157   0.646   6.372  11.277 -0.3656 -1.4132 -0.8137
17914TIP3    H275158   0.539   6.395  11.381  0.1304 -1.8016 -0.2046
17915TIP3   OH275159   1.848   3.569   5.759  0.2951 -0.9445 -0.0730
17915TIP3    H175160   1.900   3.567   5.840  1.0398  0.6428 -0.4570
17915TIP3    H275161   1.772   3.623   5.781 -1.3396 -3.3162  0.5065
17916TIP3   OH275162   1.874   6.277   5.860  0.4024 -0.2762 -0.2069
17916TIP3    H175163   1.921   6.360   5.850  1.8903 -0.7923  1.8257
17916TIP3    H275164   1.860   6.269   5.955  0.3778 -2.3608 -0.3422
17917TIP3   OH275165   0.737   4.595   6.115  0.2818 -0.6903  0.2497
17917TIP3    H175166   0.796   4.657   6.159 -0.5986  0.1084  0.3495
17917TIP3    H275167   0.711   4.534   6.184 -1.1446  0.5927  0.9309
17918TIP3   OH275168   2.758   0.317   2.334 -0.2524  0.0588  0.2193
17918TIP3    H175169   2.728   0.233   2.370  0.7959 -0.3665  0.1346
17918TIP3    H275170   2.681   0.373   2.338 -0.5437 -0.3925  1.8413
17919TIP3   OH275171   3.658   4.198  13.351  0.4427 -0.1966 -0.9721
17919TIP3    H175172   3.644   4.135  13.422 -1.0579  0.5169 -0.5971
17919TIP3    H275173   3.704   4.148  13.283  0.9826 -1.1618  0.0758
17920TIP3   OH275174   3.782   4.023   3.052  0.0171 -0.8511 -0.1631
17920TIP3    H175175   3.759   4.045   2.961 -0.4837 -3.3001 -0.6876
17920TIP3    H275176   3.875   4.046   3.059 -0.2309  0.4903 -0.8945
17921TIP3   OH275177   1.353   0.288  12.549 -0.2874 -0.1002  0.4899
17921TIP3    H175178   1.346   0.383  12.559  2.4830  0.2923 -0.4255
17921TIP3    H275179   1.357   0.255  12.639  0.5750  0.8661  0.8312
17922TIP3   OH275180   4.960   3.708  11.339  0.7809 -0.5925 -0.2151
17922TIP3    H175181   5.006   3.758  11.271 -0.4600 -1.0132 -1.3975
17922TIP3    H275182   4.870   3.741  11.336  0.7456 -0.4593  1.4020
17923TIP3   OH275183   5.139   3.767   4.007 -0.2041  0.3048  0.2274
17923TIP3    H175184   5.152   3.675   4.032  1.6203  0.8622  1.5653
17923TIP3    H275185   5.056   3.767   3.959 -0.7665 -1.8736  1.0562
17924TIP3   OH275186   4.561   0.036  15.174 -0.3383  0.0596  0.3332
17924TIP3    H175187   4.628   0.025  15.241  0.8351 -0.2689 -0.8658
17924TIP3    H275188   4.559  -0.047  15.127 -1.4780  0.1231  0.2430
17925TIP3   OH275189   0.231   2.360  15.344 -0.5756 -0.1053  0.6983
17925TIP3    H175190   0.318   2.372  15.382 -1.4516  1.9933  2.2287
17925TIP3    H275191   0.175   2.338  15.419 -1.5874 -0.1837 -0.0577
17926TIP3   OH275192   1.224   1.595   4.176  0.0524 -0.1584  0.0374
17926TIP3    H175193   1.139   1.577   4.136  1.2355 -4.0933 -1.1520
17926TIP3    H275194   1.279   1.623   4.103  0.5577 -0.7827  0.1723
17927TIP3   OH275195   4.675   3.736   1.763 -0.8697 -0.2738 -0.3227
17927TIP3    H175196   4.581   3.727   1.781 -1.2127  0.6670 -1.5233
17927TIP3    H275197   4.682   3.819   1.715  1.0332  1.8061  3.0882
17928TIP3   OH275198   1.285   6.544   4.414 -0.2598 -0.0178  0.4210
17928TIP3    H175199   1.305   6.613   4.351 -2.0697  0.8057  0.6855
17928TIP3    H275200   1.208   6.500   4.379  0.3313 -1.3211  0.7201
17929TIP3   OH275201   4.208   4.964  11.488  0.0814  0.1107  0.1675
17929TIP3    H175202   4.251   4.953  11.573 -1.0394 -0.4994  0.6799
17929TIP3    H275203   4.225   4.882  11.442  0.3569  0.2894 -0.0561
17930TIP3   OH275204   2.817   0.079  16.879 -0.2129 -0.1925 -0.0473
17930TIP3    H175205   2.769   0.162  16.877  1.3443  0.8446  2.2354
17930TIP3    H275206   2.903   0.101  16.842  0.8010 -0.2999  2.1222
17931TIP3   OH275207   2.800   2.331  13.209 -0.4314  0.4824  0.7653
17931TIP3    H175208   2.738   2.325  13.281  0.6128 -2.1233  1.5361
17931TIP3    H275209   2.872   2.273  13.234 -0.0378 -0.5496 -2.3645
17932TIP3   OH275210   1.794   4.114  15.573  0.0088 -0.1360 -0.5211
17932TIP3    H175211   1.747   4.085  15.651  0.3288 -0.5985 -0.4952
17932TIP3    H275212   1.784   4.041  15.511 -1.7014  0.9060 -1.5544
17933TIP3   OH275213   3.748   4.118   1.686 -0.9231 -0.3926 -0.1315
17933TIP3    H175214   3.815   4.141   1.750  0.4858  3.0881 -2.5740
17933TIP3    H275215   3.669   4.105   1.738  0.4723  0.6144  2.4221
17934TIP3   OH275216   3.731   4.408   5.250 -0.0911 -0.3064  0.6339
17934TIP3    H175217   3.671   4.351   5.202  1.0187 -0.8163 -0.1833
17934TIP3    H275218   3.707   4.396   5.342 -0.9374 -0.8412  0.3504
17935TIP3   OH275219   0.626   0.629  12.924  0.2861 -0.2402  0.4201
17935TIP3    H175220   0.675   0.554  12.957  1.3447 -0.2760 -1.1413
17935TIP3    H275221   0.548   0.632  12.979  1.0817 -1.3888  1.6792
17936TIP3   OH275222   2.783   5.696   1.491 -0.2376  0.4042 -0.1688
17936TIP3    H175223   2.855   5.654   1.444 -0.6373 -0.5486  0.0459
17936TIP3    H275224   2.826   5.749   1.558  0.2849 -2.0212  1.5580
17937TIP3   OH275225   2.500   5.346  12.872 -0.6554 -0.6721 -0.3299
17937TIP3    H175226   2.499   5.412  12.803 -0.2477 -0.1629  0.1392
17937TIP3    H275227   2.492   5.262  12.826  3.0959 -0.6465 -1.3707
17938TIP3   OH275228   4.362   0.340   1.927  0.2244 -0.3142 -0.1631
17938TIP3    H175229   4.392   0.338   1.836 -0.0634 -0.3123 -0.2578
17938TIP3    H275230   4.441   0.357   1.978  0.3549 -0.1387 -0.4262
17939TIP3   OH275231   3.912   6.425  14.800 -0.0989 -0.4411  0.2345
17939TIP3    H175232   3.861   6.402  14.723  1.5794  0.8060 -1.3386
17939TIP3    H275233   3.860   6.491  14.845 -0.9671 -0.9746  0.0411
17940TIP3   OH275234   2.247   5.433  13.822  0.3618 -0.5417  0.0435
17940TIP3    H175235   2.261   5.412  13.914 -2.1889  1.3310  0.9508
17940TIP3    H275236   2.215   5.351  13.784  0.3655 -1.0358  1.0610
17941TIP3   OH275237   4.454   6.540  14.723  0.1329  0.3163 -0.4558
17941TIP3    H175238   4.491   6.607  14.665  0.2924  0.6957  0.0691
17941TIP3    H275239   4.529   6.511  14.776 -0.0605  0.1690 -0.2635
17942TIP3   OH275240   0.645   0.947   1.171  0.4780 -0.2281 -1.1207
17942TIP3    H175241   0.680   1.003   1.102  0.2903 -0.9032 -1.7754
17942TIP3    H275242   0.710   0.951   1.241  0.3399  1.0022 -1.0510
17943TIP3   OH275243   0.874   1.283   1.549  0.5619 -0.2576 -0.1392
17943TIP3    H175244   0.933   1.286   1.474  1.0520 -1.2659  0.2020
17943TIP3    H275245   0.820   1.362   1.539  0.8885 -0.1638 -1.3199
17944TIP3   OH275246   0.816   2.840   4.985 -0.4500  0.4764  1.0171
17944TIP3    H175247   0.852   2.766   5.033 -1.1737 -1.5158 -1.3466
17944TIP3    H275248   0.802   2.808   4.896 -0.1371  3.6747 -0.3346
17945TIP3   OH275249   0.468   0.652  16.589 -0.4608  0.1135 -0.1562
17945TIP3    H175250   0.454   0.612  16.674  1.2203  0.5981  0.4005
17945TIP3    H275251   0.548   0.704  16.600 -0.4504  0.5395 -1.9066
17946TIP3   OH275252   5.162   6.626  11.657 -0.0084  0.2885 -0.2235
17946TIP3    H175253   5.122   6.612  11.572 -1.2870 -1.0255  0.5468
17946TIP3    H275254   5.256   6.622  11.640 -0.2453 -0.6573 -1.4734
17947TIP3   OH275255   6.723   6.532  11.877  0.0304  0.5644 -0.4157
17947TIP3    H175256   6.698   6.532  11.784 -0.5950  1.2817 -0.2519
17947TIP3    H275257   6.738   6.439  11.897  1.0821  0.4794 -1.4591
17948TIP3   OH275258   4.620   1.952   5.279  0.8053  0.2073  0.4487
17948TIP3    H175259   4.635   1.863   5.249 -0.5691  0.0489  0.1310
17948TIP3    H275260   4.581   1.997   5.204  0.5054  0.7748  0.9307
17949TIP3   OH275261   0.044   5.277  11.364 -0.2197 -0.6284  0.2568
17949TIP3    H175262   0.074   5.360  11.325  0.3795 -0.3426  1.2965
17949TIP3    H275263  -0.050   5.275  11.346  0.0703 -0.6974 -1.5255
17950TIP3   OH275264   1.076   5.833  15.646 -0.1287  0.4488  0.5665
17950TIP3    H175265   1.042   5.766  15.705  0.6325 -1.1911 -0.7673
17950TIP3    H275266   1.026   5.821  15.565  2.7788 -1.3631 -1.1149
17951TIP3   OH275267   5.465   4.767  15.210  0.5325  0.3954 -0.6501
17951TIP3    H175268   5.511   4.820  15.145 -1.6586  3.8511  0.3815
17951TIP3    H275269   5.375   4.764  15.179 -0.1069  0.2602  1.1495
17952TIP3   OH275270   4.818   5.335   2.140  0.3785  0.2512  0.0182
17952TIP3    H175271   4.863   5.255   2.115  0.1316 -0.0650  0.5517
17952TIP3    H275272   4.887   5.397   2.161  0.6301  0.8554 -2.3212
17953TIP3   OH275273   4.487   1.185   1.439 -0.3282 -0.3067  0.0644
17953TIP3    H175274   4.461   1.177   1.348 -2.0732 -2.6677  0.6805
17953TIP3    H275275   4.520   1.099   1.463 -1.4155 -0.2354  2.0563
17954TIP3   OH275276   2.583   2.966  12.738 -0.2194  0.2829  0.3320
17954TIP3    H175277   2.543   2.880  12.755 -0.3903 -0.5180 -3.2957
17954TIP3    H275278   2.537   3.026  12.796 -2.8177 -1.4923  0.2829
17955TIP3   OH275279   3.247   4.011   2.572  0.3890  0.3732 -0.1160
17955TIP3    H175280   3.241   4.044   2.482  0.0006 -1.6875 -0.9123
17955TIP3    H275281   3.174   3.949   2.579  1.3996 -0.7322  1.0758
17956TIP3   OH275282   2.821   4.860  15.365  0.6001  0.1410  0.2568
17956TIP3    H175283   2.792   4.778  15.325 -4.1876  1.9148 -0.5217
17956TIP3    H275284   2.828   4.840  15.458 -0.5051 -1.2006  0.0875
17957TIP3   OH275285   5.375   4.529  17.065 -0.6671 -0.6080  0.2140
17957TIP3    H175286   5.350   4.438  17.078 -2.1352  0.0886  3.2352
17957TIP3    H275287   5.469   4.527  17.050 -0.8334 -2.6425 -0.8231
17958TIP3   OH275288   4.633   6.710  10.638  0.5700  0.0192  0.0219
17958TIP3    H175289   4.690   6.787  10.633 -0.4087  0.7464 -0.3138
17958TIP3    H275290   4.595   6.703  10.550  1.4504 -1.4986 -0.2644
17959TIP3   OH275291   5.968   6.067  15.192  0.2349  0.7458  0.3393
17959TIP3    H175292   5.978   6.161  15.207 -0.2526  1.2698 -2.1583
17959TIP3    H275293   5.897   6.040  15.250  0.1188  1.9958  0.8029
17960TIP3   OH275294   0.056   0.234   5.404 -0.6383 -0.5271  0.8706
17960TIP3    H175295   0.105   0.243   5.323 -0.0174 -0.3316  1.2635
17960TIP3    H275296  -0.030   0.270   5.384 -1.0838 -2.0677 -0.2126
17961TIP3   OH275297   3.460   3.382  17.123  0.3280 -0.1240 -0.8739
17961TIP3    H175298   3.457   3.476  17.110 -0.0506 -0.2843 -2.0786
17961TIP3    H275299   3.388   3.348  17.070  1.0728 -1.1618 -1.2680
17962TIP3   OH275300   4.281   4.188   5.710 -0.2202 -0.2167 -0.4335
17962TIP3    H175301   4.244   4.272   5.735 -1.4401 -0.3843 -1.5591
17962TIP3    H275302   4.330   4.159   5.787 -1.6605  0.4751  0.7923
17963TIP3   OH275303   5.968   4.704   3.741 -0.2973 -0.2470 -0.1538
17963TIP3    H175304   5.924   4.760   3.804  0.4789 -0.5558  0.6858
17963TIP3    H275305   6.029   4.762   3.695  0.1682 -0.2921  0.3919
17964TIP3   OH275306   1.022   1.284   1.310  0.1725  0.5002  0.1914
17964TIP3    H175307   0.960   1.296   1.238 -0.4119  1.1846  0.7887
17964TIP3    H275308   1.075   1.364   1.309  0.5586  0.2430  0.1441
17965TIP3   OH275309   5.837   4.960   4.614 -0.0759  0.2149 -0.4077
17965TIP3    H175310   5.879   4.879   4.642  2.8824  0.9987 -2.1795
17965TIP3    H275311   5.791   4.936   4.533 -1.8628 -0.2892  0.6977
17966TIP3   OH275312   2.357   1.113  12.567 -0.1944 -0.0346  0.0341
17966TIP3    H175313   2.385   1.062  12.491 -0.2578 -1.4470  0.9220
17966TIP3    H275314   2.437   1.152  12.602  0.3129 -1.8452  0.9775
17967TIP3   OH275315   2.622   0.688  15.603  0.0454  0.3392 -0.1050
17967TIP3    H175316   2.686   0.619  15.583 -1.0313 -0.0189 -2.7089
17967TIP3    H275317   2.616   0.688  15.698  3.0333 -0.3904  0.1985
17968TIP3   OH275318   6.324   3.896   4.383  0.1038 -0.5316 -0.2173
17968TIP3    H175319   6.338   3.856   4.469 -1.2733 -1.4170 -0.3883
17968TIP3    H275320   6.345   3.828   4.320 -0.0459 -0.2605 -0.5668
17969TIP3   OH275321   4.608   3.980  16.274  0.4710 -0.0672  0.5065
17969TIP3    H175322   4.635   3.981  16.183 -1.4451  0.5850 -0.1020
17969TIP3    H275323   4.650   3.903  16.311  1.0261 -0.5142 -0.9957
17970TIP3   OH275324   2.063   2.242  10.479  0.2886 -0.7651 -0.4180
17970TIP3    H175325   2.051   2.289  10.562  0.7380  0.4771 -1.0196
17970TIP3    H275326   1.974   2.232  10.444  0.3047  2.7206 -1.8605
17971TIP3   OH275327   1.080   3.319  11.561  0.0627  0.0408 -0.3716
17971TIP3    H175328   1.097   3.411  11.540 -0.1664 -0.0335 -0.8947
17971TIP3    H275329   1.165   3.276  11.550 -0.4047 -0.3528 -3.1018
17972TIP3   OH275330   0.118   2.677  14.364 -0.1582 -0.0816 -0.5645
17972TIP3    H175331   0.155   2.725  14.290 -1.0897  0.8633 -0.4370
17972TIP3    H275332   0.056   2.737  14.403 -2.3888 -1.8278 -1.2089
17973TIP3   OH275333   2.593   6.146  16.624  0.0064 -0.2898 -0.2557
17973TIP3    H175334   2.631   6.202  16.691  1.0979 -0.0412 -1.0587
17973TIP3    H275335   2.530   6.091  16.671 -1.2052  1.6885  0.5307
17974TIP3   OH275336   1.399   1.925   1.722 -0.5998 -0.2020 -0.4919
17974TIP3    H175337   1.326   1.944   1.664 -2.5237 -1.5802  1.3048
17974TIP3    H275338   1.360   1.925   1.810  1.2436 -2.3674  0.4245
17975TIP3   OH275339   0.695   5.150   2.050  0.0994  0.5546 -0.4087
17975TIP3    H175340   0.683   5.153   1.955 -2.7787  3.6526 -0.1578
17975TIP3    H275341   0.728   5.237   2.072  0.6111 -0.0777  1.4430
17976TIP3   OH275342   5.073   5.313  17.101 -0.6860 -0.1045 -0.4392
17976TIP3    H175343   5.157   5.300  17.056 -1.0947 -1.8514 -0.7910
17976TIP3    H275344   5.022   5.369  17.043 -0.0740  0.2586 -0.6336
17977TIP3   OH275345   1.835   2.646  16.187  0.4802  0.1556 -0.2826
17977TIP3    H175346   1.795   2.690  16.261 -0.6396  0.8414 -1.2518
17977TIP3    H275347   1.863   2.717  16.129  1.0250 -0.3643 -0.6643
17978TIP3   OH275348   0.744   0.524  15.252 -0.1808 -0.1126 -0.1070
17978TIP3    H175349   0.697   0.464  15.310 -1.0548 -0.4346 -1.1240
17978TIP3    H275350   0.829   0.536  15.295 -0.3201 -1.3626  0.5807
17979TIP3   OH275351   3.020   5.099  15.775  0.0921 -0.5233 -0.3443
17979TIP3    H175352   2.991   5.181  15.736  0.8518 -0.1885 -0.2142
17979TIP3    H275353   2.956   5.034  15.744  1.0969 -0.4446 -2.8779
17980TIP3   OH275354   2.593   2.915  15.720  0.0159 -0.0758 -0.5742
17980TIP3    H175355   2.584   2.852  15.648 -2.5163 -0.4094 -0.0418
17980TIP3    H275356   2.529   2.984  15.700 -1.6138 -0.7655  1.8991
17981TIP3   OH275357   4.025   3.803   3.516  0.2259 -0.0526 -0.0359
17981TIP3    H175358   4.043   3.864   3.588  0.6144  0.0396 -0.2051
17981TIP3    H275359   4.094   3.822   3.452 -0.4593  0.2792 -0.6909
17982TIP3   OH275360   3.456   6.680   1.170 -0.5304 -0.2514  0.1532
17982TIP3    H175361   3.547   6.659   1.149 -0.5149 -0.2625  0.2304
17982TIP3    H275362   3.451   6.775   1.160 -0.5143 -0.2524  0.1353
17983TIP3   OH275363   2.288   0.370   6.493  0.1364 -0.2818 -0.1316
17983TIP3    H175364   2.338   0.363   6.413  0.5040  1.5330 -0.1120
17983TIP3    H275365   2.215   0.309   6.482  0.8884 -0.9976 -1.2789
17984TIP3   OH275366   0.868   0.322  10.844  0.0450  0.0741 -0.5058
17984TIP3    H175367   0.952   0.284  10.817  0.2567  0.4282 -0.3397
17984TIP3    H275368   0.841   0.268  10.918 -0.1601 -0.4090 -0.9193
17985TIP3   OH275369   5.185   3.309   6.444 -0.4490 -0.6599 -0.4360
17985TIP3    H175370   5.148   3.382   6.394  2.4648  1.0868 -0.2747
17985TIP3    H275371   5.205   3.243   6.378 -1.0111 -0.3768 -0.9021
17986TIP3   OH275372   4.946   0.016   0.326 -0.1575 -0.1817 -0.1054
17986TIP3    H175373   4.986  -0.069   0.307  0.2034  0.0016 -0.1789
17986TIP3    H275374   5.021   0.075   0.340 -0.3309  0.5729 -2.0212
17987TIP3   OH275375   3.433   5.162   1.822  0.2455 -0.5459 -0.4748
17987TIP3    H175376   3.420   5.111   1.902  0.4002  1.3065  0.7738
17987TIP3    H275377   3.527   5.179   1.819 -0.0105  1.0901  0.0518
17988TIP3   OH275378   5.800   5.940  15.381 -0.3873  0.1799  0.4737
17988TIP3    H175379   5.749   6.021  15.376  1.1675  1.1909  0.2324
17988TIP3    H275380   5.751   5.885  15.441 -0.6003  2.0229  2.1171
17989TIP3   OH275381   3.661   4.446   0.349  0.3543 -0.1741 -0.3424
17989TIP3    H175382   3.670   4.369   0.293  0.8331  1.1334 -2.1554
17989TIP3    H275383   3.742   4.495   0.335  0.5164  0.1808  1.5811
17990TIP3   OH275384   2.883   5.862   2.144 -0.2516  0.0863  0.1869
17990TIP3    H175385   2.958   5.899   2.191 -1.1223  0.6835  1.1450
17990TIP3    H275386   2.895   5.767   2.153 -0.2560  0.1788  1.4139
17991TIP3   OH275387   1.658   5.608   0.024  0.0338 -0.2421 -0.1934
17991TIP3    H175388   1.703   5.602   0.108 -0.7786  3.2406  0.6592
17991TIP3    H275389   1.591   5.539   0.028  0.0734 -0.2375  2.0109
17992TIP3   OH275390   3.437   3.675   4.976  0.0470  0.5501 -0.4317
17992TIP3    H175391   3.354   3.651   4.936  1.2226 -1.9146 -1.6263
17992TIP3    H275392   3.433   3.641   5.065  0.1100 -0.4545 -0.8006
17993TIP3   OH275393   5.510   2.435   4.451  0.1178 -0.2028 -0.3263
17993TIP3    H175394   5.456   2.376   4.399 -0.3785  0.4774 -0.5982
17993TIP3    H275395   5.498   2.405   4.541 -0.4026 -0.3132 -0.4268
17994TIP3   OH275396   1.346   4.673   4.761 -0.2872  0.1878  0.3424
17994TIP3    H175397   1.379   4.685   4.850  1.7376 -1.1856 -0.1614
17994TIP3    H275398   1.293   4.593   4.765  1.9161 -1.3826 -0.1297
17995TIP3   OH275399   0.565   4.057   4.916  0.0809  0.2288  0.2970
17995TIP3    H175400   0.499   4.108   4.870  0.2381 -1.1490 -1.6003
17995TIP3    H275401   0.519   4.015   4.989 -1.0325 -0.2814 -0.6771
17996TIP3   OH275402   4.137   6.334  11.978  0.1267 -0.1159  0.1336
17996TIP3    H175403   4.056   6.357  11.932  1.1397  1.9755 -0.7281
17996TIP3    H275404   4.109   6.315  12.068 -1.1219  3.0225  0.5350
17997TIP3   OH275405   0.147   2.000   2.374 -0.0573 -0.1654  0.6537
17997TIP3    H175406   0.212   2.003   2.304  0.2683 -1.7770  0.8598
17997TIP3    H275407   0.118   2.091   2.383  0.6384  0.2372 -0.8594
17998TIP3   OH275408   2.318   4.039  15.929 -0.7743  0.0718  0.4911
17998TIP3    H175409   2.260   4.061  15.857 -0.9031 -0.1752  0.5191
17998TIP3    H275410   2.274   3.967  15.974 -0.2748 -0.3712  0.2874
17999TIP3   OH275411   6.312   4.799  10.186 -0.1963  0.5227 -0.0503
17999TIP3    H175412   6.398   4.840  10.194 -0.1407  0.4572 -0.2848
17999TIP3    H275413   6.308   4.737  10.259  0.3752 -0.2150 -0.6156
18000TIP3   OH275414   0.266   2.443   0.982  0.0693  0.6655  0.1410
18000TIP3    H175415   0.215   2.482   0.911 -0.9636 -1.9057 -0.6446
18000TIP3    H275416   0.357   2.451   0.953 -0.2709  0.6612 -0.9706
18001TIP3   OH275417   4.090   1.960  13.041 -0.9248 -0.4109  0.4012
18001TIP3    H175418   4.006   1.914  13.052 -1.5271  0.2328 -1.1532
18001TIP3    H275419   4.104   1.960  12.946  0.3989  0.2691  0.5849
18002TIP3   OH275420   0.879   3.205  14.066 -0.4270  0.0765  0.1357
18002TIP3    H175421   0.804   3.167  14.111 -0.5693  1.0672  0.7625
18002TIP3    H275422   0.845   3.233  13.982 -0.8508  0.8503  0.5603
18003TIP3   OH275423   1.339   1.493  10.785  0.3182 -0.4092  0.2881
18003TIP3    H175424   1.363   1.409  10.745  1.9798 -0.1523  0.6831
18003TIP3    H275425   1.285   1.536  10.719 -1.1195 -2.0385  0.3363
18004TIP3   OH275426   4.251   5.632   1.888  0.1996 -0.1416 -0.1879
18004TIP3    H175427   4.309   5.686   1.834  0.1483 -2.3110 -2.6579
18004TIP3    H275428   4.306   5.561   1.919 -0.4910 -0.6582 -0.1191
18005TIP3   OH275429   4.800   3.507  13.674  0.6523  0.0946  0.6203
18005TIP3    H175430   4.801   3.602  13.660  0.3719 -0.2027 -2.1302
18005TIP3    H275431   4.808   3.470  13.586  1.6019 -2.4714  1.6810
18006TIP3   OH275432   2.540   6.604   1.529  0.0683 -0.4480 -0.2959
18006TIP3    H175433   2.582   6.670   1.474 -0.8590  0.8762  0.5155
18006TIP3    H275434   2.454   6.589   1.488 -0.0971 -0.4526  0.0453
18007TIP3   OH275435   6.356   3.590  16.993  0.2295 -0.2041 -0.4048
18007TIP3    H175436   6.340   3.660  17.057 -2.1639  0.7728 -1.9273
18007TIP3    H275437   6.429   3.541  17.029  0.6556  1.8466  1.7723
18008TIP3   OH275438   6.484   1.625   5.450 -0.4363 -0.0931  0.2273
18008TIP3    H175439   6.520   1.640   5.537 -0.8630  0.5186  0.3057
18008TIP3    H275440   6.391   1.646   5.458 -0.2687  1.1072 -0.6377
18009TIP3   OH275441   3.641   4.505  14.976  0.2120 -0.5273 -0.1679
18009TIP3    H175442   3.551   4.528  14.999 -0.1249 -1.8209 -0.1211
18009TIP3    H275443   3.683   4.485  15.060  0.1605 -1.2397 -0.3129
18010TIP3   OH275444   5.854   4.957   1.861 -0.3572  0.2880  0.6964
18010TIP3    H175445   5.842   4.872   1.818 -0.5672  1.0808 -0.8766
18010TIP3    H275446   5.786   4.960   1.929 -0.4864 -0.7027  0.6233
18011TIP3   OH275447   3.751   3.430  15.743 -0.5174  1.0846 -0.2076
18011TIP3    H175448   3.780   3.471  15.662 -3.0373  3.8164  0.1108
18011TIP3    H275449   3.784   3.487  15.813  1.3882 -1.0813  0.8078
18012TIP3   OH275450   1.007   4.367   1.160  0.2978  0.4001  0.1180
18012TIP3    H175451   0.967   4.285   1.188  1.7738  0.1001  1.5151
18012TIP3    H275452   0.940   4.409   1.106 -0.8481 -1.2729  0.1582
18013TIP3   OH275453   5.004   0.487   1.836 -0.6854  0.1859 -1.0256
18013TIP3    H175454   5.075   0.541   1.800 -0.6331 -0.1197 -1.3933
18013TIP3    H275455   4.984   0.426   1.765 -1.6180  0.5568 -1.0877
18014TIP3   OH275456   6.187   1.558  13.785  0.0276  0.1896  0.3856
18014TIP3    H175457   6.202   1.646  13.821  1.2919  0.5670 -0.9872
18014TIP3    H275458   6.098   1.536  13.813 -0.4631  2.0719  0.4348
18015TIP3   OH275459   4.463   2.213   3.195 -0.3087 -0.6993  0.1317
18015TIP3    H175460   4.425   2.175   3.116 -1.7688 -1.1818  1.0361
18015TIP3    H275461   4.552   2.178   3.198 -0.3888 -1.0412 -1.0354
18016TIP3   OH275462   3.358   3.442   4.456 -0.5706  0.0382  0.0313
18016TIP3    H175463   3.289   3.395   4.408 -1.3653  0.4537  0.7389
18016TIP3    H275464   3.439   3.408   4.420 -1.1281  0.6395 -1.9134
18017TIP3   OH275465   2.649   0.497  11.568 -0.0250 -0.1338 -0.2786
18017TIP3    H175466   2.692   0.469  11.487  1.3343  0.9044  0.0442
18017TIP3    H275467   2.686   0.583  11.586 -2.2812  0.8522  0.0342
18018TIP3   OH275468   2.929   2.664  16.590 -0.2351  0.4671 -0.0798
18018TIP3    H175469   2.884   2.744  16.565 -0.2576  1.5526  2.9531
18018TIP3    H275470   3.020   2.677  16.562 -0.5589  0.8382 -0.9853
18019TIP3   OH275471   6.382   0.099  17.014 -0.3711 -0.1994 -0.2802
18019TIP3    H175472   6.437   0.169  16.978 -0.7912 -0.8808 -2.3614
18019TIP3    H275473   6.301   0.103  16.963 -1.3029 -0.7776  1.0991
18020TIP3   OH275474   1.832   3.608  16.414 -0.3262  0.2925  0.1908
18020TIP3    H175475   1.921   3.579  16.437 -0.0116  0.0113 -1.2376
18020TIP3    H275476   1.775   3.540  16.449  0.3090 -1.4121 -1.8750
18021TIP3   OH275477   3.756   4.837   3.648  0.2600  0.2520 -0.4944
18021TIP3    H175478   3.727   4.779   3.718  1.2642 -0.8892 -0.9715
18021TIP3    H275479   3.832   4.883   3.685  0.4668  0.0371 -0.6440
18022TIP3   OH275480   1.185   1.884   1.516 -0.0571  0.3728  0.4397
18022TIP3    H175481   1.122   1.938   1.564 -0.5277 -0.7298  1.1195
18022TIP3    H275482   1.196   1.928   1.432 -2.5836  0.0292 -0.1395
18023TIP3   OH275483   6.102   4.473   0.539  0.4194 -0.4687  0.0678
18023TIP3    H175484   6.037   4.431   0.483 -0.9180 -1.4332  2.2207
18023TIP3    H275485   6.159   4.402   0.568 -0.1060 -0.3670  1.4385
18024TIP3   OH275486   0.929   5.750  15.436  1.0301  0.5005 -0.0057
18024TIP3    H175487   0.917   5.808  15.361  0.3964 -0.8638 -1.0141
18024TIP3    H275488   0.884   5.669  15.411  0.7327  0.0345  1.8958
18025TIP3   OH275489   1.646   4.421   6.083 -0.3645 -0.2075 -0.0352
18025TIP3    H175490   1.565   4.389   6.121  0.7972 -0.9727  1.9265
18025TIP3    H275491   1.627   4.512   6.057 -1.1903  0.4555  2.6287
18026TIP3   OH275492   0.145   3.387   3.077 -0.8534  0.0981  0.2657
18026TIP3    H175493   0.104   3.328   3.014 -0.4584  0.7931 -0.6660
18026TIP3    H275494   0.092   3.378   3.156 -2.1996  0.2095 -0.5789
18027TIP3   OH275495   0.116   1.233   4.686 -0.7089  0.6607  0.3033
18027TIP3    H175496   0.085   1.315   4.723  0.2701  1.6993 -1.0793
18027TIP3    H275497   0.190   1.208   4.741 -2.1315 -0.3302  1.8665
18028TIP3   OH275498   6.539   2.137   5.154  0.7875 -0.5681  0.1032
18028TIP3    H175499   6.612   2.133   5.217  1.4330  0.8422 -0.5070
18028TIP3    H275500   6.493   2.218   5.175  0.6110 -0.4195 -0.8060
18029TIP3   OH275501   0.684   0.010   0.875 -0.2304 -0.1808  0.8223
18029TIP3    H175502   0.661  -0.082   0.868  1.0038 -0.6356  2.1680
18029TIP3    H275503   0.686   0.042   0.784 -0.9942 -1.3851  0.3685
18030TIP3   OH275504   5.412   0.287  15.606  0.1489 -0.3368 -0.1634
18030TIP3    H175505   5.451   0.355  15.550 -0.6592  0.3579  0.0885
18030TIP3    H275506   5.359   0.235  15.546  1.4389 -1.3052 -0.5140
18031TIP3   OH275507   0.317   2.964   1.183  0.5893 -0.1204 -0.1835
18031TIP3    H175508   0.283   2.893   1.127  0.4144  0.1310 -0.3996
18031TIP3    H275509   0.308   3.043   1.129 -0.7763  0.3334  0.6579
18032TIP3   OH275510   0.265   2.941   0.591 -0.2049  0.4895 -0.1323
18032TIP3    H175511   0.345   2.983   0.559 -0.2907  0.7743  0.0232
18032TIP3    H275512   0.202   3.012   0.599 -0.9104  0.0541 -1.5819
18033TIP3   OH275513   2.943   6.522  13.904  0.1461 -0.3265  0.0121
18033TIP3    H175514   2.974   6.553  13.818  1.2595 -0.4059  0.3621
18033TIP3    H275515   2.973   6.590  13.965 -0.1612 -0.5445  0.4033
18034TIP3   OH275516   3.689   2.554   2.900 -0.3131 -1.0065 -0.6459
18034TIP3    H175517   3.754   2.610   2.858 -0.5463 -0.4557 -0.2784
18034TIP3    H275518   3.652   2.608   2.970  1.3903 -2.4939  1.5476
18035TIP3   OH275519   6.499   4.102   0.750 -0.4703 -0.0438 -0.3703
18035TIP3    H175520   6.520   4.193   0.730 -0.2040  0.4534  1.8796
18035TIP3    H275521   6.568   4.051   0.707 -0.8889  0.7531 -2.0497
18036TIP3   OH275522   5.818   3.568   0.615  0.5255 -0.1161 -0.2884
18036TIP3    H175523   5.774   3.637   0.664  1.1878 -0.4507  0.8458
18036TIP3    H275524   5.791   3.580   0.524 -0.9938  0.3543  0.1994
18037TIP3   OH275525   0.403   2.078   2.223 -0.0429 -0.0009  0.2900
18037TIP3    H175526   0.397   2.171   2.202 -2.5491  0.0511  0.8854
18037TIP3    H275527   0.419   2.036   2.139  0.4277  0.9072 -0.0927
18038TIP3   OH275528   0.793   3.778  14.089  0.3068  0.1429  0.6586
18038TIP3    H175529   0.721   3.816  14.039 -0.1945  0.9344  1.9357
18038TIP3    H275530   0.863   3.766  14.025  0.1995  2.4550  0.0167
18039TIP3   OH275531   4.941   3.732  16.514 -0.0874 -0.3707  0.1388
18039TIP3    H175532   4.908   3.643  16.501  0.0224 -0.4435  0.3526
18039TIP3    H275533   5.033   3.727  16.488 -0.4132 -0.0058 -1.1221
18040TIP3   OH275534   5.718   5.879   2.501 -0.1735  0.0993 -0.3338
18040TIP3    H175535   5.763   5.798   2.524 -0.1350  0.1348 -0.2837
18040TIP3    H275536   5.752   5.944   2.564  0.1577  0.2681 -0.6856
18041TIP3   OH275537   1.329   4.501  16.735 -0.3630  0.4568  0.4511
18041TIP3    H175538   1.241   4.472  16.757 -0.6999  0.6285 -0.6090
18041TIP3    H275539   1.350   4.456  16.653  1.2771 -1.0224  1.5921
18042TIP3   OH275540   6.477   2.314   0.096 -0.2408 -0.0793 -0.0186
18042TIP3    H175541   6.387   2.281   0.088  0.2070 -0.9861 -1.6945
18042TIP3    H275542   6.473   2.375   0.170 -2.7656  1.6448 -1.4119
18043TIP3   OH275543   0.502   1.321  14.309  0.6650 -0.4782  1.0268
18043TIP3    H175544   0.407   1.322  14.294  0.8598 -1.7231 -0.5959
18043TIP3    H275545   0.534   1.400  14.265  0.5851 -1.1301 -0.2337
18044TIP3   OH275546   2.375   6.152  14.028 -0.0968  0.4405 -0.7905
18044TIP3    H175547   2.470   6.141  14.033 -0.0880  0.5147 -0.7977
18044TIP3    H275548   2.340   6.082  14.083 -0.0296  0.5957 -0.5502
18045TIP3   OH275549   4.415   4.284   2.895  0.3396 -0.3932 -0.1774
18045TIP3    H175550   4.452   4.197   2.910  2.5460  0.3101 -1.1742
18045TIP3    H275551   4.433   4.332   2.976 -1.5445 -1.0105  0.6694
18046TIP3   OH275552   1.200   6.251  11.374 -0.2914  0.2414 -0.3024
18046TIP3    H175553   1.179   6.177  11.318 -1.6673 -0.1571  0.7044
18046TIP3    H275554   1.117   6.277  11.413  0.7384 -0.2738  2.4925
18047TIP3   OH275555   5.547   3.492  16.075 -0.2175 -0.0658 -0.0304
18047TIP3    H175556   5.509   3.447  15.999 -0.1818  0.6439 -0.4795
18047TIP3    H275557   5.642   3.480  16.065 -0.2684 -1.1897  0.6831
18048TIP3   OH275558   4.061   3.542  12.171  0.5169  0.0704 -0.2418
18048TIP3    H175559   4.056   3.580  12.083  0.0586  1.2884  0.2923
18048TIP3    H275560   4.151   3.556  12.198 -0.1366  2.9085  0.8200
18049TIP3   OH275561   4.317   0.214   6.027 -0.3337  0.1194 -0.2575
18049TIP3    H175562   4.239   0.242   6.076  0.2776  0.4540  0.5397
18049TIP3    H275563   4.351   0.294   5.988 -0.3692 -0.0232 -0.5842
18050TIP3   OH275564   4.281   3.818  15.387  0.4282  0.0672 -0.1106
18050TIP3    H175565   4.297   3.807  15.481  0.9460 -0.4675 -0.2536
18050TIP3    H275566   4.244   3.905  15.379 -2.8952 -1.1105  0.9622
18051TIP3   OH275567   6.209   2.915   5.336 -0.4347 -0.2974 -0.1315
18051TIP3    H175568   6.236   2.984   5.275  0.9623  0.7851  1.6041
18051TIP3    H275569   6.291   2.875   5.365 -1.1158 -1.3226  0.4360
18052TIP3   OH275570   6.076   1.302  14.467 -0.4729 -0.2077  0.9283
18052TIP3    H175571   6.017   1.241  14.423 -0.5707 -0.9853  2.1084
18052TIP3    H275572   6.098   1.367  14.400  0.0296 -1.7913 -0.4926
18053TIP3   OH275573   5.013   1.303   2.985  0.6070 -0.0488 -0.3540
18053TIP3    H175574   5.090   1.248   2.969  1.5996  1.5560 -1.3833
18053TIP3    H275575   4.985   1.279   3.073  0.5928 -2.6330 -0.9704
18054TIP3   OH275576   1.108   3.238   6.752 -0.4067 -0.5141 -0.5088
18054TIP3    H175577   1.189   3.190   6.764  1.1689  2.0105 -0.3364
18054TIP3    H275578   1.106   3.258   6.658 -1.1324 -1.0313 -0.6120
18055TIP3   OH275579   2.662   0.377   1.628 -0.0626 -0.0030  0.2184
18055TIP3    H175580   2.646   0.343   1.540  0.3584  0.6686 -0.1184
18055TIP3    H275581   2.585   0.349   1.679 -0.8052  0.5059 -0.6106
18056TIP3   OH275582   3.876   4.864   4.369  0.8906  0.5589  0.5942
18056TIP3    H175583   3.867   4.895   4.459 -1.5473 -0.4602  0.7938
18056TIP3    H275584   3.868   4.769   4.376 -1.8316  0.5827 -0.8229
18057TIP3   OH275585   0.439   6.252  15.895  0.1776 -0.0486  0.1461
18057TIP3    H175586   0.479   6.191  15.833 -0.8654  1.0273 -1.6688
18057TIP3    H275587   0.405   6.197  15.966 -1.3416 -1.6725 -1.7542
18058TIP3   OH275588   4.016   6.303  13.555 -0.6860  0.8166 -0.2851
18058TIP3    H175589   3.941   6.255  13.590 -0.0029  0.1410  0.3096
18058TIP3    H275590   4.052   6.245  13.488 -0.4549  0.9445 -0.2719
18059TIP3   OH275591   0.247   2.698   6.372  0.2966  0.4955 -0.0867
18059TIP3    H175592   0.244   2.604   6.355 -0.4780  0.3470  0.8055
18059TIP3    H275593   0.338   2.716   6.396  0.3978 -0.0639 -0.0506
18060TIP3   OH275594   5.254   5.466   1.681 -0.2808 -0.2419  0.5985
18060TIP3    H175595   5.239   5.518   1.603  1.6170  0.9166  0.9472
18060TIP3    H275596   5.336   5.418   1.663  0.0898 -0.0885  1.7869
18061TIP3   OH275597   3.527   5.387   2.165  0.2238 -0.5716  0.1438
18061TIP3    H175598   3.461   5.333   2.210  0.4142 -1.2323 -0.3649
18061TIP3    H275599   3.518   5.364   2.073  1.7309 -1.2736  0.1617
18062TIP3   OH275600   0.124   2.318   3.504  0.4648  0.2809 -0.5381
18062TIP3    H175601   0.081   2.255   3.561  2.9860 -0.7826  0.3346
18062TIP3    H275602   0.053   2.373   3.472 -1.6864 -2.1737 -0.3269
18063TIP3   OH275603   1.976   0.948   0.308  0.1287  0.3924  0.0694
18063TIP3    H175604   2.048   0.931   0.369 -0.7884 -2.5529  0.4822
18063TIP3    H275605   1.911   0.995   0.360 -0.3005 -1.3750  1.1934
18064TIP3   OH275606   0.583   6.574  13.512 -0.3332 -0.3515  0.4099
18064TIP3    H175607   0.657   6.534  13.466 -0.4265 -1.3263  1.0861
18064TIP3    H275608   0.620   6.604  13.595 -0.1015  1.6584 -0.3616
18065TIP3   OH275609   2.278   1.879   2.868 -0.5655  0.0671  0.3028
18065TIP3    H175610   2.324   1.962   2.870 -1.3231  0.5365 -0.6943
18065TIP3    H275611   2.328   1.822   2.926  0.2796  1.0495  0.5641
18066TIP3   OH275612   3.649   3.927   3.415 -0.6660 -0.0483 -0.1388
18066TIP3    H175613   3.674   3.868   3.344  0.8655 -0.9052  1.0373
18066TIP3    H275614   3.629   4.010   3.372 -0.3033 -0.6885 -1.6052
18067TIP3   OH275615   0.130   4.376   5.686 -0.1148 -0.2115  0.4360
18067TIP3    H175616   0.158   4.418   5.767 -0.9557 -1.3536  1.3445
18067TIP3    H275617   0.035   4.374   5.691 -0.1136 -2.2074  0.4462
18068TIP3   OH275618   4.259   3.236   5.114  0.1193  0.2194 -0.5414
18068TIP3    H175619   4.211   3.301   5.063  0.0529 -1.3493 -2.6501
18068TIP3    H275620   4.205   3.157   5.108 -0.4395  0.1992  3.0076
18069TIP3   OH275621   1.650   2.621   1.227  0.2896  0.7083  0.6405
18069TIP3    H175622   1.687   2.689   1.170 -0.9263  0.4397 -0.5002
18069TIP3    H275623   1.564   2.655   1.251 -0.2789 -0.3633  0.1594
18070TIP3   OH275624   4.176   4.623  13.577 -0.1168 -0.1225 -0.1325
18070TIP3    H175625   4.091   4.584  13.556 -0.5759  0.5482  0.4179
18070TIP3    H275626   4.155   4.712  13.607  0.5967 -0.5679  1.8405
18071TIP3   OH275627   0.634   1.916   5.196  0.3140  0.6119 -0.3579
18071TIP3    H175628   0.597   1.831   5.222  1.0169  0.5740  0.5678
18071TIP3    H275629   0.705   1.894   5.136  0.4287  0.5509 -0.2003
18072TIP3   OH275630   4.564   1.335   5.155  0.2875 -0.5688  0.2835
18072TIP3    H175631   4.591   1.328   5.063  1.2511 -1.2680  0.6051
18072TIP3    H275632   4.622   1.275   5.202 -1.1385 -1.3236  1.1681
18073TIP3   OH275633   2.898   5.390   5.151 -0.0575 -0.2958 -0.0595
18073TIP3    H175634   2.955   5.432   5.215 -2.1166 -0.5059  2.0531
18073TIP3    H275635   2.922   5.297   5.155  1.9296  0.0345 -1.9978
18074TIP3   OH275636   0.412   0.101  16.061 -0.6113  0.5231 -0.2330
18074TIP3    H175637   0.335   0.155  16.043  0.2526  1.1238 -2.5139
18074TIP3    H275638   0.476   0.163  16.095 -0.0093  0.7724 -1.7337
18075TIP3   OH275639   0.780   3.525   5.246 -0.6132 -0.1250 -0.0532
18075TIP3    H175640   0.686   3.543   5.254 -0.3736  1.9213 -1.1865
18075TIP3    H275641   0.788   3.480   5.162 -0.5017  0.4698 -0.3655
18076TIP3   OH275642   3.752   3.759   1.362  0.6662 -0.1558  0.0057
18076TIP3    H175643   3.696   3.805   1.426 -0.0240  0.3336 -0.9267
18076TIP3    H275644   3.840   3.769   1.397  0.2981  0.0187  0.9435
18077TIP3   OH275645   2.230   4.275   3.004  0.1026  0.3798 -0.1976
18077TIP3    H175646   2.178   4.344   3.045  0.4193  0.7580 -0.4221
18077TIP3    H275647   2.180   4.195   3.019  1.1139  0.1689  2.6564
18078TIP3   OH275648   0.767   0.364  12.832  0.7751  0.1412 -0.7753
18078TIP3    H175649   0.763   0.390  12.925 -1.7226  1.3090 -1.1266
18078TIP3    H275650   0.856   0.389  12.805  0.7364  2.2130  0.6816
18079TIP3   OH275651   4.115   4.141  16.870 -0.0588  0.2680  0.0262
18079TIP3    H175652   4.065   4.170  16.947  1.4568  2.1882  0.3751
18079TIP3    H275653   4.147   4.222  16.831  0.7357 -0.7841 -1.5988
18080TIP3   OH275654   2.429   3.560   1.057 -0.5976  0.2363  0.2232
18080TIP3    H175655   2.376   3.484   1.083 -1.4532  0.5668 -0.5032
18080TIP3    H275656   2.469   3.590   1.139 -0.9523 -0.4652  0.6652
18081TIP3   OH275657   4.438   1.342  13.126  0.1485 -0.0628 -0.0483
18081TIP3    H175658   4.433   1.282  13.052 -0.3546 -1.3788  1.0129
18081TIP3    H275659   4.347   1.365  13.145 -0.1683 -2.7827  2.4842
18082TIP3   OH275660   2.196   2.757  16.796  0.2030 -0.1794  0.6269
18082TIP3    H175661   2.167   2.725  16.881 -0.9274  1.0522  0.7375
18082TIP3    H275662   2.287   2.728  16.790  0.1364 -0.7819  1.9954
18083TIP3   OH275663   1.703   6.713   3.506  0.8122 -0.2877 -0.7212
18083TIP3    H175664   1.757   6.641   3.538  0.8948 -0.2880 -0.8619
18083TIP3    H275665   1.618   6.700   3.548  1.4128  0.7134  0.9484
18084TIP3   OH275666   5.727   2.470   4.298 -0.8766  0.0567  0.1714
18084TIP3    H175667   5.806   2.449   4.348 -1.0019  1.4185  0.9957
18084TIP3    H275668   5.655   2.435   4.351 -0.8918 -0.3827 -0.1315
18085TIP3   OH275669   1.850   4.484  10.481  0.1568 -0.2592 -0.8415
18085TIP3    H175670   1.803   4.566  10.466 -0.9741 -0.2315  2.1532
18085TIP3    H275671   1.809   4.421  10.422 -1.6998  0.4592 -0.3833
18086TIP3   OH275672   2.432   1.769   3.106 -0.2480 -0.1059 -0.6692
18086TIP3    H175673   2.478   1.702   3.156  1.8037  0.6656 -1.4027
18086TIP3    H275674   2.380   1.817   3.170  0.1636 -0.8751  0.2535
18087TIP3   OH275675   1.830   2.986  14.886 -0.4527  0.2258 -0.7961
18087TIP3    H175676   1.758   2.939  14.929 -0.1965 -1.7658 -2.4193
18087TIP3    H275677   1.907   2.962  14.937 -0.3793 -0.8896 -1.4013
18088TIP3   OH275678   0.475   4.735  11.484  0.3374 -0.6163  0.2554
18088TIP3    H175679   0.473   4.830  11.488 -1.8330 -0.5765 -0.4401
18088TIP3    H275680   0.527   4.716  11.405  1.3500 -0.0504  0.7736
18089TIP3   OH275681   2.521   4.995   0.378 -0.4545  0.1846 -0.4354
18089TIP3    H175682   2.567   4.913   0.394  0.1148  0.8440  1.5209
18089TIP3    H275683   2.543   5.018   0.287  0.6000 -1.0447 -0.5101
18090TIP3   OH275684   3.487   4.484   3.929 -0.5038  0.7254  0.6048
18090TIP3    H175685   3.445   4.464   4.013  1.1632  0.3992  1.4044
18090TIP3    H275686   3.433   4.438   3.864 -0.0934 -1.6291  1.8224
18091TIP3   OH275687   4.667   6.186  13.161  0.6357  0.0610 -0.0082
18091TIP3    H175688   4.576   6.166  13.140  0.7499  0.4222 -0.8960
18091TIP3    H275689   4.678   6.157  13.252 -0.7580  1.2742  0.5954
18092TIP3   OH275690   2.704   5.716   2.469 -0.1344  0.3221  0.1507
18092TIP3    H175691   2.762   5.789   2.491 -2.3961  3.2377 -2.5377
18092TIP3    H275692   2.717   5.702   2.375 -2.6947  0.1887 -0.2710
18093TIP3   OH275693   2.671   0.850   1.406  0.1159  0.0849 -0.2263
18093TIP3    H175694   2.685   0.872   1.498 -0.6008  0.8525 -0.2850
18093TIP3    H275695   2.621   0.768   1.408  1.3242 -0.6629  0.0304
18094TIP3   OH275696   5.572   0.694   1.148 -0.5848  0.2719 -0.3523
18094TIP3    H175697   5.625   0.773   1.139 -1.7836  1.2089  0.3588
18094TIP3    H275698   5.570   0.655   1.061 -0.3422  1.2852 -0.8185
18095TIP3   OH275699   3.844   6.504   2.446 -0.3092 -0.7526  0.5295
18095TIP3    H175700   3.837   6.569   2.376  2.6176 -3.1846 -2.3126
18095TIP3    H275701   3.834   6.420   2.403 -0.2469 -2.3832  3.4195
18096TIP3   OH275702   4.182   5.952   0.947 -0.6471  1.2444 -0.0309
18096TIP3    H175703   4.215   5.883   0.890 -0.8332  0.5347  0.7063
18096TIP3    H275704   4.110   5.992   0.898 -2.3225 -0.8524  0.5672
18097TIP3   OH275705   0.260   2.677  15.538  0.1871 -0.0995 -0.0986
18097TIP3    H175706   0.230   2.608  15.597  0.0126 -2.1070 -2.3824
18097TIP3    H275707   0.353   2.688  15.560 -0.1724  0.1452  1.3879
18098TIP3   OH275708   6.541   3.468   6.425  0.2540 -0.1516  0.4544
18098TIP3    H175709   6.596   3.470   6.504  1.2620 -1.4382 -0.1883
18098TIP3    H275710   6.558   3.383   6.386 -0.3287  0.4162 -1.1012
18099TIP3   OH275711   5.860   5.713  16.431  0.2029  0.2047 -0.5779
18099TIP3    H175712   5.924   5.712  16.360  0.7841 -0.3671 -0.0641
18099TIP3    H275713   5.829   5.623  16.435 -0.0397  0.3024 -0.2990
18100TIP3   OH275714   2.279   4.087  16.658 -0.1143 -0.3050 -0.1434
18100TIP3    H175715   2.239   4.072  16.572 -1.0969  0.3611  0.1821
18100TIP3    H275716   2.348   4.152  16.641 -0.1147 -0.3907 -0.4807
18101TIP3   OH275717   3.309   1.299  13.288 -0.2934  0.1573 -0.2636
18101TIP3    H175718   3.318   1.250  13.206 -1.9321 -0.9215  0.1516
18101TIP3    H275719   3.396   1.294  13.328  0.4373  0.3781 -1.7357
18102TIP3   OH275720   4.787   5.111   3.434  0.0541 -0.2282 -0.0085
18102TIP3    H175721   4.849   5.174   3.471 -0.3124 -0.3200  0.8034
18102TIP3    H275722   4.735   5.162   3.372 -1.2907  0.7161  1.7722
18103TIP3   OH275723   4.894   2.054   5.563 -0.4776  0.2388  0.4901
18103TIP3    H175724   4.898   1.977   5.506  2.9361  0.4884  0.1674
18103TIP3    H275725   4.909   2.020   5.651 -2.6068  0.2171  0.9025
18104TIP3   OH275726   2.023   3.252   2.236  0.0354  0.2667 -0.6412
18104TIP3    H175727   1.989   3.163   2.240 -1.9572  0.9723 -0.6212
18104TIP3    H275728   2.117   3.243   2.247 -0.0880 -1.8520 -0.9797
18105TIP3   OH275729   0.347   1.858  15.793  0.0490  0.2570  0.5917
18105TIP3    H175730   0.280   1.790  15.792 -0.8915  1.1382 -0.9457
18105TIP3    H275731   0.299   1.937  15.819  0.7341  0.6772  0.5777
18106TIP3   OH275732   3.417   2.216  14.897 -0.1264  0.0501 -0.6449
18106TIP3    H175733   3.365   2.290  14.865  1.4174  0.1490 -3.1111
18106TIP3    H275734   3.486   2.256  14.949 -0.1771  0.2163 -0.7037
18107TIP3   OH275735   4.394   2.888   3.193  0.5240  0.1130  0.6286
18107TIP3    H175736   4.423   2.942   3.267 -0.6695  1.6029  0.0567
18107TIP3    H275737   4.311   2.850   3.222 -1.0106  2.3443 -0.6187
18108TIP3   OH275738   1.371   6.570  13.533 -0.5966  0.3267  0.2492
18108TIP3    H175739   1.359   6.476  13.548 -1.0071  0.1321 -1.2049
18108TIP3    H275740   1.340   6.611  13.614 -0.2962 -0.7852  0.9491
18109TIP3   OH275741   1.701   1.012   5.895  1.0012  0.2706 -1.3706
18109TIP3    H175742   1.715   1.035   5.987  0.4042 -0.5265 -1.0678
18109TIP3    H275743   1.706   1.095   5.849  0.2156  0.8323 -0.4851
18110TIP3   OH275744   4.301   3.330  15.296 -0.8124  0.3067  0.4280
18110TIP3    H175745   4.256   3.295  15.220  1.5148  1.6048 -1.7227
18110TIP3    H275746   4.317   3.422  15.274  1.1795  0.3666  1.8416
18111TIP3   OH275747   4.706   5.895  14.153 -0.1011  0.2468  0.2456
18111TIP3    H175748   4.650   5.962  14.191 -1.3648 -1.1209  0.8622
18111TIP3    H275749   4.788   5.902  14.202  0.3741  2.3162 -0.7241
18112TIP3   OH275750   3.003   6.724  16.026  0.5029  0.4669 -0.2325
18112TIP3    H175751   2.937   6.681  15.971 -0.8063  1.5351  0.4403
18112TIP3    H275752   3.073   6.747  15.965  0.1882 -0.5247 -1.0034
18113TIP3   OH275753   6.088   5.080  13.935  0.0327 -0.1736 -0.4999
18113TIP3    H175754   6.037   5.062  14.014 -0.3780  2.8129  0.0143
18113TIP3    H275755   6.024   5.077  13.864  0.0247 -0.8558 -0.4718
18114TIP3   OH275756   6.729   6.439   0.718  0.2990  0.1426  0.4647
18114TIP3    H175757   6.642   6.479   0.726  0.1506  0.1282 -0.8268
18114TIP3    H275758   6.789   6.513   0.708  0.4392  0.1511  1.3183
18115TIP3   OH275759   3.816   0.174  16.506 -0.3409  0.1220 -0.4599
18115TIP3    H175760   3.878   0.220  16.449 -0.2342  1.8514  0.9597
18115TIP3    H275761   3.845   0.083  16.505  0.6215  0.4101 -1.8620
18116TIP3   OH275762   5.337   0.140  11.655  0.0560  0.1932  0.7404
18116TIP3    H175763   5.335   0.101  11.568 -0.2871  0.2827  0.7082
18116TIP3    H275764   5.276   0.214  11.650  0.6369  0.6851  0.8233
18117TIP3   OH275765   5.402   0.160  16.680 -0.0127  0.3275 -0.2571
18117TIP3    H175766   5.406   0.251  16.652  2.4460  0.0979 -0.8562
18117TIP3    H275767   5.429   0.161  16.771  0.4177  0.1587 -0.3807
18118TIP3   OH275768   0.897   1.860   5.832 -0.4045  0.3847  0.0093
18118TIP3    H175769   0.834   1.825   5.768 -1.4830 -0.7394  1.5936
18118TIP3    H275770   0.950   1.922   5.783 -0.7300 -0.9434 -2.1303
18119TIP3   OH275771   0.324   5.588  15.757 -0.3873 -0.1430  0.6243
18119TIP3    H175772   0.370   5.664  15.720 -2.1085  1.0567  0.8552
18119TIP3    H275773   0.392   5.543  15.808  0.4810  1.7816  1.2872
18120TIP3   OH275774   5.722   5.863   3.760 -0.0871 -0.1277  0.2546
18120TIP3    H175775   5.767   5.939   3.798 -0.7508  0.6138 -0.4399
18120TIP3    H275776   5.647   5.848   3.818 -0.0773 -0.1253  0.2679
18121TIP3   OH275777   1.675   4.100  11.962  0.4640 -0.3532 -0.2964
18121TIP3    H175778   1.623   4.021  11.951  0.2521 -0.1844 -0.5100
18121TIP3    H275779   1.750   4.088  11.903  0.9193 -0.8052  0.3584
18122TIP3   OH275780   1.235   4.191  12.975 -0.8187 -0.0322  0.6561
18122TIP3    H175781   1.303   4.256  12.996 -0.1396  0.7823 -3.3278
18122TIP3    H275782   1.155   4.227  13.013  0.2486  0.9337  2.1255
18123TIP3   OH275783   6.517   4.598   3.515 -0.0220 -0.2020  0.6151
18123TIP3    H175784   6.554   4.678   3.553 -1.0250  0.7463 -0.3367
18123TIP3    H275785   6.588   4.562   3.461  0.2950  0.2758  0.7070
18124TIP3   OH275786   4.028   0.789  17.139  0.2967 -0.4970 -0.4279
18124TIP3    H175787   4.106   0.845  17.136 -0.9987  1.4874  0.4064
18124TIP3    H275788   3.977   0.814  17.062  0.0685 -1.0956 -0.4712
18125TIP3   OH275789   5.659   0.318   2.449  0.0906 -0.1078 -0.1895
18125TIP3    H175790   5.644   0.355   2.536  2.3177  0.0419  0.1788
18125TIP3    H275791   5.746   0.349   2.424 -1.5029  2.1584 -3.6810
18126TIP3   OH275792   5.791   4.047   3.253  0.0492  0.0095 -0.6690
18126TIP3    H175793   5.826   3.973   3.204 -0.0964 -0.2805 -0.3414
18126TIP3    H275794   5.698   4.027   3.262  0.2526 -0.4407  0.5886
18127TIP3   OH275795   2.875   2.528  12.452  0.3800  0.2588 -0.5550
18127TIP3    H175796   2.847   2.493  12.536  1.9650 -1.2269 -0.5992
18127TIP3    H275797   2.923   2.607  12.474  2.6957 -1.2780  0.1917
18128TIP3   OH275798   0.419   3.891   1.540 -0.3473  0.1357 -0.5836
18128TIP3    H175799   0.331   3.914   1.569 -0.0075  1.5858 -0.6488
18128TIP3    H275800   0.458   3.974   1.511  0.9621 -0.5147 -0.7744
18129TIP3   OH275801   2.700   1.442  16.512 -0.4303 -0.1295 -0.2242
18129TIP3    H175802   2.789   1.430  16.547 -0.8415 -1.8281  0.3558
18129TIP3    H275803   2.712   1.491  16.431  0.6985  2.7787  1.5524
18130TIP3   OH275804   0.829   2.435   2.037  0.1479  0.1448  0.2094
18130TIP3    H175805   0.907   2.434   1.981  0.5387 -0.1763  0.7546
18130TIP3    H275806   0.776   2.363   2.004  0.5377 -0.2674  0.4708
18131TIP3   OH275807   4.702   2.535  14.724  0.1794  0.1987 -0.2783
18131TIP3    H175808   4.618   2.500  14.694  0.0479  0.0367  0.2776
18131TIP3    H275809   4.748   2.460  14.760  0.0591  0.5135  0.5486
18132TIP3   OH275810   1.522   2.734   6.103  0.6118  0.2898  0.1339
18132TIP3    H175811   1.520   2.756   6.197  2.1446  1.0954  0.0102
18132TIP3    H275812   1.547   2.642   6.101  0.2665  0.1792  0.5069
18133TIP3   OH275813   2.160   4.668   3.717 -0.5611 -0.0396  0.5908
18133TIP3    H175814   2.104   4.667   3.795 -1.8842 -1.4767 -0.3022
18133TIP3    H275815   2.245   4.699   3.749  0.3997 -4.7568  3.6913
18134TIP3   OH275816   0.139   3.894   6.270  0.1161  0.1220 -0.4504
18134TIP3    H175817   0.093   3.962   6.219 -0.0265  2.6334  2.6786
18134TIP3    H275818   0.232   3.911   6.255  0.0884 -0.8014 -1.7801
18135TIP3   OH275819   5.574   6.503  13.590 -0.2939 -0.1447  0.5209
18135TIP3    H175820   5.546   6.460  13.671  0.4154 -0.3866  0.6431
18135TIP3    H275821   5.574   6.596  13.611  0.9357 -0.2679  1.1429
18136TIP3   OH275822   1.062   4.154   5.123 -0.3427  0.3596 -0.0122
18136TIP3    H175823   0.988   4.096   5.138  1.2085 -1.5468  0.6594
18136TIP3    H275824   1.084   4.189   5.209 -0.5594  1.0940 -0.2425
18137TIP3   OH275825   4.660   6.485  14.922 -0.3630 -0.0770  0.3335
18137TIP3    H175826   4.605   6.509  14.997  0.1492 -0.0167  0.6928
18137TIP3    H275827   4.730   6.550  14.921  0.3279 -0.7949  0.5551
18138TIP3   OH275828   5.792   3.168  13.105 -0.1186 -0.2626  0.3684
18138TIP3    H175829   5.770   3.244  13.050  0.7819 -0.4360 -0.2468
18138TIP3    H275830   5.707   3.139  13.139 -0.5433  0.6823  0.1729
18139TIP3   OH275831   5.605   0.950   4.680 -0.0576  0.2028  0.4173
18139TIP3    H175832   5.601   1.044   4.664  0.7004  0.1239 -0.3017
18139TIP3    H275833   5.666   0.939   4.752  1.7342  0.1266 -1.0459
18140TIP3   OH275834   2.903   1.697  11.549  0.4124 -0.1936 -0.0172
18140TIP3    H175835   2.824   1.713  11.601  0.5943 -0.2271  0.2685
18140TIP3    H275836   2.908   1.772  11.489  0.2810 -0.0868  0.1053
18141TIP3   OH275837   6.317   0.647   0.546 -0.5596  0.4853 -0.3117
18141TIP3    H175838   6.289   0.589   0.476 -0.2535  2.3357 -2.0469
18141TIP3    H275839   6.358   0.589   0.610 -0.4653 -1.2282 -1.8500
18142TIP3   OH275840   6.380   0.513   5.345  0.0227 -0.5319  0.3752
18142TIP3    H175841   6.363   0.607   5.345  0.3463 -0.4572  1.5058
18142TIP3    H275842   6.293   0.474   5.332 -0.1441 -0.0882  0.1071
18143TIP3   OH275843   2.170   3.512  14.339  0.0020  0.3610 -0.3147
18143TIP3    H175844   2.218   3.525  14.257  1.6135  1.1120  0.6950
18143TIP3    H275845   2.137   3.599  14.362 -0.3181  0.1845 -0.1051
18144TIP3   OH275846   3.674   2.424   5.399  0.4088  1.1056 -0.4785
18144TIP3    H175847   3.624   2.476   5.462 -1.2326 -3.3082  2.2688
18144TIP3    H275848   3.608   2.373   5.352  1.9848 -0.2950 -1.2883
18145TIP3   OH275849   6.039   5.830  10.695 -1.1217 -0.1283 -0.5260
18145TIP3    H175850   5.975   5.807  10.628 -1.2205  1.4287 -1.0029
18145TIP3    H275851   6.118   5.782  10.671 -1.7639 -1.1864 -0.5721
18146TIP3   OH275852   0.499   1.963  14.187  0.3048  0.1854  0.2241
18146TIP3    H175853   0.483   1.875  14.153 -0.5944  0.0941  0.8485
18146TIP3    H275854   0.463   2.022  14.120  0.6039  0.0641 -0.0401
18147TIP3   OH275855   6.424   4.561  13.152 -0.8819  0.0655  0.2516
18147TIP3    H175856   6.485   4.635  13.156 -0.4245 -0.3107  0.1757
18147TIP3    H275857   6.392   4.552  13.242 -0.9177  0.3377  0.2671
18148TIP3   OH275858   1.882   5.417  11.641  0.2455 -0.1070 -0.1720
18148TIP3    H175859   1.948   5.348  11.644  1.1204  0.7447  1.1408
18148TIP3    H275860   1.920   5.484  11.584 -1.4265 -1.4213 -3.0872
18149TIP3   OH275861   1.236   1.173   4.099  0.0804  0.0404 -0.2831
18149TIP3    H175862   1.191   1.092   4.123  0.4372  0.0870  0.5687
18149TIP3    H275863   1.171   1.223   4.049 -0.2546 -0.6129 -0.5039
18150TIP3   OH275864   4.864   4.100  11.709 -0.9667 -0.1614 -0.0215
18150TIP3    H175865   4.817   4.029  11.754  1.1084 -1.4381  0.2474
18150TIP3    H275866   4.914   4.056  11.641  1.7640  0.7542  1.2620
18151TIP3   OH275867   0.126   1.772  17.062  0.0609 -0.0602 -0.1281
18151TIP3    H175868   0.067   1.827  17.010 -1.9072 -2.3934 -0.5538
18151TIP3    H275869   0.194   1.746  17.001  0.2360  0.7635 -0.2957
18152TIP3   OH275870   4.531   2.268  15.355 -0.2402  0.0071 -0.0458
18152TIP3    H175871   4.543   2.253  15.449 -1.0335  1.1554  0.2545
18152TIP3    H275872   4.477   2.195  15.326  0.7283 -0.8278  0.2049
18153TIP3   OH275873   0.654   1.167   2.383  0.4082  0.0353  0.5855
18153TIP3    H175874   0.739   1.163   2.339  0.1492  0.8233 -0.0054
18153TIP3    H275875   0.631   1.260   2.384 -0.1597 -0.1003  1.3048
18154TIP3   OH275876   1.468   5.678   3.684  0.0533 -0.8039 -0.5147
18154TIP3    H175877   1.541   5.734   3.709  0.1366 -1.8300  1.8328
18154TIP3    H275878   1.509   5.595   3.660 -0.1404 -0.2672 -3.0012
18155TIP3   OH275879   6.731   0.329  15.732 -0.1515  0.1973 -0.0897
18155TIP3    H175880   6.826   0.336  15.719 -0.0745 -1.4664 -0.6261
18155TIP3    H275881   6.703   0.419  15.747  1.5203  0.7198  0.1609
18156TIP3   OH275882   6.231   5.286  12.832 -0.2689 -0.3332  0.0431
18156TIP3    H175883   6.189   5.352  12.777 -0.7665 -0.9376 -0.3118
18156TIP3    H275884   6.178   5.208  12.821  0.5198 -0.9043  0.1740
18157TIP3   OH275885   5.355   1.346   6.064 -0.3398 -0.0416  0.4395
18157TIP3    H175886   5.269   1.355   6.024  0.6759  2.4007 -1.4569
18157TIP3    H275887   5.390   1.264   6.030 -0.3814  0.9120 -2.0759
18158TIP3   OH275888   1.658   5.276  11.520  0.1419  0.2510  0.1325
18158TIP3    H175889   1.735   5.328  11.546  0.0330  0.4298  0.0955
18158TIP3    H275890   1.695   5.193  11.490  0.3940  0.6837 -0.7931
18159TIP3   OH275891   0.583   3.415  14.539  0.4678 -0.0150 -0.1104
18159TIP3    H175892   0.541   3.500  14.542  1.1664  0.3369  3.0796
18159TIP3    H275893   0.515   3.356  14.506 -0.6268  1.4439 -0.5723
18160TIP3   OH275894   4.845   3.767   2.385 -0.1040  0.3112  0.1090
18160TIP3    H175895   4.877   3.678   2.371  2.4646  1.1438  0.0832
18160TIP3    H275896   4.781   3.759   2.455  0.6969 -1.4649  0.7045
18161TIP3   OH275897   6.719   3.288  15.856 -0.2005 -0.0822  0.4986
18161TIP3    H175898   6.631   3.273  15.820 -0.2937  0.6420  0.4033
18161TIP3    H275899   6.706   3.284  15.951  0.2182 -2.9489  0.5116
18162TIP3   OH275900   6.195   3.211  14.717  0.6094  0.0898  0.9364
18162TIP3    H175901   6.212   3.133  14.664  0.7148  1.5611 -1.3487
18162TIP3    H275902   6.100   3.225  14.710  0.5414 -0.0044  1.6065
18163TIP3   OH275903   6.638   1.875   6.160 -0.7654  0.1365  0.1456
18163TIP3    H175904   6.544   1.861   6.167 -0.9071  1.2149  0.6152
18163TIP3    H275905   6.653   1.896   6.068 -1.1372  0.9732  0.2740
18164TIP3   OH275906   5.528   4.511  15.297 -0.0679  0.1885  0.3157
18164TIP3    H175907   5.516   4.598  15.259  2.9517  1.0179  0.9728
18164TIP3    H275908   5.520   4.452  15.223  3.4458  1.5830 -1.4447
18165TIP3   OH275909   4.536   3.871  13.125 -0.1818 -0.2870 -0.7115
18165TIP3    H175910   4.536   3.958  13.166 -0.6217 -0.3434 -0.5905
18165TIP3    H275911   4.452   3.833  13.149  0.3748 -1.1071 -0.0055
18166TIP3   OH275912   1.896   0.774   1.870  0.1148 -0.4915 -0.0413
18166TIP3    H175913   1.882   0.865   1.843  1.1155 -0.6006 -1.0219
18166TIP3    H275914   1.810   0.742   1.895 -0.7205 -0.0486 -2.1571
18167TIP3   OH275915   4.245   6.692   1.706 -0.5343 -0.3129 -0.7733
18167TIP3    H175916   4.334   6.657   1.704  0.6599  1.9151  3.1730
18167TIP3    H275917   4.251   6.777   1.663 -0.6553 -0.0026 -0.1827
18168TIP3   OH275918   3.344   2.619   5.521 -0.4358 -0.1393 -0.4100
18168TIP3    H175919   3.396   2.552   5.566  0.8775  0.7472 -0.5212
18168TIP3    H275920   3.381   2.621   5.432 -0.8431  0.3340 -0.5698
18169TIP3   OH275921   5.983   1.186   2.218  0.0581 -0.4719  0.6452
18169TIP3    H175922   6.051   1.193   2.284  0.3709 -2.1535  0.5552
18169TIP3    H275923   5.946   1.274   2.212  0.7574 -0.0298  2.2462
18170TIP3   OH275924   3.540   1.293  16.944  0.4960 -0.0028  0.6128
18170TIP3    H175925   3.626   1.327  16.967  1.1670  0.9022 -2.6075
18170TIP3    H275926   3.481   1.327  17.011  2.3144  1.2789  1.6351
18171TIP3   OH275927   4.899   5.482   3.701  0.0608  0.0565  0.1127
18171TIP3    H175928   4.945   5.410   3.659 -0.4420 -0.0832 -0.2158
18171TIP3    H275929   4.874   5.540   3.629 -1.4150 -0.5314  0.1102
18172TIP3   OH275930   5.275   5.168  15.708 -0.3019 -0.4076  0.2937
18172TIP3    H175931   5.329   5.107  15.656 -0.9144 -1.4241  0.8205
18172TIP3    H275932   5.284   5.252  15.663  1.5023 -0.5975  0.2041
18173TIP3   OH275933   6.725   3.132   2.152 -0.1582  0.2061 -0.3742
18173TIP3    H175934   6.775   3.090   2.222 -1.7849  0.8381  1.2482
18173TIP3    H275935   6.791   3.173   2.096  1.1735  0.3983  1.2603
18174TIP3   OH275936   1.413   4.489  12.260 -0.1287 -0.0326 -0.0743
18174TIP3    H175937   1.441   4.401  12.236 -0.8345 -0.1557 -0.4769
18174TIP3    H275938   1.394   4.484  12.354 -0.6113 -0.4371 -0.1886
18175TIP3   OH275939   0.785   6.734  17.254 -0.2306 -0.2905 -0.4381
18175TIP3    H175940   0.751   6.693  17.175 -0.3435  3.2685 -2.4203
18175TIP3    H275941   0.719   6.799  17.278  0.9208  0.3496  1.2127
18176TIP3   OH275942   2.777   4.346  12.516 -0.0227  0.5303 -0.6216
18176TIP3    H175943   2.842   4.277  12.528 -0.0922  0.8107  2.1138
18176TIP3    H275944   2.822   4.415  12.468  0.8228 -0.3851 -1.1652
18177TIP3   OH275945   4.783   6.780  15.344  0.3829  0.0256 -0.2105
18177TIP3    H175946   4.766   6.841  15.416 -0.8520  0.1752 -0.5904
18177TIP3    H275947   4.867   6.809  15.307  0.4788  0.6447  0.4704
18178TIP3   OH275948   5.440   1.117  10.975  0.1105  0.0842  0.1398
18178TIP3    H175949   5.468   1.121  11.067 -0.2794 -0.7411  0.3031
18178TIP3    H275950   5.520   1.093  10.927  0.0021 -0.9544  0.4489
18179TIP3   OH275951   6.340   0.367   6.174  0.5606 -0.6470 -0.1019
18179TIP3    H175952   6.365   0.288   6.222 -0.6378 -1.2079 -0.3706
18179TIP3    H275953   6.245   0.375   6.187 -0.1982 -1.8059 -3.7022
18180TIP3   OH275954   3.544   4.181  15.524  0.1001  0.1249 -0.2786
18180TIP3    H175955   3.582   4.093  15.526  0.8329  0.3839 -1.5898
18180TIP3    H275956   3.450   4.166  15.518 -0.1824 -0.5303  3.4595
18181TIP3   OH275957   6.019   2.972   3.701 -0.8641  0.1157 -0.2726
18181TIP3    H175958   5.995   2.996   3.791 -0.1546  1.9980 -0.5451
18181TIP3    H275959   5.937   2.939   3.663 -0.7394 -2.8006  1.6224
18182TIP3   OH275960   2.001   5.471   0.424 -0.0490 -0.0208  0.2235
18182TIP3    H175961   2.085   5.506   0.453  0.3185 -0.7075  0.0165
18182TIP3    H275962   2.019   5.380   0.402 -0.8950 -0.2303  0.3564
18183TIP3   OH275963   2.272   3.354  11.259  0.0185 -0.1058 -0.2809
18183TIP3    H175964   2.281   3.261  11.279 -1.1743 -0.7108 -2.3319
18183TIP3    H275965   2.186   3.362  11.218 -1.3756  2.4808  2.7412
18184TIP3   OH275966   4.362   5.012  14.895 -0.3912  0.1677  0.2661
18184TIP3    H175967   4.362   4.935  14.839  1.4738 -0.4702  1.0578
18184TIP3    H275968   4.333   5.083  14.837 -2.2415 -1.0848 -0.4478
18185TIP3   OH275969   4.398   0.483  13.531  0.1953  0.7237  0.1283
18185TIP3    H175970   4.366   0.443  13.450  1.8659  0.5029 -0.4676
18185TIP3    H275971   4.390   0.413  13.597  1.7043 -0.1728 -0.5736
18186TIP3   OH275972   3.578   4.177  12.620 -0.1519 -0.0778  0.1497
18186TIP3    H175973   3.631   4.112  12.575  0.3701 -0.3476  1.1258
18186TIP3    H275974   3.490   4.138  12.624 -0.4046  0.2892 -1.2989
18187TIP3   OH275975   1.294   6.268   4.511  0.1095  0.1237  0.3193
18187TIP3    H175976   1.255   6.249   4.426  0.6759 -1.3825  0.3619
18187TIP3    H275977   1.329   6.357   4.502 -1.5619  0.7595 -0.3385
18188TIP3   OH275978   3.064   0.296  13.592  0.1474 -0.2561  0.1191
18188TIP3    H175979   3.121   0.370  13.575  0.6879 -0.6025  0.4068
18188TIP3    H275980   2.984   0.315  13.542 -0.2142  1.1141  1.1543
18189TIP3   OH275981   1.171   6.287   0.647  0.6199 -0.0249  0.1365
18189TIP3    H175982   1.145   6.207   0.602 -0.9832  0.3106  0.4094
18189TIP3    H275983   1.178   6.352   0.577  0.2230 -0.0064  0.1102
18190TIP3   OH275984   2.294   0.951   0.285 -0.1861  0.6771  0.2369
18190TIP3    H175985   2.272   0.973   0.375 -1.0238  1.9447 -0.2408
18190TIP3    H275986   2.326   1.034   0.248 -1.3213  0.5688 -1.0453
18191TIP3   OH275987   6.290   2.524  14.672 -0.0497  0.2296 -0.0580
18191TIP3    H175988   6.373   2.573  14.678 -0.6006  1.0728  1.2059
18191TIP3    H275989   6.223   2.590  14.689 -0.8840 -0.7849  0.6703
18192TIP3   OH275990   0.624   6.621   4.752 -0.3873  0.3488 -0.6731
18192TIP3    H175991   0.561   6.563   4.708  0.9404 -0.0608 -2.1556
18192TIP3    H275992   0.697   6.563   4.775  0.3667  1.1739 -0.9330
18193TIP3   OH275993   2.944   5.833  11.235  0.0489 -0.0437  0.6148
18193TIP3    H175994   2.907   5.915  11.267 -0.6404  1.2614 -3.0708
18193TIP3    H275995   2.987   5.856  11.153  1.3267 -3.1231  0.2759
18194TIP3   OH275996   4.524   4.999  11.592 -0.0809  0.1072 -0.3970
18194TIP3    H175997   4.485   4.915  11.615 -0.9176  0.5268 -0.2443
18194TIP3    H275998   4.563   4.984  11.506 -0.1739 -0.4499 -0.3498
18195TIP3   OH275999   4.931   4.747  12.868  0.2571  0.2129  0.1565
18195TIP3    H176000   4.871   4.690  12.916 -0.4622 -0.0488 -1.0190
18195TIP3    H276001   5.000   4.687  12.839  0.7218  0.3816  0.8773
18196TIP3   OH276002   0.912   6.012   5.352 -0.4234 -0.2931 -0.1116
18196TIP3    H176003   0.896   6.034   5.260 -1.9977 -1.9205 -0.2711
18196TIP3    H276004   0.948   5.924   5.350 -1.3381 -0.7084  0.8611
18197TIP3   OH276005   5.208   5.145   1.467  0.1925  0.0806 -0.6451
18197TIP3    H176006   5.201   5.150   1.372  1.0715 -0.7524 -0.7721
18197TIP3    H276007   5.172   5.059   1.490  0.7212 -0.0622 -0.3187
18198TIP3   OH276008   0.130   0.840  14.691 -0.2793  0.7843  0.6371
18198TIP3    H176009   0.165   0.872  14.774  2.4303  0.5797 -0.3199
18198TIP3    H276010   0.187   0.767  14.668 -0.0465  1.6762 -2.0133
18199TIP3   OH276011   6.624   5.867   3.062  0.2114 -0.1261  0.0825
18199TIP3    H176012   6.532   5.877   3.039  0.2444  0.2960  0.1162
18199TIP3    H276013   6.670   5.866   2.977 -0.0276 -2.9855 -0.1065
18200TIP3   OH276014   2.474   3.069  13.243 -0.3147 -0.1306  0.0006
18200TIP3    H176015   2.399   3.119  13.275 -0.1573  0.2367 -0.1984
18200TIP3    H276016   2.526   3.133  13.193 -0.4582 -0.6613 -0.8281
18201TIP3   OH276017   1.253   0.794   2.995 -0.0733  0.2841  0.1384
18201TIP3    H176018   1.307   0.734   3.046  1.1599 -0.1088 -1.5440
18201TIP3    H276019   1.228   0.745   2.917 -0.2865  1.4485 -0.5597
18202TIP3   OH276020   4.116   6.058   5.205 -0.6565 -0.3806 -0.4739
18202TIP3    H176021   4.031   6.014   5.197 -1.0385  0.6283 -2.4163
18202TIP3    H276022   4.094   6.149   5.224  0.0214 -0.2081 -0.5098
18203TIP3   OH276023   4.666   1.365  17.067 -0.0339 -0.1223 -0.0108
18203TIP3    H176024   4.592   1.352  17.126 -1.3917  1.6112 -1.2304
18203TIP3    H276025   4.676   1.281  17.022 -0.8442 -0.5815  0.6430
18204TIP3   OH276026   2.835   5.112  16.501 -0.1655  0.1933  0.4928
18204TIP3    H176027   2.879   5.131  16.418  0.4462 -2.0638  0.2237
18204TIP3    H276028   2.869   5.176  16.563  0.8347  0.6936 -0.5541
18205TIP3   OH276029   1.225   3.957   3.756  0.0134  0.2401 -0.5916
18205TIP3    H176030   1.222   3.865   3.781 -1.1869  0.7007  1.1416
18205TIP3    H276031   1.260   4.002   3.833  0.6850  1.2411 -1.4521
18206TIP3   OH276032   1.853   2.548   5.625 -0.4763 -0.2336 -0.5057
18206TIP3    H176033   1.866   2.628   5.674 -0.1886 -0.4058 -0.2971
18206TIP3    H276034   1.929   2.494   5.646 -0.2509 -0.2331 -1.2907
18207TIP3   OH276035   0.999   5.644   1.144 -0.0917 -0.2883  0.0008
18207TIP3    H176036   1.022   5.552   1.133  0.4129 -0.2336  0.5649
18207TIP3    H276037   0.934   5.645   1.215  0.9624 -0.0809  0.9891
18208TIP3   OH276038   1.173   5.380  14.081 -0.0094  0.0183 -0.1005
18208TIP3    H176039   1.212   5.386  14.168 -2.0902  0.0755  0.8822
18208TIP3    H276040   1.242   5.343  14.026  0.7428 -1.9712  2.0269
18209TIP3   OH276041   1.910   0.593   2.210  0.5982  0.2009  0.1254
18209TIP3    H176042   1.891   0.499   2.213 -0.3022  0.4001  1.3908
18209TIP3    H276043   1.848   0.632   2.271  0.4750  1.7181 -0.9210
18210TIP3   OH276044   3.993   1.345   0.565 -0.1204  0.0159 -0.4737
18210TIP3    H176045   4.089   1.340   0.565  0.1076  2.9232 -0.4153
18210TIP3    H276046   3.965   1.259   0.533  2.5044 -0.7461 -0.9850
18211TIP3   OH276047   4.260   4.554  11.654 -0.1730  0.0067 -0.4445
18211TIP3    H176048   4.193   4.534  11.588  1.5289 -0.8373 -2.0074
18211TIP3    H276049   4.294   4.469  11.681 -1.0959  0.2981  1.9154
18212TIP3   OH276050   3.322   6.760  12.030  0.3864 -0.3958 -0.0922
18212TIP3    H176051   3.405   6.754  11.982  0.7908 -0.7327  0.6249
18212TIP3    H276052   3.296   6.669  12.043  0.5784 -0.3263  0.8217
18213TIP3   OH276053   3.003   2.037  14.052 -0.0017 -0.0205 -0.4167
18213TIP3    H176054   2.921   2.068  14.014  0.5361  1.1866 -0.6377
18213TIP3    H276055   3.013   2.088  14.133  1.2015  0.8911 -1.0941
18214TIP3   OH276056   0.036   2.829   3.075  0.5717  0.7082  0.1141
18214TIP3    H176057  -0.020   2.802   3.148 -0.7088  1.5021 -0.5317
18214TIP3    H276058   0.025   2.760   3.010  0.2890  0.8842 -0.0290
18215TIP3   OH276059   5.441   5.960  14.467 -0.4467  0.7269  0.3254
18215TIP3    H176060   5.371   5.912  14.424  0.0698  0.9747 -0.8311
18215TIP3    H276061   5.505   5.894  14.492 -0.7540  0.5789  0.7140
18216TIP3   OH276062   1.887   0.693  16.971 -0.3611 -0.1946 -0.5094
18216TIP3    H176063   1.839   0.676  17.052  1.0710  2.1124  0.9580
18216TIP3    H276064   1.947   0.619  16.962 -1.7490 -1.3694 -0.5051
18217TIP3   OH276065   5.349   1.751  12.775  0.1829 -0.1432 -0.3526
18217TIP3    H176066   5.378   1.713  12.858  0.2178  1.3233  0.3449
18217TIP3    H276067   5.426   1.799  12.743 -0.1042  0.0395 -0.7794
18218TIP3   OH276068   1.352   1.804  12.279 -0.0800  0.2976  0.1094
18218TIP3    H176069   1.263   1.781  12.254 -0.1971 -0.7170  1.3304
18218TIP3    H276070   1.407   1.760  12.215 -0.4168 -0.6917  0.4844
18219TIP3   OH276071   4.897   4.762  14.448 -0.2700 -0.2063  0.1367
18219TIP3    H176072   4.958   4.832  14.424  0.2399 -0.7465 -0.2121
18219TIP3    H276073   4.892   4.707  14.369 -1.5133  0.0294  0.0350
18220TIP3   OH276074   0.498   5.753   4.962  0.9907  0.0600  0.2534
18220TIP3    H176075   0.517   5.694   4.889 -1.2480  1.3770 -1.5253
18220TIP3    H276076   0.508   5.698   5.040  1.0002 -2.0978 -1.1733
18221TIP3   OH276077   1.820   6.162  16.644  0.1667  0.2522  0.5066
18221TIP3    H176078   1.753   6.147  16.577 -0.2253  0.3550  0.8673
18221TIP3    H276079   1.847   6.253  16.631  1.7219 -0.3650 -0.9489
18222TIP3   OH276080   3.890   6.318  15.337  0.3998  0.1852  0.4303
18222TIP3    H176081   3.914   6.227  15.357  0.9430  0.0377 -0.7791
18222TIP3    H276082   3.873   6.317  15.242 -2.3707  0.7405  0.8519
18223TIP3   OH276083   4.522   4.977  16.021  0.7649  0.0781  0.9431
18223TIP3    H176084   4.483   5.006  16.103  2.0800  0.2180  1.5431
18223TIP3    H276085   4.448   4.945  15.969 -0.0763 -0.1022  2.2132
18224TIP3   OH276086   5.377   4.490  14.722  0.0975 -0.4396  0.4270
18224TIP3    H176087   5.421   4.457  14.643  0.5754 -1.6384  1.1665
18224TIP3    H276088   5.286   4.503  14.695 -0.2183 -2.7867  0.1618
18225TIP3   OH276089   3.643   4.399  12.385  0.0740  0.0689 -0.1661
18225TIP3    H176090   3.623   4.317  12.430 -0.4799  0.2916  0.0052
18225TIP3    H276091   3.734   4.389  12.357  0.8062  0.3371  1.9384
18226TIP3   OH276092   5.271   1.743   1.269 -0.0485  0.0038  0.3683
18226TIP3    H176093   5.271   1.698   1.353 -0.1150  1.0028  0.9087
18226TIP3    H276094   5.344   1.703   1.221  0.1946 -0.3411  1.0153
18227TIP3   OH276095   0.373   6.211  11.541 -0.1625  0.6316 -0.3441
18227TIP3    H176096   0.392   6.118  11.536  0.6563  0.8254 -1.2016
18227TIP3    H276097   0.346   6.226  11.631  0.5679 -0.2805  0.0368
18228TIP3   OH276098   5.873   1.019  13.085  0.6195  0.5142  0.2106
18228TIP3    H176099   5.917   1.062  13.158 -0.0617  1.3762  0.1366
18228TIP3    H276100   5.784   1.055  13.087  0.3400 -0.1157 -0.5090
18229TIP3   OH276101   0.267   5.523   1.019  0.4484 -0.0167 -0.1527
18229TIP3    H176102   0.220   5.510   1.102  1.0507 -0.7900  0.0745
18229TIP3    H276103   0.360   5.524   1.044  0.6063  0.5032 -0.7267
18230TIP3   OH276104   1.300   4.320  16.498 -0.3917  0.1720  0.1420
18230TIP3    H176105   1.320   4.322  16.404 -0.4932 -3.1013 -0.0389
18230TIP3    H276106   1.205   4.328  16.502 -0.6730 -2.1707 -0.3048
18231TIP3   OH276107   5.002   2.554  12.832  0.0440 -0.2959  0.3083
18231TIP3    H176108   4.956   2.474  12.807 -0.5854 -0.1858  1.0594
18231TIP3    H276109   5.087   2.524  12.862 -0.4564 -0.7766  1.2965
18232TIP3   OH276110   4.284   2.873  15.232  0.2174  0.1728 -0.1714
18232TIP3    H176111   4.375   2.901  15.240  0.6890 -1.2332 -0.4644
18232TIP3    H276112   4.245   2.937  15.172  1.3930 -0.0845 -1.2489
18233TIP3   OH276113   6.249   1.783   2.547  0.1291  0.2925 -0.1346
18233TIP3    H176114   6.171   1.756   2.597 -0.4540 -0.0877 -1.2192
18233TIP3    H276115   6.314   1.805   2.614 -0.6984 -0.0152  0.7909
18234TIP3   OH276116   3.411   1.414  17.160 -0.2185  0.6900  0.0642
18234TIP3    H176117   3.464   1.459  17.227  0.1644  0.6669 -0.2209
18234TIP3    H276118   3.339   1.375  17.209  0.0861  0.6343  0.4733
18235TIP3   OH276119   2.539   2.980  14.532 -0.3282  0.5900 -0.0098
18235TIP3    H176120   2.615   2.984  14.474 -0.5147 -0.0620 -0.3155
18235TIP3    H276121   2.547   3.057  14.588  0.9719  0.1092  0.4926
18236TIP3   OH276122   2.836   4.408  12.967  0.4274  0.0702  0.1312
18236TIP3    H176123   2.845   4.444  13.055  2.1987  0.0272  0.0154
18236TIP3    H276124   2.927   4.396  12.937 -0.1323 -1.2094 -1.1648
18237TIP3   OH276125   4.380   1.302   1.152 -0.0381  0.8656 -0.3566
18237TIP3    H176126   4.395   1.286   1.058  0.2385 -2.6644  0.1341
18237TIP3    H276127   4.294   1.262   1.169  0.8573 -0.5359  1.2143
18238TIP3   OH276128   0.530   1.767   1.013 -0.2262 -0.2804 -0.0492
18238TIP3    H176129   0.539   1.742   1.105  0.8483  1.0849  0.2486
18238TIP3    H276130   0.620   1.783   0.984 -0.6931  1.4649 -0.6800
18239TIP3   OH276131   4.789   5.415  14.944  0.4158  0.2205  0.2008
18239TIP3    H176132   4.806   5.341  14.886 -1.5780  0.0939 -0.2964
18239TIP3    H276133   4.705   5.451  14.914  1.2155  2.5836  0.5335
18240TIP3   OH276134   5.174   0.326   5.369 -0.1999  0.2265 -0.6219
18240TIP3    H176135   5.215   0.360   5.289  2.1423  1.3480  0.9582
18240TIP3    H276136   5.213   0.376   5.440 -0.0664 -2.6118  1.5015
18241TIP3   OH276137   2.556   0.268   5.192 -0.0564 -0.4889 -0.2853
18241TIP3    H176138   2.568   0.255   5.286 -0.6179  3.6821  0.5519
18241TIP3    H276139   2.461   0.268   5.180 -0.0020 -0.2658 -0.7234
18242TIP3   OH276140   1.062   4.829  11.532  0.6978  0.0976  0.6237
18242TIP3    H176141   1.144   4.781  11.542 -0.0137 -0.9421  1.8590
18242TIP3    H276142   1.039   4.855  11.622 -0.7943 -0.4773  0.4427
18243TIP3   OH276143   2.140   1.264  14.042  0.4532  0.6188  0.1027
18243TIP3    H176144   2.082   1.330  14.003 -0.6955 -0.8893 -0.9020
18243TIP3    H276145   2.163   1.207  13.969  0.2090 -0.9225  1.1706
18244TIP3   OH276146   6.021   2.517   2.367 -0.3676 -0.4249  0.2671
18244TIP3    H176147   6.050   2.530   2.276 -1.8145 -0.7859 -0.2804
18244TIP3    H276148   5.988   2.427   2.368 -0.2699 -0.4533  1.1863
18245TIP3   OH276149   4.157   1.067  15.267 -0.7341  0.6308 -0.2676
18245TIP3    H176150   4.224   1.040  15.203 -0.5441  1.4978 -0.4369
18245TIP3    H276151   4.074   1.048  15.223 -0.6283  2.5028 -1.3611
18246TIP3   OH276152   6.114   0.135  14.354 -0.3427 -0.0230 -0.0168
18246TIP3    H176153   6.139   0.044  14.338  0.3776  0.1496  0.1055
18246TIP3    H276154   6.019   0.135  14.343 -0.2789 -0.6476 -0.6808
18247TIP3   OH276155   4.677   5.519   4.589  0.2838 -0.0616 -0.1169
18247TIP3    H176156   4.631   5.550   4.667 -1.0474 -2.1540  0.0026
18247TIP3    H276157   4.767   5.505   4.618 -0.2572 -1.0977  1.1387
18248TIP3   OH276158   5.500   3.901  13.743 -0.1288  0.4470  0.0520
18248TIP3    H176159   5.464   3.868  13.825 -1.2705 -0.9147 -0.9573
18248TIP3    H276160   5.578   3.951  13.769  0.6196 -1.4952  1.8232
18249TIP3   OH276161   0.041   4.179   4.336 -0.4183  0.2071  0.1122
18249TIP3    H176162  -0.020   4.198   4.407 -0.1952 -0.7242  0.5740
18249TIP3    H276163   0.004   4.223   4.260 -1.3731  0.1144  0.5073
18250TIP3   OH276164   3.818   1.314  14.590 -0.2074  0.1274  0.1449
18250TIP3    H176165   3.844   1.393  14.638  0.2436  0.0709 -0.0017
18250TIP3    H276166   3.767   1.347  14.516 -1.0864  0.2012  0.7758
18251TIP3   OH276167   3.009   2.884  16.324 -0.2066 -0.2213 -0.2731
18251TIP3    H176168   2.986   2.967  16.283  0.0316 -0.1801 -0.3245
18251TIP3    H276169   2.930   2.832  16.318 -0.3322 -0.0277 -0.3177
18252TIP3   OH276170   4.194   1.985   1.702 -0.1948  0.2073  0.7555
18252TIP3    H176171   4.283   2.022   1.698  0.0524 -0.3973  0.4398
18252TIP3    H276172   4.136   2.061   1.697  0.3039  0.5736  0.3712
18253TIP3   OH276173   5.937   4.743  16.156  0.1273  0.4487  0.3620
18253TIP3    H176174   5.883   4.711  16.228 -0.1188 -1.2316 -0.5175
18253TIP3    H276175   6.003   4.675  16.143  0.9669  1.3327 -0.1719
18254TIP3   OH276176   2.318   6.167   5.541 -0.0838  0.4836 -0.2367
18254TIP3    H176177   2.388   6.199   5.483 -1.0220  2.4794 -0.3418
18254TIP3    H276178   2.340   6.075   5.555  2.4773  0.9684 -0.4127
18255TIP3   OH276179   3.506   1.391  13.451  0.3664  0.3767  0.2574
18255TIP3    H176180   3.482   1.456  13.517  0.6613 -0.7552  1.5238
18255TIP3    H276181   3.582   1.347  13.488 -0.4464 -1.3873 -0.0541
18256TIP3   OH276182   3.875   2.884  11.681  0.0024  0.1551 -0.3624
18256TIP3    H176183   3.879   2.896  11.586 -1.2058 -0.5027 -0.5198
18256TIP3    H276184   3.859   2.972  11.716 -2.6038  0.0395 -1.0277
18257TIP3   OH276185   4.998   3.229   3.080 -0.0516 -0.2511  0.1891
18257TIP3    H176186   4.916   3.198   3.119  0.0955 -0.1701  0.5670
18257TIP3    H276187   4.981   3.321   3.059 -0.7358 -0.7482 -1.6129
18258TIP3   OH276188   0.141   2.312   0.647 -0.2239  0.4758 -0.0092
18258TIP3    H176189   0.142   2.408   0.655  1.6510  0.7760 -2.4754
18258TIP3    H276190   0.207   2.282   0.709  1.1466  1.0883 -1.0983
18259TIP3   OH276191   1.693   0.034   1.285 -0.1423  0.0173  0.0267
18259TIP3    H176192   1.770  -0.009   1.321 -0.1848 -0.0600  0.0265
18259TIP3    H276193   1.674  -0.014   1.204 -0.6724 -0.4895  0.4454
18260TIP3   OH276194   3.659   0.050  16.801  0.0907  0.2686 -0.3171
18260TIP3    H176195   3.641   0.012  16.715 -1.1132 -0.4901  0.2416
18260TIP3    H276196   3.574   0.054  16.844  0.4508  1.9570  0.3320
18261TIP3   OH276197   3.112   6.045   2.011 -0.1730  0.4832 -0.0234
18261TIP3    H176198   3.146   6.106   1.945  0.7715  0.2205  0.1956
18261TIP3    H276199   3.180   5.978   2.018 -1.3444 -0.8049 -0.5250
18262TIP3   OH276200   1.302   4.710  11.842 -0.2240 -0.7074  0.6230
18262TIP3    H176201   1.272   4.653  11.771  1.5158  0.5781 -1.2585
18262TIP3    H276202   1.287   4.799  11.810  0.3485 -0.0844  1.9925
18263TIP3   OH276203   5.077   6.344   5.750 -0.0430  0.3753 -0.0456
18263TIP3    H176204   5.017   6.367   5.821 -0.3920 -1.4021  0.2906
18263TIP3    H276205   5.163   6.345   5.791  0.0991  2.0716 -0.3148
18264TIP3   OH276206   3.939   5.586   0.611  0.3054 -0.0031 -0.4581
18264TIP3    H176207   3.863   5.550   0.566  0.5144  0.2082 -0.9934
18264TIP3    H276208   3.953   5.671   0.569  0.6439  0.0931 -0.1496
18265TIP3   OH276209   3.448   4.113   3.783 -0.3783  0.0995 -0.1601
18265TIP3    H176210   3.382   4.183   3.778  0.8312  1.3298  0.3794
18265TIP3    H276211   3.454   4.080   3.694 -0.4288  1.2237 -0.5968
18266TIP3   OH276212   4.009   4.336  16.096  0.2250  0.2901 -0.0702
18266TIP3    H176213   3.940   4.374  16.152 -0.8591 -1.2543 -0.3057
18266TIP3    H276214   3.973   4.341  16.007 -0.4751 -2.2273 -0.0040
18267TIP3   OH276215   5.211   3.604   2.752 -0.0767  0.4941 -0.1782
18267TIP3    H176216   5.164   3.680   2.717 -0.3746  0.6556  0.5522
18267TIP3    H276217   5.154   3.529   2.732  0.4072  0.3890 -1.2660
18268TIP3   OH276218   4.544   4.443  11.738  0.7043 -0.0362 -0.0335
18268TIP3    H176219   4.553   4.535  11.712 -2.1184  0.3465  0.0562
18268TIP3    H276220   4.559   4.394  11.657  1.5016  0.5417 -0.2471
18269TIP3   OH276221   0.339   3.638  15.295  0.4472 -0.3270  0.2869
18269TIP3    H176222   0.378   3.593  15.369  1.6901 -0.9673 -0.7189
18269TIP3    H276223   0.320   3.569  15.232 -2.1495 -0.0103  0.6226
18270TIP3   OH276224   0.892   5.315  16.568 -0.2694  0.7117  0.3696
18270TIP3    H176225   0.824   5.257  16.603  1.3839 -1.0813  0.7685
18270TIP3    H276226   0.926   5.362  16.645  0.9542 -0.6172  0.6683
18271TIP3   OH276227   0.445   0.232   1.803  0.9770 -0.0783  0.1340
18271TIP3    H176228   0.426   0.159   1.861 -0.8588  0.3224  0.1067
18271TIP3    H276229   0.443   0.193   1.715  0.0732 -0.0382  0.1240
18272TIP3   OH276230   6.506   0.187  14.939 -0.3630  0.0822 -0.3789
18272TIP3    H176231   6.529   0.237  15.016 -1.0157  1.3748 -0.9821
18272TIP3    H276232   6.575   0.207  14.875 -1.1405  1.0555 -0.9541
18273TIP3   OH276233   2.960   1.356   3.625 -0.6614 -0.2790  0.6017
18273TIP3    H176234   2.956   1.374   3.719 -0.6365 -1.9100  0.9366
18273TIP3    H276235   2.869   1.348   3.598 -0.6453 -1.0009  0.7432
18274TIP3   OH276236   5.466   6.515   1.729 -0.2425 -0.4627  0.1163
18274TIP3    H176237   5.541   6.469   1.768  0.0659  0.3577  0.5055
18274TIP3    H276238   5.391   6.459   1.749  0.3141 -1.6079 -0.7917
18275TIP3   OH276239   2.169   4.374  15.151  0.0616  0.4310  0.1001
18275TIP3    H176240   2.242   4.437  15.147  0.7446 -0.3967 -0.9031
18275TIP3    H276241   2.202   4.303  15.206  0.5749 -0.6145 -1.5087
18276TIP3   OH276242   1.033   2.036  12.756 -0.2033 -0.3880  0.4728
18276TIP3    H176243   1.104   2.084  12.797 -2.0199  0.9770  2.2332
18276TIP3    H276244   1.031   2.068  12.666  1.8175 -1.0216  0.1598
18277TIP3   OH276245   3.230   2.269  13.163  0.4440 -0.0103 -0.3347
18277TIP3    H176246   3.171   2.341  13.139 -0.1385 -0.0805  0.8128
18277TIP3    H276247   3.209   2.199  13.102 -1.6214 -0.5016  0.8217
18278TIP3   OH276248   2.385   3.442  15.454  0.0210 -0.4876  0.0469
18278TIP3    H176249   2.387   3.519  15.397 -1.2695 -1.2472 -1.0751
18278TIP3    H276250   2.365   3.369  15.396  0.1503 -1.5270  1.2592
18279TIP3   OH276251   1.986   1.680  14.782  0.2825 -0.1273  0.5291
18279TIP3    H176252   2.064   1.731  14.760  0.3887 -0.5937 -0.2171
18279TIP3    H276253   1.952   1.650  14.698 -1.9364  1.7846  0.6405
18280TIP3   OH276254   2.436   2.152   3.189  0.0134  0.3592  0.5450
18280TIP3    H176255   2.355   2.105   3.203  0.2761  0.1019  1.2848
18280TIP3    H276256   2.456   2.141   3.096  0.3869 -1.5160  0.8039
18281TIP3   OH276257   0.233   0.555   2.284  0.7985  0.1600 -0.5688
18281TIP3    H176258   0.212   0.610   2.208 -1.9382  0.4490  0.2915
18281TIP3    H276259   0.304   0.601   2.328  0.2215  1.7377 -1.2084
18282TIP3   OH276260   4.987   5.624  14.323  0.5548 -0.5221  1.0765
18282TIP3    H176261   5.069   5.576  14.333  0.9281  0.1740  1.5027
18282TIP3    H276262   5.012   5.707  14.282 -0.2196 -1.0797 -0.6216
18283TIP3   OH276263   2.858   6.579  13.401 -0.0912  0.3004 -0.1587
18283TIP3    H176264   2.780   6.526  13.415  1.3213 -1.6794  0.6480
18283TIP3    H276265   2.908   6.533  13.333  0.4703  1.4418 -0.5603
18284TIP3   OH276266   1.848   2.896  14.029 -1.1304 -0.3183  0.1903
18284TIP3    H176267   1.896   2.978  14.016  3.7310 -2.0929  3.6135
18284TIP3    H276268   1.799   2.909  14.109  2.1038 -1.2934  2.5638
18285TIP3   OH276269   6.645   6.210   0.832 -0.0915 -0.1330 -0.1674
18285TIP3    H176270   6.639   6.237   0.923  0.0900 -1.9797  0.4359
18285TIP3    H276271   6.676   6.288   0.786  0.5322  0.6273  1.4527
18286TIP3   OH276272   1.740   3.863  17.263  0.4048 -0.1946 -0.1196
18286TIP3    H176273   1.784   3.891  17.182 -1.8729 -1.4519 -1.9179
18286TIP3    H276274   1.745   3.768  17.261 -1.7121 -0.3412 -0.0509
18287TIP3   OH276275   4.243   2.750  14.195 -0.4951  0.1924 -0.1975
18287TIP3    H176276   4.324   2.760  14.244 -0.7313  1.7860 -0.0895
18287TIP3    H276277   4.260   2.676  14.136  0.5684 -0.3098  0.7109
18288TIP3   OH276278   2.003   6.708   5.146 -0.3948  0.1623 -0.1883
18288TIP3    H176279   2.000   6.800   5.121 -1.5103  0.0812 -0.3823
18288TIP3    H276280   2.012   6.661   5.064 -1.8086  0.0133 -0.2821
18289TIP3   OH276281   3.667   5.289   1.851  0.0749 -0.0229 -0.1208
18289TIP3    H176282   3.732   5.258   1.788  0.7802 -0.4631  0.8060
18289TIP3    H276283   3.708   5.278   1.936 -0.1404  2.2827  0.3507
18290TIP3   OH276284   4.835   2.606   2.974  0.4926  0.5070  0.1635
18290TIP3    H176285   4.861   2.694   3.000  3.7646 -0.5567  0.9620
18290TIP3    H276286   4.844   2.554   3.054  0.7054 -0.9235 -0.7561
18291TIP3   OH276287   6.518   4.957   3.776  0.6388 -0.2128 -0.3665
18291TIP3    H176288   6.521   5.049   3.749  0.7040 -0.0101  0.3049
18291TIP3    H276289   6.499   4.961   3.870  0.6477 -0.8886 -0.3340
18292TIP3   OH276290   2.074   1.890   1.809  0.0133  0.6015 -0.6978
18292TIP3    H176291   2.018   1.965   1.792  1.4559  1.6022 -1.2117
18292TIP3    H276292   2.032   1.817   1.763 -1.4100  1.0554 -0.1743
18293TIP3   OH276293   5.473   0.855  11.552  0.1700 -0.1344  0.0845
18293TIP3    H176294   5.419   0.777  11.542  1.5303 -1.0567 -0.5535
18293TIP3    H276295   5.516   0.865  11.467  1.1805  0.4052  0.6351
18294TIP3   OH276296   2.573   1.250  13.327  0.8343 -0.4696  0.2735
18294TIP3    H176297   2.652   1.202  13.353  1.2789  0.2964  0.3711
18294TIP3    H276298   2.542   1.290  13.408  0.2423 -0.9060  0.2664
18295TIP3   OH276299   3.978   3.827   1.546  0.2975 -0.1097 -0.7117
18295TIP3    H176300   3.929   3.813   1.627  0.1636  0.7654 -0.6280
18295TIP3    H276301   4.068   3.842   1.575 -0.0003  1.6201 -0.5935
18296TIP3   OH276302   3.686   1.935  14.451 -0.2878 -0.5273 -0.4698
18296TIP3    H176303   3.692   1.906  14.542 -0.2204  0.3574 -0.1797
18296TIP3    H276304   3.637   1.866  14.406 -0.2615 -1.0005  0.2206
18297TIP3   OH276305   4.438   4.765   5.189 -0.4960  0.5060 -0.1105
18297TIP3    H176306   4.357   4.806   5.216 -1.5338 -0.0665 -2.1199
18297TIP3    H276307   4.423   4.671   5.200  0.0328  0.4088 -0.1587
18298TIP3   OH276308   6.678   0.294   3.895  0.2696  0.1603 -0.3606
18298TIP3    H176309   6.660   0.383   3.862  1.4026  0.3160 -0.5872
18298TIP3    H276310   6.680   0.240   3.816  1.4998  0.2753 -0.4202
18299TIP3   OH276311   0.392   4.074   2.152 -0.3321  0.7851 -0.3683
18299TIP3    H176312   0.469   4.111   2.107 -0.8200  2.6037  0.2044
18299TIP3    H276313   0.318   4.121   2.114 -1.1315 -0.4510 -0.4014
18300TIP3   OH276314   2.019   3.929   4.193  0.0145  0.2474 -0.1375
18300TIP3    H176315   2.069   3.936   4.274 -1.6643 -1.2506  1.1167
18300TIP3    H276316   2.047   3.846   4.155  0.3256  0.6389 -0.7890
18301TIP3   OH276317   0.297   3.424  14.009  0.2463 -0.5088 -0.8666
18301TIP3    H176318   0.248   3.467  14.079 -2.5415 -1.0277 -2.3752
18301TIP3    H276319   0.379   3.474  14.002  0.0966  0.2643  1.9081
18302TIP3   OH276320   5.380   1.500  11.311  0.3687  0.4137  0.0852
18302TIP3    H176321   5.298   1.481  11.358  0.9038 -2.1491  0.1497
18302TIP3    H276322   5.448   1.491  11.378  0.8139  1.0017 -0.2841
18303TIP3   OH276323   2.777   4.398   1.308  0.2414 -0.5995 -0.4361
18303TIP3    H176324   2.693   4.441   1.291 -0.3161 -1.6174 -0.3431
18303TIP3    H276325   2.775   4.319   1.254  0.9163 -0.9126 -0.0175
18304TIP3   OH276326   6.413   2.850  12.663  0.4018 -0.0227 -0.0407
18304TIP3    H176327   6.499   2.827  12.697 -0.6435 -1.4046  1.8805
18304TIP3    H276328   6.400   2.941  12.689  0.1812 -0.6485  2.2945
18305TIP3   OH276329   6.004   6.717   0.911 -0.2201 -0.5009 -0.2122
18305TIP3    H176330   6.006   6.726   0.816 -1.0337  0.4619 -0.1597
18305TIP3    H276331   6.017   6.623   0.927  2.4415 -0.3778 -1.1371
18306TIP3   OH276332   2.428   3.601  13.838 -0.6079 -0.1082 -0.0965
18306TIP3    H176333   2.494   3.654  13.792  1.6749 -2.0927  0.6649
18306TIP3    H276334   2.479   3.536  13.886 -3.1557 -1.4839  0.9470
18307TIP3   OH276335   1.080   5.816  11.960 -0.0246  0.5266 -0.4833
18307TIP3    H176336   1.147   5.811  12.027 -0.3559  0.5627 -0.1458
18307TIP3    H276337   1.086   5.732  11.914 -1.3049 -0.4802  1.0621
18308TIP3   OH276338   2.911   2.645   0.321  0.3544  0.5116 -0.2199
18308TIP3    H176339   2.825   2.606   0.307  1.5975 -1.6538 -2.4816
18308TIP3    H276340   2.913   2.663   0.415 -1.2831 -2.6464  0.5549
18309TIP3   OH276341   5.561   1.070   2.995 -0.5476  0.6140 -0.4672
18309TIP3    H176342   5.609   1.037   2.920  1.9523  0.7313  0.9700
18309TIP3    H276343   5.616   1.139   3.031 -1.8647  0.8764  1.2267
18310TIP3   OH276344   5.557   4.196   0.766  0.0253  0.0348  0.3648
18310TIP3    H176345   5.487   4.135   0.743 -0.3180  1.1639 -1.8058
18310TIP3    H276346   5.612   4.146   0.827 -0.4260 -2.3348 -1.0311
18311TIP3   OH276347   2.337   2.651  12.322  0.0078  0.0279 -0.2939
18311TIP3    H176348   2.305   2.669  12.234 -1.9803 -1.6985 -0.0121
18311TIP3    H276349   2.297   2.719  12.377 -0.7510 -0.3094 -0.4057
18312TIP3   OH276350   4.565   0.225   1.165 -0.4505 -0.4627  0.4128
18312TIP3    H176351   4.538   0.291   1.102  0.6547 -1.4290 -1.1316
18312TIP3    H276352   4.590   0.149   1.112  0.0869 -1.4683  2.0318
18313TIP3   OH276353   2.987   3.303   4.909 -0.1550  0.1415 -0.1565
18313TIP3    H176354   2.929   3.230   4.933  1.0779 -0.5400  0.8979
18313TIP3    H276355   3.072   3.278   4.945  0.6966  1.3315 -1.2570
18314TIP3   OH276356   6.648   1.034  16.999 -0.8149  0.6456  0.0103
18314TIP3    H176357   6.718   1.010  16.937  0.8034  1.0918  1.5820
18314TIP3    H276358   6.669   1.124  17.024 -1.9835  0.7850  0.5057
18315TIP3   OH276359   4.685   0.379  12.526  0.2681 -0.3775 -0.2731
18315TIP3    H176360   4.644   0.349  12.607 -0.5518 -0.2576 -0.6298
18315TIP3    H276361   4.627   0.448  12.494 -0.0883 -1.2438 -1.5778
18316TIP3   OH276362   3.282   0.362  13.978  0.2561 -0.1456  0.0202
18316TIP3    H176363   3.313   0.276  14.006  0.0604  0.2654  1.6296
18316TIP3    H276364   3.333   0.382  13.900  1.7086 -0.9005  0.7226
18317TIP3   OH276365   5.362   1.008  14.074  0.5079 -0.0751 -0.4612
18317TIP3    H176366   5.275   0.968  14.073  1.5048 -2.5515  0.8720
18317TIP3    H276367   5.389   1.009  13.982 -1.3991  2.1061 -1.0943
18318TIP3   OH276368   1.841   1.677   0.324 -0.3521 -0.7401 -0.6210
18318TIP3    H176369   1.856   1.592   0.282  1.4128 -2.2414  2.6389
18318TIP3    H276370   1.768   1.662   0.383  0.5672 -0.3451  0.6649
18319TIP3   OH276371   3.933   2.527   1.795  0.0971  0.0840 -0.2943
18319TIP3    H176372   3.936   2.622   1.791 -1.1250  0.1236 -0.7833
18319TIP3    H276373   3.840   2.506   1.795  0.3511 -1.1108 -0.2564
18320TIP3   OH276374   2.320   0.096   2.387  0.3964  0.1937 -0.2973
18320TIP3    H176375   2.317   0.169   2.325 -0.4834  1.7623  1.4934
18320TIP3    H276376   2.299   0.135   2.472  0.0034 -2.1391  0.7642
18321TIP3   OH276377   0.113   4.486  16.361 -0.4329  0.2263 -0.0835
18321TIP3    H176378   0.161   4.555  16.316  2.5469 -0.7442  1.3377
18321TIP3    H276379   0.090   4.424  16.291 -0.2672  1.0951 -0.9270
18322TIP3   OH276380   2.471   6.621   0.170  0.1529  1.4502 -0.5182
18322TIP3    H176381   2.466   6.640   0.263  0.6525 -2.8748  0.5876
18322TIP3    H276382   2.394   6.566   0.152  1.0027  0.7323 -2.1906
18323TIP3   OH276383   1.831   3.714  12.400  0.5694  0.2777 -0.4954
18323TIP3    H176384   1.903   3.663  12.437  1.0326  0.8886 -0.5270
18323TIP3    H276385   1.777   3.738  12.476 -1.2927 -2.6607 -0.7629
18324TIP3   OH276386   1.863   4.547   1.334  0.0961  0.6817 -0.0183
18324TIP3    H176387   1.850   4.492   1.257  0.3979 -0.2263  0.5527
18324TIP3    H276388   1.896   4.486   1.401  2.5991  1.9297  0.0129
18325TIP3   OH276389   4.323   3.817  15.707 -0.2752 -0.3203 -0.4004
18325TIP3    H176390   4.373   3.784  15.782 -0.0523 -1.8792 -1.2073
18325TIP3    H276391   4.240   3.769  15.711 -0.2586 -0.4154 -1.1558
18326TIP3   OH276392   3.469   3.380   1.596  0.1156  0.1673 -0.0962
18326TIP3    H176393   3.560   3.405   1.614  0.3638 -0.9496  0.3108
18326TIP3    H276394   3.455   3.402   1.504  0.5421  1.0763  0.0517
18327TIP3   OH276395   1.965   5.614   3.196 -0.6263 -0.0305  0.7565
18327TIP3    H176396   1.899   5.682   3.205  1.4305  2.2718 -0.4212
18327TIP3    H276397   1.935   5.559   3.124 -2.2768 -0.3708  1.6711
18328TIP3   OH276398   0.565   3.630  13.535 -0.3771  0.3025  0.6017
18328TIP3    H176399   0.567   3.544  13.492 -2.8119  0.1268  0.6844
18328TIP3    H276400   0.483   3.629  13.585 -0.9445  3.0385 -0.1588
18329TIP3   OH276401   3.424   0.157  15.657 -0.1655  0.6659 -0.1804
18329TIP3    H176402   3.354   0.207  15.616 -0.0036  0.5739 -0.5718
18329TIP3    H276403   3.437   0.199  15.742  0.1204  1.4257 -0.5947
18330TIP3   OH276404   3.853   6.672   3.339  0.0879 -0.2453  0.2149
18330TIP3    H176405   3.935   6.698   3.297  0.0537 -0.8455 -0.2357
18330TIP3    H276406   3.801   6.633   3.269 -1.6487  2.4313 -0.1235
18331TIP3   OH276407   0.426   3.908   6.282 -0.1065 -0.5957 -0.3619
18331TIP3    H176408   0.456   3.999   6.278  0.4347 -0.7234  0.5856
18331TIP3    H276409   0.493   3.859   6.235 -0.3205 -0.5309 -0.7402
18332TIP3   OH276410   6.619   1.034   0.609  0.0700 -0.1968  0.1492
18332TIP3    H176411   6.590   0.943   0.618  0.8081 -0.4352  0.2018
18332TIP3    H276412   6.541   1.086   0.629 -1.2908 -0.8155 -2.8761
18333TIP3   OH276413   2.841   1.441  11.910 -0.3732  0.0125  0.2751
18333TIP3    H176414   2.937   1.446  11.916 -0.3306  1.4009 -1.0868
18333TIP3    H276415   2.810   1.492  11.984 -0.0303  0.6002  0.0251
18334TIP3   OH276416   3.661   0.377   5.183  0.3060  0.2447 -0.2329
18334TIP3    H176417   3.624   0.455   5.226  0.9935 -0.2759  1.3866
18334TIP3    H276418   3.756   0.389   5.191  0.5242  0.5701 -2.5140
18335TIP3   OH276419   2.684   5.713   4.282  0.2122  0.1148  0.6635
18335TIP3    H176420   2.776   5.715   4.256 -0.1604  2.0391 -0.7782
18335TIP3    H276421   2.671   5.795   4.329 -0.1238 -1.4869  3.6132
18336TIP3   OH276422   6.424   4.599  14.277 -0.4352 -0.1383 -0.8779
18336TIP3    H176423   6.504   4.556  14.248  0.3209  1.3532 -1.0831
18336TIP3    H276424   6.379   4.624  14.196 -1.1969 -1.0577 -0.7679
18337TIP3   OH276425   2.261   1.110  16.759 -0.1101 -0.1943 -0.0498
18337TIP3    H176426   2.283   1.173  16.827  0.8194  0.5334 -0.9834
18337TIP3    H276427   2.195   1.053  16.799  0.3136  0.2833  1.3942
18338TIP3   OH276428   5.743   6.652  14.333  0.3866 -0.7727 -0.2764
18338TIP3    H176429   5.740   6.571  14.282  2.3504 -0.1291 -1.5069
18338TIP3    H276430   5.820   6.698  14.301  0.8174  0.4077  2.2202
18339TIP3   OH276431   1.001   4.454  15.301  0.1900 -0.6165  0.3202
18339TIP3    H176432   0.985   4.519  15.369  0.6549 -0.7510  0.5608
18339TIP3    H276433   0.984   4.500  15.219  3.9583  0.9295  0.2403
18340TIP3   OH276434   4.635   6.427  15.819 -0.3532 -0.0501 -0.1384
18340TIP3    H176435   4.703   6.443  15.754 -0.5717  0.5671 -0.2198
18340TIP3    H276436   4.606   6.515  15.846 -0.4770 -0.2965  0.5628
18341TIP3   OH276437   6.080   2.174   2.212 -0.0593 -0.1299 -0.3621
18341TIP3    H176438   6.084   2.080   2.192 -2.4762 -0.4434  0.4042
18341TIP3    H276439   6.119   2.182   2.299  2.5462  0.0407 -1.4213
18342TIP3   OH276440   6.573   2.417  15.011 -0.5886  0.2076  0.1801
18342TIP3    H176441   6.638   2.477  14.975  0.3869  0.3019  1.9801
18342TIP3    H276442   6.546   2.458  15.094 -0.9621 -1.1357  0.7475
18343TIP3   OH276443   4.239   4.298   5.221  0.1626  0.3127 -1.0340
18343TIP3    H176444   4.218   4.248   5.300  1.3788  1.2299 -0.1171
18343TIP3    H276445   4.165   4.358   5.210  1.0412  1.8152  0.7803
18344TIP3   OH276446   5.796   0.004  13.420 -0.1539  0.2799  0.1838
18344TIP3    H176447   5.713   0.044  13.395 -0.3319 -0.4072 -0.3385
18344TIP3    H276448   5.792  -0.085  13.386 -0.4015 -0.7408  2.6564
18345TIP3   OH276449   0.872   2.918   2.068  0.1580  0.4778 -0.1580
18345TIP3    H176450   0.853   3.012   2.075 -1.4759  0.0465  2.3195
18345TIP3    H276451   0.949   2.905   2.123 -1.3211  0.0093  1.9289
18346TIP3   OH276452   2.960   2.450   2.747 -0.3833 -0.3800 -0.3343
18346TIP3    H176453   2.865   2.440   2.744 -0.2904 -1.1006 -1.4024
18346TIP3    H276454   2.984   2.424   2.836 -1.3173  1.2979  0.4561
18347TIP3   OH276455   2.885   1.704   5.136 -0.5073  0.3251  0.1470
18347TIP3    H176456   2.894   1.704   5.231 -0.6941  1.3794  0.1831
18347TIP3    H276457   2.905   1.614   5.109  0.9533  0.3455  1.0484
18348TIP3   OH276458   5.419   2.366  14.689  0.3044  0.5008  0.7260
18348TIP3    H176459   5.439   2.281  14.729  0.6882  0.5375  0.6203
18348TIP3    H276460   5.337   2.393  14.730 -1.7080 -1.5040 -1.6511
18349TIP3   OH276461   4.616   5.315   1.071 -0.0833 -0.2416 -0.5772
18349TIP3    H176462   4.693   5.298   1.126 -0.0969  0.1193 -0.4426
18349TIP3    H276463   4.564   5.377   1.122  0.1860  0.5559 -1.2400
18350TIP3   OH276464   2.869   1.983   0.608 -0.1866 -0.2684 -0.6450
18350TIP3    H176465   2.947   2.035   0.590 -1.6695  2.1829 -0.4687
18350TIP3    H276466   2.796   2.038   0.578 -1.8880 -2.3185 -0.5268
18351TIP3   OH276467   2.273   0.779   5.492 -0.1281  0.0887 -0.5289
18351TIP3    H176468   2.241   0.791   5.581  1.0031  0.8290 -0.2046
18351TIP3    H276469   2.231   0.849   5.442 -0.4074 -0.0484 -0.4914
18352TIP3   OH276470   4.926   6.300   1.534 -0.2254 -0.0304 -0.4819
18352TIP3    H176471   4.866   6.375   1.544 -0.3009 -0.1311 -0.1707
18352TIP3    H276472   5.010   6.332   1.566 -0.1895  0.0113 -0.6185
18353TIP3   OH276473   3.868   0.804  12.985 -0.4501 -0.5429  0.0678
18353TIP3    H176474   3.911   0.858  13.051  0.8635  1.8713 -2.5306
18353TIP3    H276475   3.919   0.819  12.905 -1.7432 -3.5507 -1.4681
18354TIP3   OH276476   4.624   1.055   1.755  0.3609  0.1120 -0.1532
18354TIP3    H176477   4.578   0.983   1.711  2.1607 -1.3342  0.2043
18354TIP3    H276478   4.701   1.014   1.793  0.7369  2.0181  1.2569
18355TIP3   OH276479   2.970   4.093   3.196 -0.0417  0.2736  0.0400
18355TIP3    H176480   2.943   4.129   3.112 -2.0240 -0.7871  0.1723
18355TIP3    H276481   2.894   4.103   3.253  1.1891  0.7864  1.6935
18356TIP3   OH276482   2.964   0.149  13.035 -0.2037 -0.0721 -0.2594
18356TIP3    H176483   2.922   0.217  12.983 -0.9097 -0.7513 -0.5899
18356TIP3    H276484   2.937   0.067  12.994  0.8939 -0.5526 -0.0647
18357TIP3   OH276485   1.792   0.753  15.771 -0.0887  0.3960  0.0209
18357TIP3    H176486   1.716   0.798  15.808 -0.7462  1.7299 -2.7115
18357TIP3    H276487   1.867   0.806  15.799 -0.1351 -0.5871  2.2189
18358TIP3   OH276488   0.247   3.151  11.000  0.2061  0.3462  0.2674
18358TIP3    H176489   0.214   3.065  10.971  0.2680  0.4946 -0.2576
18358TIP3    H276490   0.280   3.192  10.920 -1.2808  1.5196  0.2089
18359TIP3   OH276491   4.831   3.034   4.628  0.1311 -0.1454  0.0314
18359TIP3    H176492   4.855   3.109   4.574  1.1542 -0.6070 -0.1820
18359TIP3    H276493   4.826   2.961   4.566  3.7147 -1.2225  0.7335
18360TIP3   OH276494   2.827   6.164   3.801 -0.0577 -0.0710  0.4364
18360TIP3    H176495   2.844   6.102   3.872  0.7600 -0.3047  0.0594
18360TIP3    H276496   2.908   6.214   3.794 -0.4371  0.5131  0.2207
18361TIP3   OH276497   2.842   2.724  14.256  0.1939  0.0723  0.2571
18361TIP3    H176498   2.781   2.749  14.186 -0.1171 -0.4699  0.3232
18361TIP3    H276499   2.825   2.630  14.269 -0.8490  0.4695  2.1019
18362TIP3   OH276500   0.947   2.372   5.802 -0.2621 -0.2775  0.1189
18362TIP3    H176501   0.920   2.299   5.746  1.2152  0.2413 -1.3193
18362TIP3    H276502   0.884   2.371   5.875 -2.0730 -1.1399 -1.3901
18363TIP3   OH276503   5.488   3.844   2.277  0.6831 -0.0350 -0.1796
18363TIP3    H176504   5.567   3.873   2.322  2.3427 -1.1818 -2.1915
18363TIP3    H276505   5.465   3.761   2.320 -0.1386  0.8118  1.1147
18364TIP3   OH276506   0.313   2.789   2.106 -0.5456  0.0702 -0.5741
18364TIP3    H176507   0.391   2.740   2.081 -0.1374  0.6417 -0.4627
18364TIP3    H276508   0.340   2.838   2.184 -0.6435  1.1696 -1.2036
18365TIP3   OH276509   4.937   1.437  12.116  0.2312 -0.0602 -0.3448
18365TIP3    H176510   5.006   1.503  12.112 -0.2788  0.4983 -0.1704
18365TIP3    H276511   4.965   1.378  12.185 -1.4038  2.4861  2.7545
18366TIP3   OH276512   6.252   0.867  10.513  0.4174 -0.5447  0.0742
18366TIP3    H176513   6.290   0.792  10.468  0.0495 -1.2170  0.8659
18366TIP3    H276514   6.173   0.833  10.555 -1.5533  0.9796 -2.1525
18367TIP3   OH276515   4.216   2.832   0.878 -0.0900  0.7204  0.6639
18367TIP3    H176516   4.126   2.863   0.891 -1.0940 -1.4657 -0.6111
18367TIP3    H276517   4.269   2.912   0.879 -2.4424  2.4777 -1.8065
18368TIP3   OH276518   3.428   3.474  12.816  0.7559  0.5067 -0.1296
18368TIP3    H176519   3.384   3.403  12.862  1.3687 -1.5657 -2.5147
18368TIP3    H276520   3.369   3.496  12.743  0.4682  2.6703  0.6642
18369TIP3   OH276521   4.251   1.235  11.927  0.5271 -0.3875  0.8808
18369TIP3    H176522   4.259   1.321  11.969  0.5618 -0.3284  0.7505
18369TIP3    H276523   4.340   1.213  11.901  0.1289  1.0530 -2.1480
18370TIP3   OH276524   3.416   0.770  12.463  0.7846 -0.5829  0.5640
18370TIP3    H176525   3.402   0.711  12.537 -1.6351  0.2196  0.8309
18370TIP3    H276526   3.461   0.846  12.501  2.1224 -1.3741  0.6092
18371TIP3   OH276527   4.415   0.459   3.485 -1.0667 -0.3690  0.0725
18371TIP3    H176528   4.458   0.418   3.410  0.3882 -0.2920  0.8305
18371TIP3    H276529   4.368   0.388   3.528 -0.0113 -0.8944  0.3782
18372TIP3   OH276530   4.879   0.978   3.276 -0.1579 -0.1592  0.1474
18372TIP3    H176531   4.905   0.947   3.363 -0.9769 -0.7862  0.1784
18372TIP3    H276532   4.913   0.912   3.216  3.5480  2.0087 -0.4098
18373TIP3   OH276533   1.490   1.848  16.957 -0.0198  0.3667 -0.5441
18373TIP3    H176534   1.537   1.779  16.910 -2.0463 -0.2368 -1.8200
18373TIP3    H276535   1.500   1.825  17.049  1.2949 -0.2872 -0.8240
18374TIP3   OH276536   4.604   1.791  11.300 -0.2346 -0.2495 -0.0075
18374TIP3    H176537   4.581   1.701  11.321 -1.2351  0.2336  1.1085
18374TIP3    H276538   4.608   1.793  11.204 -1.2366 -1.2400 -0.0915
18375TIP3   OH276539   3.669   4.680   2.261  0.0352 -0.3152  0.3051
18375TIP3    H176540   3.692   4.751   2.201  1.5572 -1.6121 -0.7465
18375TIP3    H276541   3.574   4.672   2.253  0.1978 -0.6245 -2.2170
18376TIP3   OH276542   4.185   1.375  17.072  0.0395  0.4060  0.0021
18376TIP3    H176543   4.169   1.292  17.027 -0.1953 -0.7306  2.0540
18376TIP3    H276544   4.273   1.366  17.108 -0.7753  0.1027  2.0494
18377TIP3   OH276545   2.415   6.517  15.555 -0.0464 -0.0511 -0.5168
18377TIP3    H176546   2.321   6.529  15.563  0.0988 -0.1784  2.8778
18377TIP3    H276547   2.425   6.429  15.517 -1.3014 -0.1467 -0.6667
18378TIP3   OH276548   4.886   6.282   3.209 -0.4534  0.2836 -0.3483
18378TIP3    H176549   4.873   6.369   3.247  1.5089  0.5703 -0.2367
18378TIP3    H276550   4.901   6.226   3.285 -1.8480 -0.2168 -0.4105
18379TIP3   OH276551   6.203   0.869  17.204 -0.8594  0.6333 -0.0548
18379TIP3    H176552   6.223   0.944  17.261 -0.3614 -0.2806  1.0039
18379TIP3    H276553   6.250   0.888  17.122 -0.3541  1.2493  0.3721
18380TIP3   OH276554   2.367   5.830  11.358 -0.0713  0.1343  0.2816
18380TIP3    H176555   2.343   5.746  11.317  2.2125 -0.0562 -0.8400
18380TIP3    H276556   2.374   5.891  11.285  1.3725  0.4953  0.6945
18381TIP3   OH276557   5.235   2.225  16.078 -0.5556 -0.3719 -0.4240
18381TIP3    H176558   5.275   2.140  16.096 -1.2138 -0.4234  0.8936
18381TIP3    H276559   5.147   2.219  16.116 -0.9235  0.6028 -1.0745
18382TIP3   OH276560   1.704   3.702   3.758  0.2302 -0.4517  0.0633
18382TIP3    H176561   1.764   3.759   3.709  0.9379  0.1609  1.5961
18382TIP3    H276562   1.618   3.740   3.742  0.4165 -0.4111 -0.9045
18383TIP3   OH276563   6.373   1.834   4.413  0.4019 -0.5808  0.4075
18383TIP3    H176564   6.326   1.878   4.484 -1.4638 -1.9793  0.1240
18383TIP3    H276565   6.411   1.905   4.361  3.6142  0.5117  3.8126
18384TIP3   OH276566   5.886   1.624  14.596 -0.6875 -0.6088  0.2827
18384TIP3    H176567   5.980   1.636  14.602 -0.7167  0.1015 -0.4467
18384TIP3    H276568   5.870   1.537  14.632  0.4091 -1.2978 -0.8402
18385TIP3   OH276569   2.154   1.461  11.598  0.1635 -0.1514 -0.0437
18385TIP3    H176570   2.126   1.408  11.672  0.9988 -1.6781 -0.7597
18385TIP3    H276571   2.249   1.446  11.591  0.3885  1.2311 -0.4584
18386TIP3   OH276572   3.459   3.086  15.510  0.5186  0.1121  0.1983
18386TIP3    H176573   3.397   3.152  15.479  1.2737 -0.0740 -1.8613
18386TIP3    H276574   3.520   3.134  15.566  0.9694  1.1972 -1.1503
18387TIP3   OH276575   0.283   5.301  12.772 -0.3658 -0.3395  0.1175
18387TIP3    H176576   0.223   5.237  12.732  0.0928 -2.5771  2.6922
18387TIP3    H276577   0.242   5.323  12.856  0.4957  1.2652  0.1605
18388TIP3   OH276578   4.380   5.986  14.265  0.6503 -0.4352 -0.3519
18388TIP3    H176579   4.387   6.043  14.189  0.2482 -0.6017 -0.5134
18388TIP3    H276580   4.288   5.961  14.269  0.6460 -0.3528  0.2464
18389TIP3   OH276581   1.570   6.621  12.360  0.0966 -0.4361  0.0055
18389TIP3    H176582   1.586   6.678  12.285  0.5853 -0.8787 -0.2317
18389TIP3    H276583   1.556   6.681  12.433  0.3012 -0.0105 -0.3006
18390TIP3   OH276584   4.293   5.284  15.173 -0.5977 -0.0272 -0.0106
18390TIP3    H176585   4.245   5.320  15.247  0.3842  0.1251  0.5671
18390TIP3    H276586   4.347   5.356  15.141 -0.0070 -0.4606 -0.0117
18391TIP3   OH276587   0.213   5.186  11.567 -0.4495 -0.2828  0.0150
18391TIP3    H176588   0.170   5.199  11.483 -0.0577 -1.7439 -0.4242
18391TIP3    H276589   0.245   5.273  11.591 -3.9071  1.0163  0.5540
18392TIP3   OH276590   2.361   1.472   1.327 -0.0135 -0.0614 -0.8074
18392TIP3    H176591   2.373   1.565   1.348 -0.8040 -0.3126  0.9137
18392TIP3    H276592   2.266   1.459   1.331  0.0604 -0.8618 -1.4475
18393TIP3   OH276593   2.983   6.245  16.070 -0.1310  0.0418  0.0662
18393TIP3    H176594   2.896   6.251  16.109  0.3596 -1.7853  1.6531
18393TIP3    H276595   3.043   6.266  16.141  0.7636  0.9485 -0.9151
18394TIP3   OH276596   0.242   0.071  11.664 -0.0728  0.1311  0.1676
18394TIP3    H176597   0.231  -0.009  11.612 -1.7485 -1.2919  2.5003
18394TIP3    H276598   0.337   0.085  11.666  0.2457 -1.6525 -0.5395
18395TIP3   OH276599   3.116   2.919  14.214  0.3556 -0.2641 -0.5357
18395TIP3    H176600   3.177   2.882  14.277  1.8977 -0.6818 -2.2002
18395TIP3    H276601   3.034   2.873  14.231  0.7704 -0.5254  0.9845
18396TIP3   OH276602   2.575   1.660   4.795 -0.2416 -0.1438  0.3555
18396TIP3    H176603   2.588   1.754   4.808  2.0733 -0.2863 -0.3930
18396TIP3    H276604   2.511   1.635   4.862 -1.3231  2.0254  0.2270
18397TIP3   OH276605   4.322   2.032  11.772  0.0674 -0.0276  0.4264
18397TIP3    H176606   4.387   2.103  11.770 -1.0666  1.0495  0.7182
18397TIP3    H276607   4.365   1.960  11.727  0.6700  1.3834 -1.4442
18398TIP3   OH276608   6.467   1.179   1.575  0.4972  0.8581 -0.0911
18398TIP3    H176609   6.524   1.181   1.498 -0.0925  1.8747 -0.5243
18398TIP3    H276610   6.395   1.238   1.553 -1.2033 -1.0411  0.0835
18399TIP3   OH276611   2.963   0.042   0.734  0.1848  0.0975 -0.1203
18399TIP3    H176612   3.011   0.050   0.816  2.8364 -0.3352 -1.5157
18399TIP3    H276613   2.957   0.132   0.701 -0.3716  0.2032  0.2605
18400TIP3   OH276614   4.492   6.744   3.750  0.0793 -1.0497  0.1167
18400TIP3    H176615   4.403   6.770   3.730  0.1464 -0.5709  0.4248
18400TIP3    H276616   4.542   6.766   3.671 -0.1746 -1.8541 -0.2740
18401TIP3   OH276617   1.981   5.860   2.024  0.0480  0.1358 -0.1351
18401TIP3    H176618   1.965   5.940   2.075  0.4086 -0.3899  0.8350
18401TIP3    H276619   1.929   5.793   2.068  1.9191 -0.7678  0.8100
18402TIP3   OH276620   0.009   3.531   3.647 -0.2627  0.2520  0.2958
18402TIP3    H176621   0.068   3.483   3.706  0.2903 -1.0969 -1.2765
18402TIP3    H276622   0.059   3.609   3.623  1.0445 -0.9740 -1.1745
18403TIP3   OH276623   5.719   5.406   5.771 -0.1076  0.1590  0.5054
18403TIP3    H176624   5.790   5.341   5.764 -0.6510 -0.3819 -0.0443
18403TIP3    H276625   5.651   5.362   5.822 -0.3003  0.4581  0.5082
18404TIP3   OH276626   1.078   4.949   0.765 -0.0685 -0.4197 -0.1813
18404TIP3    H176627   1.089   4.919   0.674  0.8185  0.3490 -0.3360
18404TIP3    H276628   1.026   4.880   0.806 -1.6618 -0.1585 -1.6183
18405TIP3   OH276629   6.696   1.730  16.089  0.0163 -0.8012  0.4900
18405TIP3    H176630   6.614   1.734  16.040 -0.2512 -0.1997  0.9739
18405TIP3    H276631   6.671   1.699  16.176 -0.5667  4.0047  2.3293
18406TIP3   OH276632   1.555   2.421   3.293 -0.2352  0.5570  0.3032
18406TIP3    H176633   1.557   2.489   3.360 -0.2940  0.6820  0.1795
18406TIP3    H276634   1.640   2.427   3.250  0.0612  0.0317  0.8036
18407TIP3   OH276635   2.066   5.039  11.883  0.5269 -0.0685  0.0022
18407TIP3    H176636   2.079   4.945  11.891  2.0791  0.0387 -0.7772
18407TIP3    H276637   2.003   5.061  11.952  0.3489 -1.6214  0.3706
18408TIP3   OH276638   6.052   4.089   4.307 -0.1773 -0.4062 -0.2669
18408TIP3    H176639   6.010   4.010   4.341 -2.8092  1.4542  1.0876
18408TIP3    H276640   6.140   4.087   4.346 -0.7320 -1.8666  1.0262
18409TIP3   OH276641   3.286   5.323   5.960 -0.1571 -0.7244  0.6357
18409TIP3    H176642   3.192   5.313   5.945 -0.2802 -1.6913  1.8412
18409TIP3    H276643   3.296   5.314   6.055  0.9905  0.8482  0.7061
18410TIP3   OH276644   5.510   3.059   4.715 -0.1662 -0.0013 -0.1588
18410TIP3    H176645   5.454   3.100   4.650  0.2229  2.8130  1.1598
18410TIP3    H276646   5.599   3.072   4.681 -0.0860 -1.1022 -0.4146
18411TIP3   OH276647   4.422   1.927  16.012  0.4865  0.1125  0.0822
18411TIP3    H176648   4.411   1.849  15.959 -1.8811 -0.2723  1.0438
18411TIP3    H276649   4.334   1.958  16.030  1.3130  2.2260  0.9033
18412TIP3   OH276650   5.313   0.079  15.755 -0.5730 -0.0954 -0.5461
18412TIP3    H176651   5.374   0.016  15.793 -0.6742 -0.8693 -1.6043
18412TIP3    H276652   5.364   0.158  15.741 -0.0426 -0.4451 -0.5969
18413TIP3   OH276653   1.236   6.326   2.924  0.1255  0.2418  0.1566
18413TIP3    H176654   1.311   6.386   2.919  0.4576 -0.1872 -0.1677
18413TIP3    H276655   1.221   6.299   2.834 -1.1053  1.1271  0.0737
18414TIP3   OH276656   1.923   6.289  11.423  0.0416  0.0504 -0.4133
18414TIP3    H176657   1.952   6.380  11.426  2.1395 -0.5967  0.9071
18414TIP3    H276658   1.908   6.272  11.329  4.0900  0.5286 -1.3190
18415TIP3   OH276659   4.962   0.602  12.119  0.0065 -0.3549 -0.2929
18415TIP3    H176660   4.961   0.515  12.160 -0.3516  0.0990  0.7135
18415TIP3    H276661   4.878   0.607  12.074 -0.4847 -0.1134  0.6133
18416TIP3   OH276662   2.381   4.502   2.175  0.5910  0.1583  0.2700
18416TIP3    H176663   2.433   4.471   2.101  2.8719  1.0988  1.3848
18416TIP3    H276664   2.345   4.586   2.145  0.1790 -0.2049 -0.2854
18417TIP3   OH276665   5.004   0.853   6.710 -0.6585  0.2220  0.0443
18417TIP3    H176666   5.096   0.846   6.736  0.0675  3.9443 -0.9874
18417TIP3    H276667   5.002   0.821   6.620 -0.9283 -1.9047  0.7309
18418TIP3   OH276668   2.814   0.273  15.496  0.0355  0.1851 -0.0374
18418TIP3    H176669   2.899   0.249  15.459  0.5531 -0.3843  1.4434
18418TIP3    H276670   2.808   0.222  15.577 -1.3992  0.7770  0.2548
18419TIP3   OH276671   5.226   1.592   4.610 -0.1625 -0.1143 -0.0265
18419TIP3    H176672   5.232   1.685   4.586 -1.2047  0.2565  1.0233
18419TIP3    H276673   5.134   1.581   4.636  0.2525 -1.1216  1.0947
18420TIP3   OH276674   2.366   6.207  14.668 -0.2799  0.3281  0.0735
18420TIP3    H176675   2.344   6.120  14.702  0.7460 -0.7666 -1.9032
18420TIP3    H276676   2.460   6.216  14.682 -0.0709  0.3897 -1.2614
18421TIP3   OH276677   6.236   1.676  14.748  0.3973  0.2115 -0.2268
18421TIP3    H176678   6.203   1.681  14.659  0.6153  0.8286 -0.2749
18421TIP3    H276679   6.319   1.724  14.746  0.8674 -0.5499  0.0964
18422TIP3   OH276680   5.667   5.300   3.914 -0.2358 -0.4269  0.2043
18422TIP3    H176681   5.751   5.256   3.927 -0.3042 -0.5652  0.1801
18422TIP3    H276682   5.642   5.331   4.001  0.5460  0.9048 -0.0281
18423TIP3   OH276683   2.406   6.128   2.223 -0.3631 -0.4020  0.8238
18423TIP3    H176684   2.405   6.169   2.136  1.2077  0.0748  1.0010
18423TIP3    H276685   2.466   6.054   2.214  2.8488  1.8021  2.3504
18424TIP3   OH276686   1.624   6.349  11.444 -0.1902 -0.0204 -0.1678
18424TIP3    H176687   1.551   6.400  11.479  0.0533  1.1005 -1.1942
18424TIP3    H276688   1.695   6.413  11.435  0.5822 -0.8695 -0.1327
18425TIP3   OH276689   6.372   4.761   1.625  0.0324 -0.4786  0.7216
18425TIP3    H176690   6.337   4.776   1.537  0.6513 -1.2966  0.3138
18425TIP3    H276691   6.443   4.825   1.634  0.1755 -0.6010  0.4925
18426TIP3   OH276692   4.499   2.076  13.213  0.7378  0.6102 -0.1910
18426TIP3    H176693   4.559   2.001  13.209 -1.3916 -1.1237 -1.3990
18426TIP3    H276694   4.507   2.118  13.128 -0.0798  0.0730 -0.5462
18427TIP3   OH276695   3.655   0.204   5.930  0.8290  0.2539 -0.8009
18427TIP3    H176696   3.594   0.177   5.998  0.4689 -1.9571 -1.9124
18427TIP3    H276697   3.740   0.211   5.974  0.6815 -1.5597 -0.1766
18428TIP3   OH276698   4.997   5.238  14.401  0.1015  0.3790  0.5183
18428TIP3    H176699   5.028   5.296  14.471 -0.7475  1.1230  0.2968
18428TIP3    H276700   4.915   5.278  14.372  0.0911 -0.3093 -0.4275
18429TIP3   OH276701   6.276   2.234   2.026 -0.1621  0.0437 -0.4420
18429TIP3    H176702   6.220   2.200   2.096 -0.6298 -1.1339 -1.3458
18429TIP3    H276703   6.329   2.302   2.068  1.1571 -2.1059  1.6285
18430TIP3   OH276704   4.711   6.667  13.174  0.2478  0.1660 -0.2308
18430TIP3    H176705   4.664   6.655  13.257  0.6003 -1.8833 -0.2675
18430TIP3    H276706   4.642   6.682  13.109 -0.0325  1.7160  0.3796
18431TIP3   OH276707   0.528   6.366  10.861  0.3868 -0.1926  0.1104
18431TIP3    H176708   0.588   6.434  10.892 -1.3004  2.2917 -1.7529
18431TIP3    H276709   0.458   6.364  10.927  1.0791 -1.1136  0.8426
18432TIP3   OH276710   1.094   1.013  12.334 -0.1930  0.4305  0.7533
18432TIP3    H176711   1.187   1.001  12.313  0.4025  2.4590  1.9674
18432TIP3    H276712   1.057   1.052  12.255 -0.1105 -0.6838  0.1471
18433TIP3   OH276713   3.352   5.387  15.359  0.1186 -0.0392 -0.4905
18433TIP3    H176714   3.397   5.419  15.281 -1.2214  2.2776 -0.4044
18433TIP3    H276715   3.259   5.393  15.337 -0.2839 -3.1560 -0.0963
18434TIP3   OH276716   6.043   3.674  16.230  0.5495  0.0710  0.3466
18434TIP3    H176717   6.105   3.669  16.156  0.0117  1.6468 -0.2528
18434TIP3    H276718   6.099   3.683  16.307  1.1010 -0.1193 -0.0263
18435TIP3   OH276719   1.635   3.275  14.276 -0.3853 -0.5743 -0.2165
18435TIP3    H176720   1.582   3.301  14.351 -1.6593 -0.1296 -1.2281
18435TIP3    H276721   1.703   3.341  14.270 -1.3363  0.4100 -0.4874
18436TIP3   OH276722   0.364   3.700   0.192 -0.1119 -0.0564 -0.2850
18436TIP3    H176723   0.408   3.764   0.249 -1.0214  0.0368  0.3445
18436TIP3    H276724   0.382   3.731   0.103  2.6658 -1.0863 -0.1672
18437TIP3   OH276725   5.959   3.693   0.894  0.5820  0.3846  0.1664
18437TIP3    H176726   5.966   3.609   0.940 -1.3144  0.3838  0.5202
18437TIP3    H276727   6.044   3.703   0.851  0.9956 -1.5371  0.4171
18438TIP3   OH276728   4.122   3.572   0.080 -0.1324  0.4296  0.4117
18438TIP3    H176729   4.172   3.542   0.004 -1.5684 -1.6614  0.2194
18438TIP3    H276730   4.138   3.506   0.147 -1.3358  0.5796  0.8723
18439TIP3   OH276731   6.283   4.125  15.434  0.6895  0.5083 -0.1584
18439TIP3    H176732   6.317   4.207  15.398  0.5246  0.0974 -1.2925
18439TIP3    H276733   6.247   4.079  15.359 -0.5564  0.0392  0.6992
18440TIP3   OH276734   2.838   4.283   3.787 -0.5217  0.2017 -0.0227
18440TIP3    H176735   2.772   4.260   3.852 -0.2872 -0.1620  0.0940
18440TIP3    H276736   2.899   4.208   3.788 -0.8452 -0.0874 -1.1016
18441TIP3   OH276737   4.218   5.369   1.701  0.5384 -0.3277  0.5353
18441TIP3    H176738   4.287   5.327   1.652  1.9795  2.3804  0.0289
18441TIP3    H276739   4.251   5.374   1.791  0.6643  0.2386  0.4633
18442TIP3   OH276740   5.150   2.671   4.281 -0.1028  0.6104  0.4133
18442TIP3    H176741   5.085   2.614   4.323 -1.1591  0.4540 -1.3308
18442TIP3    H276742   5.204   2.612   4.229 -0.8709  1.0976 -0.9825
18443TIP3   OH276743   0.219   2.489  15.974 -0.5538 -1.0469  0.4387
18443TIP3    H176744   0.242   2.425  16.042 -1.0181 -2.3136 -0.5616
18443TIP3    H276745   0.232   2.574  16.016  2.1839 -1.7207  1.1191
18444TIP3   OH276746   5.995   0.850   3.528  0.3210  0.2955  0.5118
18444TIP3    H176747   6.008   0.920   3.592 -4.2839  0.7666  1.2548
18444TIP3    H276748   6.007   0.769   3.578  1.2822  0.5652  0.7448
18445TIP3   OH276749   0.534   5.654  14.800 -0.6479  0.1011  0.0798
18445TIP3    H176750   0.566   5.733  14.844 -0.7638 -0.1312  0.5902
18445TIP3    H276751   0.442   5.672  14.781 -1.3016 -0.6931  2.1266
18446TIP3   OH276752   1.873   2.363   3.634  0.2353 -0.0493 -0.0920
18446TIP3    H176753   1.830   2.431   3.583 -0.5396 -1.0148 -0.7459
18446TIP3    H276754   1.966   2.370   3.610  0.3427  1.3969  0.5941
18447TIP3   OH276755   1.130   4.120  14.236 -0.1555 -0.3188 -0.0549
18447TIP3    H176756   1.072   4.063  14.286 -1.3327  0.1771 -0.7971
18447TIP3    H276757   1.085   4.131  14.152  0.7236  0.5964 -0.4215
18448TIP3   OH276758   5.703   5.179   3.611  0.9199 -0.6388  0.2398
18448TIP3    H176759   5.703   5.260   3.661  0.6635 -0.6461  0.2530
18448TIP3    H276760   5.774   5.190   3.547  0.5243 -0.1736 -0.1270
18449TIP3   OH276761   3.829   4.202  15.233  0.2511 -0.1207 -0.7877
18449TIP3    H176762   3.912   4.213  15.187  1.5951 -0.7111  1.3565
18449TIP3    H276763   3.828   4.110  15.260 -0.0750  0.3502  0.9814
18450TIP3   OH276764   4.408   3.724   0.556 -0.5205 -0.1061  0.3264
18450TIP3    H176765   4.444   3.636   0.545  0.0103 -0.0614  1.5201
18450TIP3    H276766   4.352   3.717   0.634 -0.1093  0.7133  0.6988
18451TIP3   OH276767   3.373   3.669  10.733  0.1544  0.2983  0.0989
18451TIP3    H176768   3.306   3.729  10.765  1.5219  1.5019  0.8122
18451TIP3    H276769   3.346   3.583  10.764 -0.0156  1.0442  2.1626
18452TIP3   OH276770   3.113   0.907   5.341 -0.1709  0.5586 -0.0492
18452TIP3    H176771   3.082   0.947   5.259  1.5626  1.0146 -0.5099
18452TIP3    H276772   3.106   0.978   5.405  1.1508  1.0961 -0.4599
18453TIP3   OH276773   4.188   2.907  16.838  0.0218 -0.6253  0.1274
18453TIP3    H176774   4.196   2.937  16.929  0.4331 -2.4189  0.7095
18453TIP3    H276775   4.278   2.904  16.806 -0.1338  0.1545 -0.4158
18454TIP3   OH276776   5.915   4.796  10.704 -0.1016 -0.0789 -0.3886
18454TIP3    H176777   5.988   4.838  10.751  0.5733 -4.3976  3.0582
18454TIP3    H276778   5.837   4.830  10.747  0.3203 -0.7390  0.9571
18455TIP3   OH276779   4.391   3.403   4.485 -0.0724  0.1500 -0.4060
18455TIP3    H176780   4.437   3.446   4.412 -0.3740  1.7131  0.2769
18455TIP3    H276781   4.303   3.386   4.450 -1.0990  3.2759  0.2753
18456TIP3   OH276782   2.133   2.402   0.467  0.3652  0.0292 -0.5164
18456TIP3    H176783   2.092   2.329   0.422  0.3183 -0.9819  1.0751
18456TIP3    H276784   2.226   2.380   0.468  0.7640  1.3881 -2.4505
18457TIP3   OH276785   4.401   5.207  16.380  0.1954  0.8040  0.1173
18457TIP3    H176786   4.374   5.204  16.289  0.4388 -0.4227  0.0708
18457TIP3    H276787   4.495   5.189  16.378  0.0349 -0.2136  0.6626
18458TIP3   OH276788   2.042   0.861   2.539 -0.4105 -0.3583 -0.3544
18458TIP3    H176789   1.996   0.831   2.617 -1.0919 -1.9324 -1.3111
18458TIP3    H276790   1.988   0.831   2.466  1.0414 -0.3869 -1.4789
18459TIP3   OH276791   3.151   1.721   2.848 -0.0849  0.1755  0.0870
18459TIP3    H176792   3.246   1.713   2.860 -0.1419 -0.1569  0.3236
18459TIP3    H276793   3.134   1.815   2.858  0.4352  0.4915 -1.6307
18460TIP3   OH276794   1.295   2.739   0.725 -0.2588  0.4624  0.3717
18460TIP3    H176795   1.238   2.691   0.665  0.4951 -3.7745  2.6180
18460TIP3    H276796   1.365   2.774   0.670 -0.0024 -2.5424 -1.4129
18461TIP3   OH276797   2.404   3.299   5.916 -0.1134 -0.1887 -0.1652
18461TIP3    H176798   2.392   3.301   6.011  0.3426 -1.0133 -0.0747
18461TIP3    H276799   2.386   3.208   5.892  2.3750 -0.6875 -0.4775
18462TIP3   OH276800   2.029   0.862  15.871 -0.1630  0.5702  0.3163
18462TIP3    H176801   2.105   0.828  15.824 -0.7074 -0.2661  0.0231
18462TIP3    H276802   2.030   0.956  15.852  0.3021  0.4340 -0.3932
18463TIP3   OH276803   0.176   0.120   6.022  0.1881 -0.1734 -0.0934
18463TIP3    H176804   0.104   0.157   5.972  1.2091 -1.1864 -2.4461
18463TIP3    H276805   0.152   0.028   6.035 -0.6492  0.3417  2.4926
18464TIP3   OH276806   6.030   6.201  11.955 -0.2918  0.2200  0.1992
18464TIP3    H176807   6.086   6.195  12.032 -1.0155  0.1106  0.7255
18464TIP3    H276808   6.091   6.212  11.882  0.3454  1.7237  0.9298
18465TIP3   OH276809   2.577   4.811  17.209 -0.0156 -0.0906  0.2951
18465TIP3    H176810   2.506   4.783  17.151  0.6496 -2.2349  0.4243
18465TIP3    H276811   2.587   4.740  17.272  2.3228  0.0656  0.2092
18466TIP3   OH276812   3.109   2.812  13.498 -0.7865 -0.1121  0.1220
18466TIP3    H176813   3.109   2.803  13.593  0.3283  0.5171  0.2073
18466TIP3    H276814   3.173   2.747  13.468 -2.1400 -1.2841 -0.3374
18467TIP3   OH276815   5.786   5.127  12.788  0.0128  0.2818 -0.2716
18467TIP3    H176816   5.841   5.168  12.722 -1.5664  3.6873  0.3095
18467TIP3    H276817   5.786   5.188  12.861 -3.5765 -0.0518  0.2061
18468TIP3   OH276818   3.759   0.542   1.709  0.7598  0.1408  0.0035
18468TIP3    H176819   3.672   0.578   1.728  0.2193  0.4354 -2.6088
18468TIP3    H276820   3.742   0.472   1.645  1.9794 -3.6232  3.3769
18469TIP3   OH276821   6.281   4.432   4.075  0.5014  0.2033  0.1556
18469TIP3    H176822   6.376   4.430   4.061  0.6895 -0.9303  1.3709
18469TIP3    H276823   6.260   4.524   4.087  1.6747  0.3565  1.2170
18470TIP3   OH276824   5.009   1.152  13.586 -0.2337 -0.1058  0.3132
18470TIP3    H176825   5.041   1.155  13.676 -0.3078 -0.8209  0.3696
18470TIP3    H276826   5.035   1.236  13.548  1.9483 -0.7078  0.2832
18471TIP3   OH276827   2.760   5.875  10.565 -0.8131 -0.1094 -0.4078
18471TIP3    H176828   2.824   5.814  10.530 -3.4811 -2.1624 -2.1555
18471TIP3    H276829   2.793   5.898  10.652  2.5242 -0.4474 -1.4561
18472TIP3   OH276830   4.619   2.111  12.000 -0.5288  0.5526 -0.0378
18472TIP3    H176831   4.603   2.118  12.094  0.7004  0.0179  0.2315
18472TIP3    H276832   4.602   2.020  11.979  0.6668  0.3024 -0.0119
18473TIP3   OH276833   0.150   5.374  14.423  0.1797  0.1422 -0.1476
18473TIP3    H176834   0.202   5.381  14.343  1.1328  1.2828  0.5276
18473TIP3    H276835   0.113   5.286  14.421  1.7008 -0.5050 -0.9373
18474TIP3   OH276836   3.756   2.921  14.205  0.4610  0.4978  0.4326
18474TIP3    H176837   3.797   2.837  14.225  0.4522  0.3970  0.0334
18474TIP3    H276838   3.793   2.981  14.269  1.9272  0.6060 -0.4535
18475TIP3   OH276839   0.684   1.011   3.869 -0.5316  0.1005 -0.3536
18475TIP3    H176840   0.744   1.001   3.943 -0.1526  0.1316 -0.6529
18475TIP3    H276841   0.739   1.000   3.792 -0.8112  0.6495 -0.6391
18476TIP3   OH276842   4.345   0.213   3.609 -0.5644 -0.0963  0.0326
18476TIP3    H176843   4.376   0.139   3.557 -0.6926 -0.2843  0.2225
18476TIP3    H276844   4.250   0.204   3.610 -0.5411 -0.3136  0.6146
18477TIP3   OH276845   1.237   6.458  12.389  0.3472  0.2944  0.0600
18477TIP3    H176846   1.172   6.516  12.348  0.0872  1.5398  2.0802
18477TIP3    H276847   1.187   6.380  12.414  0.1903  0.1785 -0.5882
18478TIP3   OH276848   5.849   5.749  16.715 -0.4367  0.4138 -0.6433
18478TIP3    H176849   5.795   5.827  16.721 -0.0759  0.5807  0.7774
18478TIP3    H276850   5.844   5.723  16.623 -2.6556  0.5914 -0.6124
18479TIP3   OH276851   3.846   2.595  14.515  0.1654  0.5176  0.0338
18479TIP3    H176852   3.781   2.553  14.570 -0.2678  1.2077  0.0566
18479TIP3    H276853   3.811   2.589  14.426 -0.0521  1.1075  0.0765
18480TIP3   OH276854   6.353   2.389  14.223 -0.2543  0.1425  0.0691
18480TIP3    H176855   6.330   2.361  14.135  1.6662 -0.8362 -0.1683
18480TIP3    H276856   6.269   2.396  14.269 -1.1567 -1.2579 -1.2841
18481TIP3   OH276857   0.587   0.327  15.868  0.3972 -0.0509 -0.2250
18481TIP3    H176858   0.645   0.265  15.913  0.9746 -0.2891 -1.2725
18481TIP3    H276859   0.635   0.410  15.868 -0.6568  0.6253  1.7781
18482TIP3   OH276860   4.413   1.052   1.982 -0.0940 -0.3032  0.1020
18482TIP3    H176861   4.452   0.965   1.986  0.0686 -0.1916  1.3655
18482TIP3    H276862   4.467   1.099   1.919  2.4297  0.1090  2.3805
18483TIP3   OH276863   0.219   6.479  12.119  0.2679 -0.1904 -0.3017
18483TIP3    H176864   0.267   6.535  12.058  0.2390 -1.1197 -1.2059
18483TIP3    H276865   0.244   6.390  12.094 -1.1986 -0.6596 -0.1891
18484TIP3   OH276866   5.920   5.289   3.380  0.0900  0.2035 -0.2169
18484TIP3    H176867   5.972   5.340   3.442  0.9615 -0.5274 -0.3236
18484TIP3    H276868   5.964   5.204   3.376 -0.0220  0.2031 -1.7555
18485TIP3   OH276869   6.283   5.425  15.267  0.2430 -0.1631 -0.4013
18485TIP3    H176870   6.365   5.448  15.222  1.1791 -1.0168  0.7920
18485TIP3    H276871   6.289   5.331  15.279 -0.8812 -0.2108 -0.1902
18486TIP3   OH276872   2.099   0.856  11.173  0.1722 -0.1860 -0.0491
18486TIP3    H176873   2.005   0.871  11.177  0.5177  2.0497  2.3766
18486TIP3    H276874   2.120   0.814  11.257  1.5142  0.9264  0.2131
18487TIP3   OH276875   5.361   6.299   3.181  0.2794 -0.0571 -0.7619
18487TIP3    H176876   5.298   6.305   3.109  1.1167  1.1294 -1.4267
18487TIP3    H276877   5.326   6.356   3.249 -0.8624 -1.6964  0.0973
18488TIP3   OH276878   1.656   0.414   2.942 -0.3340 -0.3125 -0.6509
18488TIP3    H176879   1.705   0.495   2.933 -0.4763 -0.3008 -1.3260
18488TIP3    H276880   1.695   0.354   2.879 -0.5111 -0.6368 -0.4619
18489TIP3   OH276881   2.463   4.348   4.453 -0.3750  0.4827  0.0295
18489TIP3    H176882   2.453   4.323   4.545 -1.2774 -1.2204 -0.4705
18489TIP3    H276883   2.523   4.422   4.454  0.1341  0.0987  1.9319
18490TIP3   OH276884   2.170   1.506  17.212 -0.6094 -0.2229 -0.1503
18490TIP3    H176885   2.187   1.587  17.163 -0.5133  0.3956  0.8660
18490TIP3    H276886   2.190   1.529  17.303  1.3831 -1.9870 -0.0913
18491TIP3   OH276887   1.804   5.398  15.421  0.0962 -0.3000 -0.1860
18491TIP3    H176888   1.773   5.488  15.430 -0.6271 -0.4851 -0.7175
18491TIP3    H276889   1.876   5.391  15.483 -0.6924  0.2635  0.8238
18492TIP3   OH276890   4.220   2.447   5.297 -0.9774  0.0872  0.1264
18492TIP3    H176891   4.138   2.476   5.336 -1.3333 -1.2483  0.4222
18492TIP3    H276892   4.288   2.488   5.350 -1.4388  1.1825 -0.1055
18493TIP3   OH276893   0.991   4.212   1.549 -0.2658 -0.8873  0.3909
18493TIP3    H176894   0.969   4.244   1.636 -1.8038 -1.3313  0.2011
18493TIP3    H276895   0.915   4.160   1.523  0.2009 -0.8392 -1.1811
18494TIP3   OH276896   2.243   1.038   3.879  0.1582 -0.2069 -0.1155
18494TIP3    H176897   2.325   1.045   3.830 -0.0213 -0.8330 -0.5111
18494TIP3    H276898   2.266   1.067   3.967  0.4873  0.9000 -0.5497
18495TIP3   OH276899   3.198   4.168   1.716 -0.3463  0.0763  0.2937
18495TIP3    H176900   3.147   4.157   1.796 -1.1450  0.5161 -0.1519
18495TIP3    H276901   3.134   4.169   1.646  0.2610  0.7935 -0.2655
18496TIP3   OH276902   4.249   3.094  17.032 -0.0368 -0.1783 -0.3331
18496TIP3    H176903   4.257   3.063  17.122 -2.1329 -1.3697 -0.4860
18496TIP3    H276904   4.211   3.181  17.040 -0.5976 -0.4427 -0.0468
18497TIP3   OH276905   5.480   0.990  13.274 -0.0979 -0.3390  0.0399
18497TIP3    H176906   5.498   0.926  13.344  0.0262 -1.8666 -1.3298
18497TIP3    H276907   5.478   1.074  13.319  0.9328 -1.1648  1.7425
18498TIP3   OH276908   5.043   6.555   3.032 -0.1434 -0.3631 -0.7596
18498TIP3    H176909   5.021   6.566   3.124  1.3232  1.5283 -0.5648
18498TIP3    H276910   5.084   6.469   3.027  0.1047 -0.3309  0.4494
18499TIP3   OH276911   6.293   6.349  12.901 -0.0106 -0.7450 -0.2828
18499TIP3    H176912   6.364   6.346  12.966 -0.7417 -1.1867  0.5284
18499TIP3    H276913   6.334   6.385  12.822  0.3908  2.2057  1.1122
18500TIP3   OH276914   2.539   0.617  13.858  0.3739 -0.8349 -0.3700
18500TIP3    H176915   2.491   0.657  13.930 -0.1771 -0.2694 -1.0391
18500TIP3    H276916   2.585   0.543  13.898  0.7341 -0.0463  0.7146
18501TIP3   OH276917   2.730   5.935  17.111 -0.4451  0.1755  0.1232
18501TIP3    H176918   2.693   5.847  17.107 -0.0532 -0.0091  0.4228
18501TIP3    H276919   2.660   5.992  17.082  0.2577 -0.4633 -3.1836
18502TIP3   OH276920   4.334   0.109  15.469 -0.1922  0.0064 -0.0684
18502TIP3    H176921   4.339   0.070  15.382  0.9786 -0.1095  0.0259
18502TIP3    H276922   4.248   0.150  15.473  0.6016  2.1117 -2.1941
18503TIP3   OH276923   6.387   2.856   6.023 -0.3132 -0.1244  0.2749
18503TIP3    H176924   6.383   2.924   6.090  0.3461 -1.0135  1.2406
18503TIP3    H276925   6.472   2.870   5.981  0.4709 -1.2275  1.4485
18504TIP3   OH276926   5.769   2.654   5.804  0.3714  0.0408  0.2868
18504TIP3    H176927   5.696   2.681   5.748  0.3176 -0.7551 -0.0512
18504TIP3    H276928   5.843   2.645   5.744  0.7094  0.6944  0.6047
18505TIP3   OH276929   4.939   6.638   4.823 -0.5036 -0.8953 -0.2461
18505TIP3    H176930   4.905   6.554   4.792  0.2498 -1.5064  0.5644
18505TIP3    H276931   4.906   6.647   4.912 -0.5066 -0.3676 -0.2932
18506TIP3   OH276932   6.182   6.609   2.461 -0.7589 -0.0544  0.6893
18506TIP3    H176933   6.088   6.592   2.458 -0.5450 -1.3573 -1.6834
18506TIP3    H276934   6.192   6.693   2.417 -0.8074  0.1770  1.1124
18507TIP3   OH276935   0.533   5.465   1.068 -0.2309 -0.2778  0.1459
18507TIP3    H176936   0.586   5.482   0.990 -0.6458 -1.3197 -0.3820
18507TIP3    H276937   0.585   5.402   1.119 -1.2547 -1.9385 -0.7613
18508TIP3   OH276938   5.342   3.950   2.878  0.2024  0.5168 -0.1676
18508TIP3    H176939   5.413   3.889   2.858 -0.3471 -1.3532  2.9046
18508TIP3    H276940   5.273   3.928   2.815  1.2852  0.4608 -1.3831
18509TIP3   OH276941   6.072   4.121   5.129 -0.4295 -0.0270 -0.7895
18509TIP3    H176942   6.144   4.094   5.071 -1.3247 -0.7734 -1.6025
18509TIP3    H276943   6.053   4.043   5.181 -0.1544  0.4027 -0.0323
18510TIP3   OH276944   4.117   4.164   1.568  0.1878 -0.5625 -0.1771
18510TIP3    H176945   4.052   4.227   1.598 -0.5973 -1.0651 -0.7762
18510TIP3    H276946   4.067   4.102   1.515  1.0010 -1.4924  0.1224
18511TIP3   OH276947   5.230   6.413   3.797 -0.7289 -0.1639 -0.1191
18511TIP3    H176948   5.158   6.476   3.799  1.0077  2.0126 -1.4546
18511TIP3    H276949   5.214   6.361   3.718 -0.0438  1.4457 -1.3901
18512TIP3   OH276950   1.142   0.554  12.086  1.2954  0.3586 -0.5914
18512TIP3    H176951   1.224   0.599  12.104  1.9671 -0.7352 -0.8003
18512TIP3    H276952   1.077   0.599  12.140  1.9836  1.3701 -0.5786
18513TIP3   OH276953   6.683   6.702  14.898  0.4870 -0.0995  0.0928
18513TIP3    H176954   6.699   6.781  14.847 -0.1574  0.5831  0.9184
18513TIP3    H276955   6.595   6.675  14.873  0.8887 -0.8655 -0.5617
18514TIP3   OH276956   4.805   0.504   4.989 -0.2076 -0.2278  0.2814
18514TIP3    H176957   4.841   0.481   5.075  2.0852  0.2020 -0.4891
18514TIP3    H276958   4.854   0.449   4.927 -2.2570 -1.0058 -0.7654
18515TIP3   OH276959   4.410   1.807  11.642  0.2229 -0.2467 -0.0530
18515TIP3    H176960   4.330   1.814  11.589  1.8762  0.3054 -2.6393
18515TIP3    H276961   4.395   1.730  11.697 -1.3401 -1.3438 -1.8817
18516TIP3   OH276962   4.732   3.460   1.732  0.1533  0.1608 -0.2856
18516TIP3    H176963   4.724   3.553   1.754  1.7003  0.3195 -0.3066
18516TIP3    H276964   4.740   3.459   1.636 -0.6431 -0.0702 -0.3578
18517TIP3   OH276965   3.464   2.038  16.487  0.0918  0.1765  0.3651
18517TIP3    H176966   3.491   1.946  16.479 -1.9530 -0.3647 -1.1164
18517TIP3    H276967   3.402   2.038  16.560 -0.0661  0.3160  0.2332
18518TIP3   OH276968   1.450   2.772  12.921 -0.0591  0.2046 -0.8672
18518TIP3    H176969   1.533   2.812  12.896 -0.3922  0.8096 -1.0129
18518TIP3    H276970   1.437   2.798  13.012  0.1571 -0.3132 -0.6850
18519TIP3   OH276971   5.488   0.705   0.856 -0.1876 -0.7362 -0.3177
18519TIP3    H176972   5.519   0.793   0.832  0.7686 -1.0702 -0.3669
18519TIP3    H276973   5.408   0.693   0.805 -0.9104  0.5014  0.4643
18520TIP3   OH276974   2.065   0.040   3.713 -0.0807  0.1839  0.0523
18520TIP3    H176975   2.067   0.103   3.785 -0.5740  0.7399 -0.4171
18520TIP3    H276976   2.157   0.019   3.697  0.1198  1.1677 -0.1163
18521TIP3   OH276977   2.005   5.336   4.504  0.4318 -0.1788 -0.3316
18521TIP3    H176978   2.071   5.348   4.436  0.3730  1.0154 -0.2052
18521TIP3    H276979   1.954   5.260   4.476  1.1264 -0.3918 -1.0278
18522TIP3   OH276980   5.190   6.647  13.886  0.2365 -0.1741 -0.4321
18522TIP3    H176981   5.117   6.604  13.930  1.0364  0.7408  1.9867
18522TIP3    H276982   5.263   6.586  13.894  0.8143  0.6683  1.0768
18523TIP3   OH276983   0.308   2.956  12.311  0.1511  0.3828 -0.2493
18523TIP3    H176984   0.227   2.925  12.271  0.2254 -0.8502  0.5094
18523TIP3    H276985   0.376   2.936  12.246 -0.0507  0.7440 -0.5749
18524TIP3   OH276986   2.156   2.370   5.280 -0.1793 -0.6399  0.0976
18524TIP3    H176987   2.082   2.380   5.219 -0.7632  2.0981  1.1125
18524TIP3    H276988   2.231   2.407   5.233 -0.2086 -0.2732  0.3401
18525TIP3   OH276989   1.502   3.179   5.247  0.5645  0.0925  0.0090
18525TIP3    H176990   1.431   3.233   5.211  0.8867  1.3580  1.1569
18525TIP3    H276991   1.476   3.089   5.227 -0.7060  0.5897 -0.7428
18526TIP3   OH276992   2.132   1.250  11.309 -0.3425  0.2532 -0.5528
18526TIP3    H176993   2.119   1.345  11.313 -1.7483  0.1687 -2.0633
18526TIP3    H276994   2.045   1.214  11.325 -0.0837 -0.7344 -1.2998
18527TIP3   OH276995   5.950   4.759   5.180 -0.0814  0.0924 -0.0047
18527TIP3    H176996   5.999   4.686   5.142 -1.4186  0.5917 -2.9937
18527TIP3    H276997   5.863   4.723   5.198 -0.6689  0.7946 -1.2498
18528TIP3   OH276998   4.539   4.581  14.343 -0.4940  0.7488 -0.2185
18528TIP3    H176999   4.517   4.495  14.308  2.2380  0.2527 -0.9141
18528TIP3    H277000   4.485   4.589  14.422 -2.2717 -0.6979 -1.1994
18529TIP3   OH277001   5.379   5.941  15.065  0.5361  0.1711 -0.0254
18529TIP3    H177002   5.321   6.006  15.104  1.8048  0.0541  2.2424
18529TIP3    H277003   5.393   5.972  14.976 -1.8769  0.9067 -0.2174
18530TIP3   OH277004   1.432   5.709  14.095  0.2194 -0.1495 -0.1070
18530TIP3    H177005   1.477   5.643  14.148  2.6309  0.2938 -1.4129
18530TIP3    H277006   1.392   5.768  14.158  0.3493 -1.3254  1.1288
18531TIP3   OH277007   1.691   4.131  16.744 -0.1210  0.5799  0.1776
18531TIP3    H177008   1.738   4.071  16.802  1.0703 -0.4757 -1.7637
18531TIP3    H277009   1.600   4.101  16.747  0.1265 -0.1694  0.6105
18532TIP3   OH277010   2.950   4.190   4.474  0.3797  0.3469  0.1787
18532TIP3    H177011   2.898   4.244   4.534  0.5355  0.2212  0.4315
18532TIP3    H277012   2.995   4.128   4.532  2.9581  2.1750  0.2640
18533TIP3   OH277013   3.384   1.855   3.611 -0.7484 -0.4797 -0.2373
18533TIP3    H177014   3.474   1.882   3.591 -0.5559 -0.2590  0.8356
18533TIP3    H277015   3.336   1.868   3.529 -0.3158  1.6887 -0.2295
18534TIP3   OH277016   4.555   5.341  13.850  0.7512  0.0923 -0.6325
18534TIP3    H177017   4.543   5.428  13.888  0.8135 -1.0498  2.3161
18534TIP3    H277018   4.614   5.355  13.776 -1.2679  2.8355 -1.9179
18535TIP3   OH277019   4.091   1.030   2.661 -0.3859 -0.6917  0.1147
18535TIP3    H177020   4.017   0.970   2.658  1.0322 -2.8692  2.8881
18535TIP3    H277021   4.151   0.990   2.724  1.0615  3.2861  1.5913
18536TIP3   OH277022   0.680   4.172  16.680 -0.1349  1.0311  0.1460
18536TIP3    H177023   0.676   4.198  16.588 -0.4938  0.0466 -0.1328
18536TIP3    H277024   0.591   4.143  16.700  0.5607 -1.5210 -0.0589
18537TIP3   OH277025   4.613   5.488   3.534 -0.2082  0.2530  0.3990
18537TIP3    H177026   4.520   5.509   3.522 -0.1522 -0.1788 -1.0470
18537TIP3    H277027   4.626   5.489   3.629 -1.7566  0.0081  0.6442
18538TIP3   OH277028   4.163   1.389  13.124 -0.1731 -0.1805 -0.0750
18538TIP3    H177029   4.080   1.414  13.165  1.0175  0.4092  2.1741
18538TIP3    H277030   4.184   1.463  13.067 -0.6888  0.1447  0.1429
18539TIP3   OH277031   3.074   1.473  13.642  0.0133  0.0266  0.1710
18539TIP3    H177032   3.027   1.485  13.724  1.8885  0.1492  1.3013
18539TIP3    H277033   3.105   1.561  13.619 -2.1121  0.3527 -1.7720
18540TIP3   OH277034   4.955   3.470   2.970 -0.5271  0.2210  0.0523
18540TIP3    H177035   5.020   3.446   2.903  0.3091  1.4712  0.3789
18540TIP3    H277036   4.871   3.465   2.924 -0.3471 -2.3060 -0.1462
18541TIP3   OH277037   2.875   0.120   2.596  0.2681 -0.1794  0.1386
18541TIP3    H177038   2.893   0.057   2.666  0.4997  0.5502  0.7501
18541TIP3    H277039   2.803   0.082   2.547  0.6805 -1.1234  0.2433
18542TIP3   OH277040   2.668   2.680  12.703  0.0902  0.1716 -0.3902
18542TIP3    H177041   2.713   2.608  12.749  0.4190  1.7649  1.9378
18542TIP3    H277042   2.578   2.674  12.733 -0.8259 -1.4259 -3.0725
18543TIP3   OH277043   0.851   0.073   5.798 -0.6473  0.2441  0.4854
18543TIP3    H177044   0.883   0.163   5.790 -2.5447  1.3603  3.6888
18543TIP3    H277045   0.759   0.082   5.822 -1.7311 -2.7023 -1.8834
18544TIP3   OH277046   1.039   6.543   2.612 -0.0449  0.5950 -0.0790
18544TIP3    H177047   1.038   6.618   2.671 -0.9226 -0.2961  1.1103
18544TIP3    H277048   1.046   6.580   2.525 -2.0058  2.1571  0.3489
18545TIP3   OH277049   4.516   5.364   6.532  0.5506  0.1337  0.3863
18545TIP3    H177050   4.526   5.274   6.503  0.9242  0.5076 -0.6993
18545TIP3    H277051   4.446   5.361   6.598  0.3958 -0.8953  0.1889
18546TIP3   OH277052   3.800   5.162  15.601 -0.5184 -0.5706 -0.0353
18546TIP3    H177053   3.794   5.192  15.692 -0.0327 -0.0423 -0.1760
18546TIP3    H277054   3.779   5.069  15.606  1.7631 -1.1013  0.9714
18547TIP3   OH277055   6.491   6.662  13.020 -0.6875  0.1559 -0.1708
18547TIP3    H177056   6.577   6.675  12.980 -0.5276 -0.5794 -0.0840
18547TIP3    H277057   6.478   6.567  13.018 -0.9765  0.1614  0.8821
18548TIP3   OH277058   1.743   5.004  15.216  0.4100  0.5086 -0.7070
18548TIP3    H177059   1.818   4.993  15.273 -0.2071 -0.3523 -0.0329
18548TIP3    H277060   1.703   5.087  15.243 -0.4679 -0.3685  0.8629
18549TIP3   OH277061   5.095   4.780   2.526 -0.1723  0.3156 -0.7698
18549TIP3    H177062   5.119   4.866   2.493 -0.6219  0.7593  0.0152
18549TIP3    H277063   5.029   4.798   2.593 -0.1463 -0.6275 -0.4739
18550TIP3   OH277064   6.255   3.424  11.605 -0.2542 -0.5147 -0.4456
18550TIP3    H177065   6.177   3.447  11.656 -1.0778  0.4225 -2.0515
18550TIP3    H277066   6.312   3.378  11.668 -1.4739  0.0275  1.1321
18551TIP3   OH277067   6.602   1.637  17.069 -0.5965 -0.4440 -0.5282
18551TIP3    H177068   6.526   1.581  17.082  0.0686 -1.2370 -0.0252
18551TIP3    H277069   6.637   1.651  17.156 -0.6618  0.6479 -0.6624
18552TIP3   OH277070   6.401   4.910  13.400  0.1683  0.1419 -1.1077
18552TIP3    H177071   6.307   4.921  13.416 -0.1622 -0.0456 -2.7389
18552TIP3    H277072   6.416   4.951  13.315  1.6518  0.4925 -0.7091
18553TIP3   OH277073   4.090   1.040  17.221  0.2761  0.4323 -0.7343
18553TIP3    H177074   4.098   1.116  17.164 -0.7497  1.4942  0.4680
18553TIP3    H277075   3.999   1.013  17.213  0.2195  0.3510  0.0935
18554TIP3   OH277076   2.725   3.870   0.928  0.0936 -0.5804 -0.4610
18554TIP3    H177077   2.728   3.774   0.928 -1.1362 -0.6408  0.1130
18554TIP3    H277078   2.798   3.896   0.872  0.1804 -1.8599 -0.9856
18555TIP3   OH277079   0.346   4.936  14.915 -0.6190 -0.0917  0.0937
18555TIP3    H177080   0.309   4.992  14.847 -0.8201 -0.6760 -0.2881
18555TIP3    H277081   0.430   4.977  14.938 -0.0468 -0.4605 -1.2584
18556TIP3   OH277082   0.905   5.873   2.672 -0.1171  1.2461 -0.0390
18556TIP3    H177083   0.887   5.939   2.605 -0.9534  0.9828 -0.0879
18556TIP3    H277084   0.933   5.923   2.749  1.1048  1.5369 -0.6518
18557TIP3   OH277085   2.749   5.188   0.812  0.5141 -0.4088 -0.1447
18557TIP3    H177086   2.711   5.141   0.886  1.8922 -2.1660 -0.4739
18557TIP3    H277087   2.747   5.125   0.740 -1.2829  1.4250 -1.8252
18558TIP3   OH277088   3.365   0.231  13.277  0.1714 -0.4266 -0.5377
18558TIP3    H177089   3.399   0.308  13.232  0.6083  0.2196  0.8467
18558TIP3    H277090   3.432   0.211  13.343 -1.1254 -0.4116  0.8410
18559TIP3   OH277091   1.450   5.729   0.704  0.0075 -0.5560  0.1731
18559TIP3    H177092   1.460   5.651   0.759 -1.6818 -0.0509  1.2758
18559TIP3    H277093   1.518   5.789   0.734 -1.6697  0.2203  2.7337
18560TIP3   OH277094   0.924   0.395  16.014 -0.1748 -0.1791 -0.3967
18560TIP3    H177095   0.918   0.300  16.027 -0.9051 -0.0681  0.1496
18560TIP3    H277096   0.892   0.409  15.926 -1.0950 -0.3439 -0.0989
18561TIP3   OH277097   6.630   6.624  15.871 -0.2417  0.2581 -0.1788
18561TIP3    H177098   6.660   6.592  15.786  1.1652  0.2421  0.3090
18561TIP3    H277099   6.624   6.719  15.861  1.9712  0.4920  0.2846
18562TIP3   OH277100   4.725   6.472  14.579  0.4363  0.2097  0.0812
18562TIP3    H177101   4.694   6.428  14.500 -2.0994 -0.1277  1.1593
18562TIP3    H277102   4.682   6.425  14.651 -0.3804  2.7934  1.4251
18563TIP3   OH277103   0.538   3.243   4.758  0.2237  0.0388  0.0527
18563TIP3    H177104   0.580   3.213   4.839  0.6805  0.1545 -0.1358
18563TIP3    H277105   0.447   3.256   4.782  0.2380 -0.4706  0.4086
18564TIP3   OH277106   0.639   6.180   1.432  0.0614 -0.5979  0.0759
18564TIP3    H177107   0.608   6.106   1.484 -0.7819  0.1588  0.6688
18564TIP3    H277108   0.637   6.255   1.491  0.5931 -0.0255 -0.6051
18565TIP3   OH277109   3.109   2.458   3.938 -0.1163  0.4641  0.0196
18565TIP3    H177110   3.073   2.538   3.975  0.3079  0.5545  0.2449
18565TIP3    H277111   3.111   2.397   4.012  0.5334  0.5760  0.0927
18566TIP3   OH277112   5.000   6.271  14.469 -0.2415 -0.2246 -0.6107
18566TIP3    H177113   4.994   6.176  14.475 -0.9520 -0.2117 -0.9527
18566TIP3    H277114   4.991   6.289  14.375  0.1434  0.1622 -0.5735
18567TIP3   OH277115   2.722   1.927   4.083 -0.0402 -0.1299  0.0971
18567TIP3    H177116   2.680   1.998   4.131  1.2927  0.8949 -0.1837
18567TIP3    H277117   2.778   1.971   4.019 -0.2694 -1.4559 -1.0688
18568TIP3   OH277118   1.880   1.045   1.838 -0.3972 -0.3302  0.0280
18568TIP3    H177119   1.811   1.110   1.822 -2.2158 -1.9825  0.8261
18568TIP3    H277120   1.919   1.072   1.921 -0.0821  0.5689 -0.3877
18569TIP3   OH277121   5.684   6.498  16.442  0.4840  0.0279  0.0267
18569TIP3    H177122   5.710   6.577  16.394  0.3911  0.3987  0.5732
18569TIP3    H277123   5.722   6.426  16.392 -1.0707  0.2681 -1.5647
18570TIP3   OH277124   0.415   5.832   0.819 -0.5326  0.2545  0.6711
18570TIP3    H177125   0.481   5.829   0.888  0.3482 -0.3802 -0.1831
18570TIP3    H277126   0.358   5.757   0.839  1.3055 -1.6468 -0.7903
18571TIP3   OH277127   3.015   1.465   5.085  0.2004 -0.2900  0.5692
18571TIP3    H177128   3.026   1.382   5.038 -0.6835 -0.1211  0.0244
18571TIP3    H277129   3.025   1.443   5.177 -1.6346 -1.3385  0.5706
18572TIP3   OH277130   0.727   4.722   5.869  0.0779 -0.1147 -0.0652
18572TIP3    H177131   0.719   4.682   5.955 -2.8297 -1.1414 -0.7284
18572TIP3    H277132   0.691   4.810   5.880  0.2385 -0.0388 -0.1341
18573TIP3   OH277133   4.847   4.617  14.856 -0.4632 -0.0600  0.0481
18573TIP3    H177134   4.785   4.578  14.918 -1.1624 -0.6806 -1.0274
18573TIP3    H277135   4.811   4.598  14.770  0.4188  0.9339 -0.5672
18574TIP3   OH277136   2.329   2.355   4.952 -0.2897  0.3907  0.4749
18574TIP3    H177137   2.402   2.304   4.918  1.0828  0.2103  3.3423
18574TIP3    H277138   2.251   2.311   4.919  0.7375  1.2840 -3.6948
18575TIP3   OH277139   4.093   4.581   4.654  0.4267 -0.4793  0.7252
18575TIP3    H177140   4.159   4.512   4.657 -0.8697 -1.8470 -0.4989
18575TIP3    H277141   4.057   4.576   4.566 -0.5778  0.9442  1.0210
18576TIP3   OH277142   5.008   5.922  10.634  0.3904 -0.0375 -0.1781
18576TIP3    H177143   4.977   5.975  10.561  1.3698  0.5513 -0.1801
18576TIP3    H277144   5.020   5.984  10.706  1.8711 -0.1732 -0.2778
18577TIP3   OH277145   5.523   2.206   3.242 -0.1614  0.5326  0.0376
18577TIP3    H177146   5.446   2.255   3.213 -0.3522  0.1997 -0.0341
18577TIP3    H277147   5.589   2.272   3.260 -0.5113  0.8321  0.2344
18578TIP3   OH277148   6.629   5.366  15.664 -0.4994 -0.1051 -0.7082
18578TIP3    H177149   6.656   5.288  15.712  1.0952 -0.4137 -2.0112
18578TIP3    H277150   6.569   5.411  15.723  1.9472 -0.0307  1.9200
18579TIP3   OH277151   3.406   5.836  16.051 -0.8926  0.1908  0.2070
18579TIP3    H177152   3.350   5.895  16.002  1.7356  2.1270 -0.7379
18579TIP3    H277153   3.405   5.870  16.141 -2.1930 -0.5920  0.5063
18580TIP3   OH277154   1.006   5.649   1.540  0.0245 -0.2445 -0.2487
18580TIP3    H177155   1.012   5.716   1.608  0.1221  0.2275 -0.7077
18580TIP3    H277156   1.093   5.650   1.499  0.0226 -0.6504 -0.2612
18581TIP3   OH277157   1.365   2.977  14.380 -0.3290 -0.2998  0.6861
18581TIP3    H177158   1.452   2.939  14.391  0.0979  0.5157  0.2575
18581TIP3    H277159   1.307   2.902  14.370  0.5098 -0.8516 -0.2922
18582TIP3   OH277160   3.165   1.272  11.364 -0.0651  0.1526  0.4469
18582TIP3    H177161   3.226   1.324  11.415  0.2882 -0.1538  0.3427
18582TIP3    H277162   3.200   1.183  11.369  0.1400  0.1713 -0.5814
18583TIP3   OH277163   2.980   6.014  15.518 -0.1043 -0.2519  0.6542
18583TIP3    H177164   2.905   6.017  15.578 -0.9607  0.2829 -0.4187
18583TIP3    H277165   2.951   5.958  15.446 -0.4225  1.9342 -0.9876
18584TIP3   OH277166   4.380   4.707   6.023 -0.1814 -0.2365  0.4539
18584TIP3    H177167   4.458   4.653   6.038  0.0095 -1.4108 -3.6553
18584TIP3    H277168   4.307   4.645   6.031 -0.2602 -0.2932 -0.6239
18585TIP3   OH277169   3.771   5.602   1.496 -0.6673  0.4520 -0.4319
18585TIP3    H177170   3.700   5.548   1.532 -1.5046  1.7393 -0.0909
18585TIP3    H277171   3.843   5.591   1.558 -0.2076 -1.5553 -1.2286
18586TIP3   OH277172   4.688   1.266   4.581 -0.2669 -0.5191 -0.0522
18586TIP3    H177173   4.752   1.328   4.545 -0.7067 -0.5533 -0.9181
18586TIP3    H277174   4.650   1.223   4.504  0.6039 -2.4751  0.5524
18587TIP3   OH277175   0.314   0.091  15.753 -0.2163 -0.1518 -0.1024
18587TIP3    H177176   0.306   0.026  15.683  2.4734  1.8138 -2.4249
18587TIP3    H277177   0.357   0.044  15.825  0.3941 -1.2928 -1.1773
18588TIP3   OH277178   1.586   5.559   1.919  0.2928  0.3349  0.3087
18588TIP3    H177179   1.673   5.573   1.882 -0.9483  0.2008 -3.0379
18588TIP3    H277180   1.563   5.643   1.959  1.0193  1.2321 -1.0610
18589TIP3   OH277181   6.484   3.756   1.195  0.5640 -0.2071 -0.0553
18589TIP3    H177182   6.486   3.805   1.113 -2.1797 -0.3833 -0.3091
18589TIP3    H277183   6.497   3.665   1.169  1.0223 -0.1246 -0.1248
18590TIP3   OH277184   3.441   0.424   0.386  0.2944 -0.1506  1.0578
18590TIP3    H177185   3.385   0.347   0.391  0.0472 -0.0593 -0.0461
18590TIP3    H277186   3.381   0.495   0.360  1.2787 -0.6202 -3.3252
18591TIP3   OH277187   6.571   5.775  17.020 -0.1911 -0.0578 -0.0194
18591TIP3    H177188   6.482   5.800  17.043 -0.3835 -1.2209  0.5649
18591TIP3    H277189   6.569   5.679  17.015  1.2992 -0.1834  1.1844
18592TIP3   OH277190   0.371   5.621   3.161 -0.1743  0.2802  0.1977
18592TIP3    H177191   0.391   5.528   3.172 -0.5977  0.3248  1.4881
18592TIP3    H277192   0.452   5.660   3.128  0.1298 -0.4785  0.0453
18593TIP3   OH277193   0.373   6.041   4.579  0.2153 -0.2888  0.4310
18593TIP3    H177194   0.357   6.032   4.485 -0.2263  2.4310  0.1546
18593TIP3    H277195   0.354   5.954   4.615  1.8045 -1.8341 -2.1302
18594TIP3   OH277196   2.826   3.150  12.921 -0.4342  0.3448  0.2628
18594TIP3    H177197   2.895   3.162  12.987  1.1690 -0.8566 -1.1071
18594TIP3    H277198   2.862   3.084  12.861 -3.0167 -0.7309 -0.2297
18595TIP3   OH277199   4.261   6.465  15.201  0.0406  0.0795 -0.2083
18595TIP3    H177200   4.238   6.392  15.143 -2.1719  0.5189  0.0512
18595TIP3    H277201   4.238   6.434  15.288 -2.0326  1.4384 -0.2102
18596TIP3   OH277202   6.525   1.715  12.480 -0.2477 -0.6287 -0.6316
18596TIP3    H177203   6.477   1.658  12.540 -2.4626 -0.3912 -2.0771
18596TIP3    H277204   6.519   1.802  12.521  1.1364 -0.9862  0.4085
18597TIP3   OH277205   1.889   2.696   6.403  0.1059  0.1562  0.8233
18597TIP3    H177206   1.847   2.621   6.360 -2.0364  1.6798  0.0848
18597TIP3    H277207   1.964   2.717   6.348  0.9486 -1.5953  1.2217
18598TIP3   OH277208   4.967   0.765   0.726  0.1307 -0.1698 -0.3259
18598TIP3    H177209   4.886   0.808   0.701  0.1531 -0.5413 -1.0855
18598TIP3    H277210   4.996   0.720   0.646  2.2031  1.6899 -0.7273
18599TIP3   OH277211   3.492   5.259   0.621 -0.1010 -0.3599  0.4221
18599TIP3    H177212   3.479   5.321   0.549  0.9146 -0.3811  0.2036
18599TIP3    H277213   3.427   5.190   0.605 -0.8794  0.3688  0.3721
18600TIP3   OH277214   0.599   4.401  15.153  0.0915 -0.3639 -0.2931
18600TIP3    H177215   0.595   4.466  15.083  0.1306 -0.6610 -0.5752
18600TIP3    H277216   0.558   4.443  15.228 -1.4903 -0.6379 -0.9745
18601TIP3   OH277217   3.904   2.133  15.524 -0.3254 -0.8223  0.2056
18601TIP3    H177218   3.918   2.151  15.617  1.7737 -1.3647  0.0307
18601TIP3    H277219   3.896   2.220  15.484  1.6740 -0.4616  0.5086
18602TIP3   OH277220   5.353   1.355   3.198  0.9012  0.1301 -0.4090
18602TIP3    H177221   5.434   1.386   3.238  0.6809  1.4537 -0.9400
18602TIP3    H277222   5.359   1.383   3.107 -0.5074  0.9947 -0.2602
18603TIP3   OH277223   5.879   0.323  10.856 -0.3213 -0.2896  0.0982
18603TIP3    H177224   5.826   0.244  10.871 -2.0469  0.9039  0.5965
18603TIP3    H277225   5.959   0.291  10.814 -0.9216 -2.3089  0.3926
18604TIP3   OH277226   4.380   3.250   0.355 -0.2233  0.0982  0.1335
18604TIP3    H177227   4.375   3.157   0.336 -3.2285 -0.2941  2.0202
18604TIP3    H277228   4.469   3.276   0.332  0.3450 -2.9364 -1.5490
18605TIP3   OH277229   3.096   5.012   3.656  0.0177  0.0866 -0.2857
18605TIP3    H177230   3.130   4.944   3.597  1.6281 -0.6141  1.3558
18605TIP3    H277231   3.172   5.067   3.675 -0.5160  0.4179  0.9577
18606TIP3   OH277232   4.980   1.554   4.435 -0.0119 -0.9190  0.1653
18606TIP3    H177233   4.995   1.494   4.508  1.6086  1.0502  1.5748
18606TIP3    H277234   5.048   1.533   4.372  2.3770  1.0486  1.8673
18607TIP3   OH277235   1.568   2.008   0.420  0.3533  0.3601  0.2712
18607TIP3    H177236   1.615   2.066   0.481  1.6615  1.8795 -2.0543
18607TIP3    H277237   1.636   1.954   0.381 -0.3584 -0.0945 -0.3662
18608TIP3   OH277238   3.035   6.536   6.498 -0.2908  0.1037 -0.0591
18608TIP3    H177239   3.066   6.451   6.466 -0.0971  0.7448 -1.6260
18608TIP3    H277240   3.088   6.552   6.577  1.4639 -0.1045 -1.1321
18609TIP3   OH277241   2.096   3.987   2.950  0.2168  0.0453 -0.3823
18609TIP3    H177242   2.040   4.065   2.955  0.7749  0.5566 -1.7778
18609TIP3    H277243   2.134   3.980   3.038 -1.4463  0.1064  0.3816
18610TIP3   OH277244   5.110   3.218  15.324 -0.4451  0.0420 -0.1282
18610TIP3    H177245   5.058   3.211  15.244  0.9849  0.6606 -1.1488
18610TIP3    H277246   5.073   3.151  15.382 -2.7978  0.8772 -0.5266
18611TIP3   OH277247   6.734   3.490  11.592 -0.2521  0.3588  0.1324
18611TIP3    H177248   6.721   3.584  11.601 -2.4033  0.1306 -0.0121
18611TIP3    H277249   6.660   3.460  11.539  0.1406 -1.4744  0.5306
18612TIP3   OH277250   2.126   5.066   4.431  0.0644 -0.1657 -0.4197
18612TIP3    H177251   2.048   5.017   4.455  0.6950 -1.8771 -1.5988
18612TIP3    H277252   2.199   5.014   4.466  0.7184  1.2372  0.4087
18613TIP3   OH277253   6.600   2.396  17.095  0.4848 -0.3950 -0.3275
18613TIP3    H177254   6.588   2.343  17.174 -0.0440 -0.8773 -0.7275
18613TIP3    H277255   6.576   2.485  17.122 -2.3507 -0.9960 -0.6320
18614TIP3   OH277256   5.638   3.728   3.622  0.5131 -0.4887 -0.2631
18614TIP3    H177257   5.689   3.729   3.704 -0.0042  1.0333  0.0660
18614TIP3    H277258   5.696   3.768   3.557 -0.3382  1.6887  0.2164
18615TIP3   OH277259   2.633   6.100  12.127  0.0669 -0.3135  0.2043
18615TIP3    H177260   2.554   6.100  12.072 -0.0543  1.2267  0.3383
18615TIP3    H277261   2.705   6.109  12.065 -0.0039  0.3924  0.2212
18616TIP3   OH277262   3.810   1.920  13.690 -0.6086 -0.1015  0.1653
18616TIP3    H177263   3.789   1.849  13.629 -0.6687  0.1339 -0.0883
18616TIP3    H277264   3.905   1.919  13.696 -0.2930  2.0305 -2.5758
18617TIP3   OH277265   3.683   0.218  14.512  0.1476  0.3998  0.0885
18617TIP3    H177266   3.741   0.154  14.553 -1.0180 -0.9319 -0.2563
18617TIP3    H277267   3.651   0.271  14.584  1.2725  0.7294  0.3637
18618TIP3   OH277268   6.269   0.622   4.498  0.8622 -0.4632  0.8106
18618TIP3    H177269   6.221   0.656   4.423  1.9358  0.3485  0.4738
18618TIP3    H277270   6.221   0.544   4.524 -1.3678  0.9573  1.2561
18619TIP3   OH277271   1.801   0.648   0.800 -0.5205  0.3945  0.1678
18619TIP3    H177272   1.794   0.625   0.892 -2.5375  1.9857  0.4990
18619TIP3    H277273   1.731   0.599   0.757 -0.5690  0.8223 -0.2499
18620TIP3   OH277274   4.716   2.361   5.076  1.1177  0.4917  0.2040
18620TIP3    H177275   4.673   2.324   4.998 -0.4363  1.6630  0.4621
18620TIP3    H277276   4.724   2.287   5.136 -0.0575  0.1116 -0.0804
18621TIP3   OH277277   5.663   5.907  17.052  0.4169 -0.1488 -0.2524
18621TIP3    H177278   5.657   5.964  17.129  0.9729 -0.0822 -0.2505
18621TIP3    H277279   5.746   5.861  17.064  1.0406  0.6547 -1.3472
18622TIP3   OH277280   5.391   4.341   2.039 -0.3550 -0.2707 -0.1796
18622TIP3    H177281   5.338   4.335   2.118  0.2374 -1.4718  0.1533
18622TIP3    H277282   5.334   4.307   1.970 -0.2848 -0.8620  0.0457
18623TIP3   OH277283   2.748   4.407  12.161  0.2885 -0.3916 -0.3477
18623TIP3    H177284   2.737   4.479  12.099 -1.3047 -0.6119 -0.3576
18623TIP3    H277285   2.843   4.393  12.164  0.5633  1.0523 -1.0754
18624TIP3   OH277286   4.594   1.564   6.292  0.4311 -0.1449  0.5306
18624TIP3    H177287   4.644   1.534   6.216 -0.7843 -1.2322  0.1133
18624TIP3    H277288   4.548   1.642   6.261  1.2630  0.4104  0.6832
18625TIP3   OH277289   2.560   3.662  15.099  0.4244 -0.3997  0.4245
18625TIP3    H177290   2.585   3.754  15.107 -2.1065  0.4633 -0.6757
18625TIP3    H277291   2.530   3.653  15.008 -0.4256 -2.0376  0.8355
18626TIP3   OH277292   2.992   0.858   4.403  0.4108  0.1912  0.4160
18626TIP3    H177293   3.026   0.771   4.423 -0.2182 -0.7574 -2.1994
18626TIP3    H277294   3.059   0.918   4.437  1.1824 -1.3081  1.6890
18627TIP3   OH277295   2.254   5.040  16.616  0.7922  0.1920 -0.1189
18627TIP3    H177296   2.301   5.102  16.559 -1.2693  1.9582  0.0058
18627TIP3    H277297   2.225   4.970  16.557  1.2080  0.4826 -0.6754
18628TIP3   OH277298   3.193   5.785  16.838  0.2600  0.0583  0.2279
18628TIP3    H177299   3.129   5.728  16.880  0.2852  0.7818  1.2707
18628TIP3    H277300   3.153   5.872  16.842  1.0390  0.4163  0.3261
18629TIP3   OH277301   4.229   4.684  15.207 -0.0144  0.0429 -0.2706
18629TIP3    H177302   4.284   4.664  15.131 -1.4330  2.9004 -2.2333
18629TIP3    H277303   4.287   4.735  15.264  0.7527 -1.2137  0.1127
18630TIP3   OH277304   0.291   2.564  16.439  0.9638  0.8196  0.1937
18630TIP3    H177305   0.266   2.637  16.381 -2.1602  1.7492  2.4295
18630TIP3    H277306   0.247   2.583  16.521  1.6970 -2.6313  1.5435
18631TIP3   OH277307   0.418   1.757   3.764  0.1868  0.3799  0.0207
18631TIP3    H177308   0.383   1.793   3.683  0.4389 -1.1109 -0.7900
18631TIP3    H277309   0.345   1.759   3.825 -0.4278  0.2014 -0.6968
18632TIP3   OH277310   3.788   0.946   1.583 -0.6166 -0.1164 -0.0907
18632TIP3    H177311   3.860   0.884   1.568 -1.2574 -0.5379 -1.5779
18632TIP3    H277312   3.733   0.902   1.648 -0.3932 -0.5259 -0.1749
18633TIP3   OH277313   5.096   3.688   2.470 -0.1252  0.2829  0.1485
18633TIP3    H177314   5.034   3.751   2.434 -0.3707 -0.7508 -1.3273
18633TIP3    H277315   5.040   3.621   2.511  0.0715  0.1998  0.2795
18634TIP3   OH277316   2.736   1.394  12.499  0.5520 -0.3560  0.1059
18634TIP3    H177317   2.718   1.486  12.519  1.0402 -0.4622  1.1073
18634TIP3    H277318   2.832   1.388  12.496  0.5175 -0.7182 -0.5430
18635TIP3   OH277319   1.405   0.858  12.720 -0.0739  0.4338  0.3464
18635TIP3    H177320   1.351   0.839  12.643 -0.4027  1.1124  0.4012
18635TIP3    H277321   1.483   0.805  12.708 -0.0731  0.6116 -0.5134
18636TIP3   OH277322   0.207   3.800  14.851  0.2371 -0.5570 -0.4123
18636TIP3    H177323   0.231   3.814  14.943  0.3987  0.3239 -0.5809
18636TIP3    H277324   0.186   3.707  14.846  1.1987 -0.8313  0.3022
18637TIP3   OH277325   2.203   5.736  12.848 -0.3453 -0.6744 -0.1250
18637TIP3    H177326   2.118   5.699  12.870 -0.6482  0.4767  0.7326
18637TIP3    H277327   2.240   5.764  12.932  2.1911 -3.7577 -0.0445
18638TIP3   OH277328   0.567   0.036  16.594 -0.0954  0.2714 -0.0799
18638TIP3    H177329   0.617  -0.042  16.617 -1.3181 -0.6112 -0.3606
18638TIP3    H277330   0.537   0.020  16.505 -0.1228  1.1929 -0.2430
18639TIP3   OH277331   0.790   4.132   3.195  0.0004  0.5495  0.2759
18639TIP3    H177332   0.810   4.057   3.250 -0.9969  0.0371 -0.0314
18639TIP3    H277333   0.722   4.100   3.135  1.7418  0.7787 -1.9220
18640TIP3   OH277334   5.451   1.099  12.853 -0.1010  0.0146 -0.6553
18640TIP3    H177335   5.405   1.087  12.770 -0.4306 -0.2942 -0.4312
18640TIP3    H277336   5.475   1.010  12.880  0.9834  0.1902 -0.9614
18641TIP3   OH277337   3.553   3.293  14.369 -0.2572 -0.5126  0.7415
18641TIP3    H177338   3.513   3.330  14.447 -2.9633 -0.4512 -0.5461
18641TIP3    H277339   3.490   3.310  14.299  1.7973 -1.0321 -1.3712
18642TIP3   OH277340   0.714   0.224   1.591 -0.2202  0.5492 -0.0602
18642TIP3    H177341   0.681   0.152   1.538 -0.9900  1.0870 -0.3200
18642TIP3    H277342   0.729   0.295   1.529 -2.7738  1.7776  0.6025
18643TIP3   OH277343   1.156   3.728  12.489 -0.1957  0.4159 -0.2935
18643TIP3    H177344   1.216   3.661  12.520 -1.1198 -1.3055 -2.0272
18643TIP3    H277345   1.191   3.756  12.405 -1.5717 -0.3834 -1.1787
18644TIP3   OH277346   0.925   5.078   2.361 -0.4249  0.3572 -0.0156
18644TIP3    H177347   0.856   5.015   2.339  2.2364 -2.7449 -0.2029
18644TIP3    H277348   0.973   5.090   2.279  0.5770  0.6623  0.6036
18645TIP3   OH277349   1.599   2.005   3.951  0.2345  0.3136 -0.5714
18645TIP3    H177350   1.581   2.098   3.935  2.5293  1.1773  1.1727
18645TIP3    H277351   1.553   1.985   4.032  0.7728  0.3293 -0.2536
18646TIP3   OH277352   5.263   5.245   6.605  0.2034  0.9476  0.2416
18646TIP3    H177353   5.225   5.199   6.679 -0.6279  0.7026 -0.3242
18646TIP3    H277354   5.312   5.178   6.557 -2.7931  0.0188 -1.8116
18647TIP3   OH277355   0.366   6.445  12.364 -0.0370  0.2146  0.4704
18647TIP3    H177356   0.344   6.366  12.415  2.0546 -0.0687  1.0047
18647TIP3    H277357   0.291   6.456  12.305 -1.5641 -0.6722  2.1286
18648TIP3   OH277358   1.089   1.781  15.931 -0.0542  0.0398 -0.3548
18648TIP3    H177359   1.056   1.797  15.843  1.1919  0.5877 -0.7474
18648TIP3    H277360   1.115   1.689  15.931 -0.4573 -0.0787 -0.4070
18649TIP3   OH277361   3.229   1.947  11.287 -0.1422  0.1617  0.2714
18649TIP3    H177362   3.229   1.881  11.218 -0.3013  0.6611 -0.2166
18649TIP3    H277363   3.236   2.030  11.240 -0.7839  0.5390  0.8313
18650TIP3   OH277364   1.771   6.207   1.114 -0.3039  0.0005  0.0944
18650TIP3    H177365   1.758   6.130   1.169  1.7584  0.2899  1.0776
18650TIP3    H277366   1.697   6.264   1.134  0.1614 -0.0916  2.3017
18651TIP3   OH277367   1.359   0.394   4.876  0.6241  0.3296 -0.6080
18651TIP3    H177368   1.313   0.365   4.798  0.1563  0.5517 -0.4231
18651TIP3    H277369   1.290   0.427   4.934  0.7702 -1.2826  0.5520
18652TIP3   OH277370   0.992   6.393  13.689 -0.4826  1.0292  0.0743
18652TIP3    H177371   1.050   6.457  13.732 -0.8591  1.3741  0.0833
18652TIP3    H277372   1.046   6.353  13.621  0.2448  0.1836  1.1242
18653TIP3   OH277373   4.068   0.118  13.068  0.3197  0.0625 -0.0971
18653TIP3    H177374   4.114   0.149  12.990  0.5108 -0.6408 -0.2773
18653TIP3    H277375   4.130   0.131  13.139 -0.0760  1.2556  0.0449
18654TIP3   OH277376   0.912   4.243  17.034 -0.5697  0.3667 -0.5113
18654TIP3    H177377   0.901   4.326  17.080  0.7969  0.1443  0.2609
18654TIP3    H277378   0.965   4.190  17.093 -1.4008 -1.0522 -1.0152
18655TIP3   OH277379   3.904   4.984  17.273 -0.0041  0.0533 -0.8038
18655TIP3    H177380   3.812   5.000  17.254 -0.0002  0.6004 -0.3844
18655TIP3    H277381   3.911   4.989  17.368  0.4980  0.2737 -0.8432
18656TIP3   OH277382   3.803   5.637   2.622  0.2729 -0.7646 -0.1933
18656TIP3    H177383   3.853   5.584   2.559  1.7296 -1.3340  1.3686
18656TIP3    H277384   3.868   5.695   2.660 -0.9912  1.0212 -0.6534
18657TIP3   OH277385   1.789   5.060  11.366  0.4750 -0.0877 -0.2243
18657TIP3    H177386   1.839   5.027  11.440 -1.2614  0.0090  1.0502
18657TIP3    H277387   1.770   4.982  11.313  1.4875 -0.1943 -0.4521
18658TIP3   OH277388   3.037   3.948  12.297 -0.4495 -0.5896  0.1941
18658TIP3    H177389   3.105   3.883  12.283 -0.6716 -1.0835  1.2540
18658TIP3    H277390   3.058   4.020  12.237  1.2853 -0.5054  0.8478
18659TIP3   OH277391   6.127   1.680  16.139 -0.4934 -0.1073 -0.7416
18659TIP3    H177392   6.080   1.721  16.212 -1.6587 -1.1756 -0.8525
18659TIP3    H277393   6.083   1.712  16.061 -0.2621 -0.1821 -0.9042
18660TIP3   OH277394   0.676   5.007  14.040 -0.0962 -0.1184 -0.0571
18660TIP3    H177395   0.650   4.945  13.972  0.6159  0.5718 -1.0055
18660TIP3    H277396   0.727   4.956  14.103 -0.5340 -0.7198 -0.1930
18661TIP3   OH277397   3.964   1.266   5.836  0.2576 -0.2420  0.6620
18661TIP3    H177398   3.971   1.250   5.930 -0.4701  1.0689  0.9635
18661TIP3    H277399   4.000   1.353   5.823  0.5345 -0.4877 -0.3132
18662TIP3   OH277400   6.142   1.218   3.204  0.3493 -0.2865  0.4182
18662TIP3    H177401   6.074   1.282   3.224 -0.1389 -0.7403  0.2366
18662TIP3    H277402   6.221   1.270   3.191 -0.5505  0.5555 -2.2861
18663TIP3   OH277403   0.999   0.657  12.844 -0.0190 -0.1892 -0.0508
18663TIP3    H177404   0.945   0.625  12.916 -1.0069 -1.6028 -1.3688
18663TIP3    H277405   1.035   0.740  12.876 -0.5322 -0.7062  1.9985
18664TIP3   OH277406   1.472   3.965   1.842  0.3784  0.1841  0.0759
18664TIP3    H177407   1.487   3.998   1.754  1.7013 -0.4189  0.0503
18664TIP3    H277408   1.404   4.022   1.878  0.3503  0.9011 -1.0632
18665TIP3   OH277409   5.054   1.673  14.136 -0.1350 -0.3028  0.5287
18665TIP3    H177410   4.959   1.674  14.134 -0.1784 -1.0706  1.2466
18665TIP3    H277411   5.080   1.631  14.054 -0.4386 -0.6451  0.6079
18666TIP3   OH277412   3.896   4.600   4.418 -0.1190 -0.3221 -0.6753
18666TIP3    H177413   3.958   4.551   4.364  1.3218 -2.7903  2.8400
18666TIP3    H277414   3.813   4.553   4.409 -1.2228  1.8516 -3.8533
18667TIP3   OH277415   0.850   2.807  14.093  0.7953  0.4235  0.4598
18667TIP3    H177416   0.776   2.792  14.034  0.2698  0.1609  1.1623
18667TIP3    H277417   0.908   2.733  14.078  0.6789  0.3755  0.2462
18668TIP3   OH277418   1.601   2.667   2.278 -0.4202  0.4157  0.0165
18668TIP3    H177419   1.665   2.710   2.221 -0.9117 -1.0679 -1.7933
18668TIP3    H277420   1.598   2.720   2.357  0.4503  2.5060 -1.2760
18669TIP3   OH277421   3.614   4.097   4.008 -0.6160  0.2235  0.5573
18669TIP3    H177422   3.540   4.094   3.948 -0.7325  0.2901  0.6953
18669TIP3    H277423   3.576   4.126   4.091 -0.2871  1.0866  0.4102
18670TIP3   OH277424   4.928   5.801   1.310  0.2116  0.1336  0.2849
18670TIP3    H177425   4.934   5.736   1.380 -0.5776  0.0262  0.2632
18670TIP3    H277426   4.966   5.880   1.347 -1.8340  0.6060  1.4988
18671TIP3   OH277427   5.163   0.195   0.581  0.6092 -0.3962 -0.2752
18671TIP3    H177428   5.090   0.228   0.528  0.2723  2.4391  1.7691
18671TIP3    H277429   5.226   0.162   0.516 -1.3099 -0.4570 -2.2204
18672TIP3   OH277430   2.279   4.417   0.914 -0.2725  0.3911 -0.3367
18672TIP3    H177431   2.316   4.453   0.994 -0.6002 -0.9390  0.4310
18672TIP3    H277432   2.353   4.380   0.867 -0.1256  0.9039 -0.5174
18673TIP3   OH277433   0.221   1.283  14.321 -0.5239 -0.0807 -0.3836
18673TIP3    H177434   0.134   1.279  14.280 -0.7663  1.2657 -0.0530
18673TIP3    H277435   0.220   1.214  14.386 -0.8218 -1.0126 -1.3497
18674TIP3   OH277436   2.616   5.043   4.554  0.3558 -0.3778  0.0840
18674TIP3    H177437   2.588   5.135   4.556  0.6392 -0.2958  0.3504
18674TIP3    H277438   2.674   5.038   4.478  0.2929 -0.3526  0.0332
18675TIP3   OH277439   5.360   1.580   0.872 -0.6406  0.2932 -0.1837
18675TIP3    H177440   5.445   1.558   0.911 -1.0888  1.9168  1.9159
18675TIP3    H277441   5.297   1.528   0.921 -1.0512  0.8048 -0.1615
18676TIP3   OH277442   1.283   6.558   5.263  0.0048 -0.0577  0.0912
18676TIP3    H177443   1.254   6.482   5.314 -1.0748  0.2472 -0.0430
18676TIP3    H277444   1.226   6.559   5.187  0.1329  0.7851 -0.0050
18677TIP3   OH277445   0.372   3.102  15.372  0.4191  0.2240 -0.4302
18677TIP3    H177446   0.368   3.196  15.387 -1.0399  0.4659 -1.9584
18677TIP3    H277447   0.444   3.071  15.427  1.8879  2.4457 -0.9852
18678TIP3   OH277448   3.572   4.851   2.748 -0.4560  0.2768  0.4642
18678TIP3    H177449   3.535   4.930   2.787 -1.0554 -0.8998  2.4306
18678TIP3    H277450   3.647   4.830   2.803  0.1345 -0.1450 -0.4732
18679TIP3   OH277451   1.313   1.846  14.600 -0.6411  0.0513  0.1972
18679TIP3    H177452   1.398   1.846  14.645 -1.3001  1.0190  1.5133
18679TIP3    H277453   1.309   1.760  14.557  0.7398 -0.2531  0.6112
18680TIP3   OH277454   1.725   2.593  15.251  0.4743  0.6822  0.6356
18680TIP3    H177455   1.674   2.674  15.261 -0.5992 -0.1031  1.7638
18680TIP3    H277456   1.694   2.555  15.169  2.3051  2.2898 -0.8842
18681TIP3   OH277457   4.934   3.393  11.668 -0.4400 -0.2500 -0.0830
18681TIP3    H177458   5.012   3.432  11.708 -0.0976 -0.9913 -0.0203
18681TIP3    H277459   4.921   3.311  11.715  0.1348 -1.2810 -1.6439
18682TIP3   OH277460   4.571   2.754   5.272 -0.6423 -1.1092  0.6946
18682TIP3    H177461   4.618   2.740   5.354  0.5619 -0.1507  0.1820
18682TIP3    H277462   4.629   2.719   5.204 -0.7467 -0.1261  0.0743
18683TIP3   OH277463   3.191   6.776  11.568  0.5787 -0.2911  0.0210
18683TIP3    H177464   3.107   6.758  11.527  0.4181  0.8482 -0.1764
18683TIP3    H277465   3.204   6.870  11.556  1.7595 -0.4079  0.2767
18684TIP3   OH277466   6.564   1.510   5.884  0.4717  0.2884  0.7090
18684TIP3    H177467   6.620   1.448   5.931  0.3414 -1.4204 -1.2274
18684TIP3    H277468   6.492   1.528   5.944  0.3716 -1.7119  1.2657
18685TIP3   OH277469   2.350   1.944   0.414  0.0460 -0.3537 -0.4243
18685TIP3    H177470   2.394   1.909   0.492 -1.7781  0.3838  1.0160
18685TIP3    H277471   2.416   1.999   0.372  0.8374 -0.0935  1.0825
18686TIP3   OH277472   6.484   4.942   6.036  0.2652  0.2300 -0.2100
18686TIP3    H177473   6.405   4.989   6.009 -1.5345 -2.0566  0.6830
18686TIP3    H277474   6.476   4.934   6.131  1.5960 -0.0393 -0.0999
18687TIP3   OH277475   2.670   2.475   3.564 -0.2093 -0.2640 -0.1693
18687TIP3    H177476   2.685   2.433   3.480  2.3841  1.8788 -0.9128
18687TIP3    H277477   2.624   2.556   3.542 -2.7182 -1.2866  0.9404
18688TIP3   OH277478   6.689   1.281  13.810 -0.2589  0.1923  0.4289
18688TIP3    H177479   6.688   1.225  13.888 -0.3263  0.3661  0.5544
18688TIP3    H277480   6.602   1.320  13.807 -0.4122 -0.1701  0.0029
18689TIP3   OH277481   6.160   2.338   5.520 -0.0459  0.3294 -0.6035
18689TIP3    H177482   6.092   2.401   5.497  0.0563  0.5196 -0.3960
18689TIP3    H277483   6.156   2.332   5.616 -1.4171 -1.5170 -0.7299
18690TIP3   OH277484   2.821   0.415  11.769  0.2772 -0.6856 -0.1632
18690TIP3    H177485   2.751   0.412  11.704  0.7319  0.5884 -0.7444
18690TIP3    H277486   2.845   0.507  11.773  1.0372 -0.9235  0.9881
18691TIP3   OH277487   2.995   4.528   3.784 -0.0391  0.8432  0.5885
18691TIP3    H177488   2.988   4.434   3.802  2.1026  0.5193 -0.0127
18691TIP3    H277489   2.973   4.536   3.691 -0.1635  0.9173  0.6249
18692TIP3   OH277490   6.554   1.134   0.941  0.5847 -0.5216 -0.0393
18692TIP3    H177491   6.504   1.108   0.863 -2.1635  0.1565  1.3689
18692TIP3    H277492   6.555   1.056   0.996  1.2839 -0.5949 -0.1572
18693TIP3   OH277493   6.487   5.934   5.766 -0.4118 -0.2858  0.5619
18693TIP3    H177494   6.581   5.919   5.763 -0.3439  0.2545 -0.1804
18693TIP3    H277495   6.471   5.966   5.855  0.4082  1.4793  0.1110
18694TIP3   OH277496   0.696   0.727  14.158  0.1535  0.5603 -0.4970
18694TIP3    H177497   0.603   0.722  14.181  0.3104 -0.4802 -0.0405
18694TIP3    H277498   0.699   0.711  14.064  0.0605 -2.1984 -0.1113
18695TIP3   OH277499   0.661   1.084   2.815  0.4018 -0.1794  0.0121
18695TIP3    H177500   0.738   1.127   2.853  0.3595 -0.3728  0.3199
18695TIP3    H277501   0.645   1.131   2.733 -0.4838  1.3264  0.9878
18696TIP3   OH277502   4.118   6.782   4.821  0.3175  0.1351 -0.0406
18696TIP3    H177503   4.125   6.804   4.728 -0.8017  0.8384  0.0234
18696TIP3    H277504   4.105   6.687   4.823 -0.4479  0.2187 -0.6577
18697TIP3   OH277505   1.658   0.505  13.122 -0.1258 -0.3180  0.3813
18697TIP3    H177506   1.602   0.458  13.184 -0.5183 -0.6381 -0.2047
18697TIP3    H277507   1.600   0.568  13.080 -0.1818 -1.0189 -0.6174
18698TIP3   OH277508   4.485   0.259   4.970 -0.6046 -0.0043 -0.1649
18698TIP3    H177509   4.407   0.218   5.010  0.8822 -3.9476 -0.8051
18698TIP3    H277510   4.539   0.285   5.045 -0.6597 -1.3696  0.3898
18699TIP3   OH277511   1.430   2.919  16.669  0.0834 -0.6990 -1.0091
18699TIP3    H177512   1.368   2.925  16.742 -0.4889  0.1671 -1.5533
18699TIP3    H277513   1.515   2.934  16.709 -0.2571  0.0926 -0.5555
18700TIP3   OH277514   5.265   4.181   6.155  0.0752 -0.4553 -0.0607
18700TIP3    H177515   5.322   4.219   6.088  1.2437 -2.2084 -0.1224
18700TIP3    H277516   5.257   4.089   6.130 -0.7935 -0.7832  1.3245
18701TIP3   OH277517   4.381   6.017   6.251  0.3021 -0.3610 -0.0701
18701TIP3    H177518   4.448   6.036   6.317  0.1297 -2.2206  0.6927
18701TIP3    H277519   4.410   5.934   6.212 -1.2532 -0.9122 -0.1007
18702TIP3   OH277520   4.035   3.521   1.722  0.5475 -0.4212  0.0782
18702TIP3    H177521   3.987   3.520   1.640  0.2038  0.1004  0.2643
18702TIP3    H277522   4.065   3.431   1.734  2.0802 -0.1538 -1.4692
18703TIP3   OH277523   5.670   3.646  12.301 -0.2236  0.2771  0.4418
18703TIP3    H177524   5.700   3.654  12.211  1.8958 -0.1547  1.0575
18703TIP3    H277525   5.697   3.558  12.327  0.6965  0.9837  2.0037
18704TIP3   OH277526   0.925   1.057  11.380 -0.2760 -0.2081 -0.2500
18704TIP3    H177527   0.895   1.053  11.471  1.4123  0.0850  0.3471
18704TIP3    H277528   0.905   0.971  11.344 -1.5263 -0.1264  0.1761
18705TIP3   OH277529   4.202   0.748   4.015  0.1541  0.6243  0.2583
18705TIP3    H177530   4.287   0.790   4.026  0.3307  0.1646  0.6739
18705TIP3    H277531   4.205   0.709   3.928 -0.6551  2.9214 -0.8963
18706TIP3   OH277532   5.725   0.695  14.051  0.0556  0.1462  0.1493
18706TIP3    H177533   5.748   0.654  14.134 -0.8722 -1.7045 -0.4325
18706TIP3    H277534   5.797   0.754  14.031  1.1777 -0.7644  1.3777
18707TIP3   OH277535   2.114   2.070   5.216 -0.6290  0.0478 -0.4635
18707TIP3    H177536   2.098   2.164   5.209  1.2774  0.3666 -1.1409
18707TIP3    H277537   2.064   2.043   5.293 -1.1307  1.6371 -0.1981
18708TIP3   OH277538   6.661   1.967   4.984 -0.1324 -0.7257 -0.4135
18708TIP3    H177539   6.618   2.042   5.025  2.0790 -0.2551  1.2266
18708TIP3    H277540   6.601   1.894   4.999 -0.5708 -0.0426  1.5085
18709TIP3   OH277541   2.929   1.294  15.794 -0.1420  0.3739 -0.0283
18709TIP3    H177542   2.999   1.332  15.847  0.6894 -2.0244  0.7064
18709TIP3    H277543   2.850   1.340  15.822  0.7184  1.1776  1.1687
18710TIP3   OH277544   0.375   3.305   5.978 -0.4961 -0.2123 -0.1917
18710TIP3    H177545   0.393   3.264   6.063  1.0777  1.3776  0.3059
18710TIP3    H277546   0.283   3.284   5.960 -0.1064 -2.9287  0.5450
18711TIP3   OH277547   6.063   4.451  15.695 -0.6254 -0.0010  0.0639
18711TIP3    H177548   6.116   4.495  15.628 -1.0775  1.3795  0.5858
18711TIP3    H277549   6.092   4.360  15.692  1.9139  0.7119  0.4079
18712TIP3   OH277550   4.063   2.634   3.646  0.1539  0.4597 -0.4228
18712TIP3    H177551   4.104   2.635   3.559  0.2823  0.9667 -0.3603
18712TIP3    H277552   4.125   2.585   3.700  0.3175  0.5667 -0.5084
18713TIP3   OH277553   0.909   3.701   1.035  0.5394 -0.4934 -0.1654
18713TIP3    H177554   0.838   3.666   1.088 -0.1386  1.4043  0.2477
18713TIP3    H277555   0.954   3.624   1.001 -1.7432 -1.7615 -0.5009
18714TIP3   OH277556   5.187   5.637  15.711 -0.2314 -0.1888  0.4742
18714TIP3    H177557   5.184   5.729  15.684 -2.4515 -0.7735 -1.6063
18714TIP3    H277558   5.136   5.633  15.791 -0.4789  0.3151  0.3421
18715TIP3   OH277559   2.736   5.787  11.936 -0.5251  0.0075 -0.3633
18715TIP3    H177560   2.688   5.740  11.868 -1.3415 -0.9415  0.8202
18715TIP3    H277561   2.819   5.739  11.943 -0.0670  0.6344 -1.2564
18716TIP3   OH277562   2.435   5.591   4.143  0.0236  0.5288 -0.8533
18716TIP3    H177563   2.490   5.547   4.208 -0.9760 -1.2495 -1.1669
18716TIP3    H277564   2.490   5.600   4.066  0.1718 -0.3929 -0.8590
18717TIP3   OH277565   6.738   2.493  16.829  0.6293 -0.0468 -0.1631
18717TIP3    H177566   6.673   2.464  16.893  0.4921  1.6476  0.5329
18717TIP3    H277567   6.687   2.521  16.754  0.7631 -1.5534 -0.8535
18718TIP3   OH277568   3.142   4.909  16.173  0.0387 -0.3021  0.3290
18718TIP3    H177569   3.178   4.943  16.091 -1.1982  0.1371 -0.0519
18718TIP3    H277570   3.070   4.852  16.147  1.0500 -1.9776  1.0360
18719TIP3   OH277571   2.710   5.226   0.379  0.0940 -0.0130  0.0653
18719TIP3    H177572   2.682   5.149   0.331  1.3515 -1.0495  0.9015
18719TIP3    H277573   2.757   5.191   0.455  0.6548  1.5763  0.4977
18720TIP3   OH277574   1.825   3.971   0.834 -0.4204  0.2837 -0.3071
18720TIP3    H177575   1.763   3.908   0.799 -1.0485  1.0468 -0.5971
18720TIP3    H277576   1.779   4.013   0.907 -1.2068  2.4964 -1.9402
18721TIP3   OH277577   0.068   3.314  13.264 -0.7857  0.0973 -0.0240
18721TIP3    H177578   0.145   3.263  13.288 -0.2471  0.8678 -0.1184
18721TIP3    H277579   0.027   3.337  13.348 -0.7647 -0.0757  0.0340
18722TIP3   OH277580   5.115   1.339   1.537 -0.1963  0.2167 -0.5321
18722TIP3    H177581   5.115   1.300   1.624  1.6063 -0.4362 -0.7770
18722TIP3    H277582   5.206   1.365   1.522 -1.1226  3.8898 -0.7050
18723TIP3   OH277583   5.243   1.103   5.706 -0.2049  0.2542  0.0388
18723TIP3    H177584   5.218   1.185   5.748  0.7401  1.1785 -1.1336
18723TIP3    H277585   5.292   1.056   5.773 -2.2962 -0.2251  1.3339
18724TIP3   OH277586   0.110   4.593  15.220 -0.0168  0.6216  0.2912
18724TIP3    H177587   0.184   4.552  15.265 -0.4320  1.0139  1.3593
18724TIP3    H277588   0.136   4.595  15.128  0.6930 -0.5320  0.4546
18725TIP3   OH277589   1.749   0.747  16.465 -0.4169  0.2344  0.3060
18725TIP3    H177590   1.759   0.697  16.384 -0.9992  0.8834 -0.1840
18725TIP3    H277591   1.763   0.838  16.438  1.1827  0.3155  1.2809
18726TIP3   OH277592   3.098   2.565   0.066 -0.0406  0.0269 -0.5902
18726TIP3    H177593   3.079   2.649   0.109 -1.7207  0.1894 -1.5402
18726TIP3    H277594   3.047   2.501   0.115  0.7066 -0.3431 -0.2837
18727TIP3   OH277595   0.272   5.864   3.803 -0.5157 -0.6446  0.3548
18727TIP3    H177596   0.255   5.770   3.811  0.4413 -0.7913  0.7792
18727TIP3    H277597   0.363   5.870   3.774 -1.1779  0.1166 -1.7900
18728TIP3   OH277598   0.180   0.360   1.151  0.2159  0.3740 -0.4206
18728TIP3    H177599   0.192   0.446   1.191 -0.4371 -0.3461  1.4520
18728TIP3    H277600   0.268   0.326   1.139  0.4765  1.2453 -1.1037
18729TIP3   OH277601   2.527   3.451  11.805  0.2854 -0.3033  0.2237
18729TIP3    H177602   2.440   3.438  11.843 -1.1960  2.7057 -1.7764
18729TIP3    H277603   2.570   3.513  11.865 -0.2403  0.7032 -0.3997
18730TIP3   OH277604   2.522   1.264   3.364 -0.0179  0.2372 -0.2631
18730TIP3    H177605   2.492   1.315   3.289 -1.2157 -1.3429 -0.9068
18730TIP3    H277606   2.489   1.175   3.348  1.7426 -0.7044  0.9478
18731TIP3   OH277607   5.213   3.217  14.067  0.2940 -0.3554 -0.6358
18731TIP3    H177608   5.306   3.233  14.076 -0.2494  2.0893  2.0904
18731TIP3    H277609   5.180   3.292  14.017 -0.1776 -1.5665 -2.2305
18732TIP3   OH277610   6.640   5.285  16.536 -0.5282 -0.4158  0.1421
18732TIP3    H177611   6.719   5.235  16.516  0.0617 -0.4538  2.2986
18732TIP3    H277612   6.672   5.368  16.572 -1.4431 -0.3847  0.9408
18733TIP3   OH277613   6.247   0.873   4.699 -0.1675  0.1185 -0.1348
18733TIP3    H177614   6.250   0.783   4.664  1.5271 -0.2693  0.8716
18733TIP3    H277615   6.162   0.879   4.742 -0.4550 -0.8744 -0.5291
18734TIP3   OH277616   4.513   4.109   4.252  0.1225 -0.1676 -0.1462
18734TIP3    H177617   4.538   4.189   4.299  1.5268  0.7419 -2.2961
18734TIP3    H277618   4.543   4.123   4.162 -1.6441 -2.1841 -1.1583
18735TIP3   OH277619   0.332   5.931  13.047 -0.1719  0.5065 -0.7566
18735TIP3    H177620   0.405   5.968  13.097  1.2439 -1.2949 -1.3495
18735TIP3    H277621   0.272   5.897  13.114  0.8139 -0.2692 -0.2430
18736TIP3   OH277622   5.303   3.424   1.076  0.1370  0.6065  0.0677
18736TIP3    H177623   5.236   3.415   1.007 -0.4684  0.0337  0.7130
18736TIP3    H277624   5.330   3.516   1.071  0.4769  0.4540 -1.2649
18737TIP3   OH277625   5.976   2.556  14.499 -0.0593 -0.4860 -0.0912
18737TIP3    H177626   6.001   2.470  14.534 -1.6488 -0.5250  1.0549
18737TIP3    H277627   5.890   2.573  14.536 -1.2377  0.1767 -2.8726
18738TIP3   OH277628   6.336   1.362  14.550 -0.1201  0.2084 -0.1644
18738TIP3    H177629   6.372   1.339  14.635  0.9887  0.3683 -0.5737
18738TIP3    H277630   6.245   1.333  14.553 -0.1378  0.3586  1.1224
18739TIP3   OH277631   2.534   3.831   1.169 -0.0897  0.0096  0.3740
18739TIP3    H177632   2.505   3.899   1.108 -0.4799 -1.1582 -0.7908
18739TIP3    H277633   2.522   3.870   1.256 -1.1516  1.1059 -0.2286
18740TIP3   OH277634   4.180   5.136   5.850 -0.6105 -0.1705 -0.0524
18740TIP3    H177635   4.261   5.091   5.876 -2.3115 -1.7440  3.1909
18740TIP3    H277636   4.137   5.075   5.791 -0.7293 -0.6883  0.5537
18741TIP3   OH277637   4.684   5.407   2.376  0.0352 -0.0037  0.4286
18741TIP3    H177638   4.711   5.383   2.287 -0.3216  1.5986 -0.1431
18741TIP3    H277639   4.739   5.482   2.399 -1.6042  1.2336  0.5215
18742TIP3   OH277640   3.807   3.620  13.899  0.2176 -0.1339  0.6619
18742TIP3    H177641   3.726   3.572  13.881 -0.8949  1.8037  0.1793
18742TIP3    H277642   3.780   3.693  13.954  1.5095  0.9809 -0.1183
18743TIP3   OH277643   2.215   1.788  12.470  0.5483 -0.3186  0.4968
18743TIP3    H177644   2.147   1.721  12.464  0.9581 -0.7240  0.2885
18743TIP3    H277645   2.277   1.753  12.534  0.7918 -0.1672  0.3439
18744TIP3   OH277646   5.415   1.410  15.048 -0.2803 -0.2419  0.0384
18744TIP3    H177647   5.355   1.357  15.100 -0.9471 -0.8598 -1.3303
18744TIP3    H277648   5.368   1.491  15.032 -0.5361 -0.5041 -0.5580
18745TIP3   OH277649   2.675   3.558  15.890  0.2765  0.1618  0.3178
18745TIP3    H177650   2.596   3.510  15.918  0.6275 -0.2180  0.6717
18745TIP3    H277651   2.745   3.492  15.893  0.2053 -0.1281 -2.2086
18746TIP3   OH277652   5.510   6.491  13.313 -0.3843 -0.3719  0.2076
18746TIP3    H177653   5.505   6.581  13.281  0.8000 -0.2862  0.1870
18746TIP3    H277654   5.538   6.500  13.404 -0.2591 -0.7081  0.2042
18747TIP3   OH277655   2.994   4.995  14.333 -0.4643 -0.1787  0.6185
18747TIP3    H177656   2.901   5.016  14.339 -0.2289  0.7327  1.2380
18747TIP3    H277657   3.010   4.985  14.239 -0.9167  0.9520  0.4113
18748TIP3   OH277658   6.184   0.201  16.833  0.5013 -0.1612  0.3741
18748TIP3    H177659   6.226   0.135  16.777 -1.0062 -0.9534  0.1200
18748TIP3    H277660   6.117   0.152  16.881  1.4591  0.5930  2.5863
18749TIP3   OH277661   3.676   4.199  13.827 -0.4112  0.3414 -0.0066
18749TIP3    H177662   3.723   4.188  13.745  0.3755  2.0839  0.1839
18749TIP3    H277663   3.744   4.195  13.894 -1.1790 -2.4664  0.7653
18750TIP3   OH277664   3.922   0.317   2.585  0.1754  0.4404  0.4123
18750TIP3    H177665   3.971   0.307   2.503  0.9346 -0.9248  0.9972
18750TIP3    H277666   3.953   0.400   2.622 -0.2243  1.1013 -0.6926
18751TIP3   OH277667   5.245   2.792  15.757  0.0968 -0.6754 -0.7272
18751TIP3    H177668   5.206   2.762  15.675 -0.8824  0.5601 -0.7481
18751TIP3    H277669   5.340   2.786  15.742 -0.0596 -2.3617 -1.1984
18752TIP3   OH277670   6.378   2.404  12.275  0.3092  0.0516 -0.1482
18752TIP3    H177671   6.401   2.372  12.188  0.5721 -0.7619  0.2037
18752TIP3    H277672   6.373   2.499  12.266 -2.6312 -0.1587 -1.7494
18753TIP3   OH277673   2.651   3.079  11.273 -0.3744 -0.2271  0.2326
18753TIP3    H177674   2.612   3.114  11.193  1.4680  1.7935  0.1323
18753TIP3    H277675   2.671   3.156  11.326  1.0981 -1.3264  1.3730
18754TIP3   OH277676   5.182   5.918   2.897 -0.0719 -0.1307 -0.0921
18754TIP3    H177677   5.137   5.933   2.981  0.3119  1.1222 -0.0867
18754TIP3    H277678   5.233   5.998   2.883 -0.2932 -0.2341 -1.6286
18755TIP3   OH277679   0.896   1.181   2.917 -0.7431  0.0363 -0.0985
18755TIP3    H177680   0.973   1.145   2.874 -0.6538  0.1304 -0.0166
18755TIP3    H277681   0.907   1.276   2.911 -2.3428  0.1360 -2.8319
18756TIP3   OH277682   1.013   5.897  11.640  0.2556  0.2767  0.6013
18756TIP3    H177683   0.944   5.921  11.578  0.5884 -0.6077 -0.1293
18756TIP3    H277684   0.983   5.815  11.679  0.1922  0.6685  1.4017
18757TIP3   OH277685   4.054   5.116  11.783 -0.3773 -0.1358 -0.3211
18757TIP3    H177686   4.092   5.069  11.857 -0.2198 -0.2214 -0.4542
18757TIP3    H277687   4.129   5.156  11.739 -0.5141  0.2599 -0.1967
18758TIP3   OH277688   3.405   0.032  16.160 -0.2648  0.1284 -0.2670
18758TIP3    H177689   3.392   0.036  16.254  2.4510 -1.2041  0.2718
18758TIP3    H277690   3.367  -0.052  16.134 -2.8720  1.3743 -0.8265
18759TIP3   OH277691   2.149   1.816   4.167  0.4778  0.1667 -0.9700
18759TIP3    H177692   2.056   1.832   4.185  0.5038  1.6715 -1.9955
18759TIP3    H277693   2.154   1.813   4.071  1.3007 -1.2473 -0.9074
18760TIP3   OH277694   3.440   5.488   1.369  0.5757 -0.0215  0.3214
18760TIP3    H177695   3.510   5.424   1.376  0.0533 -0.8949 -1.6764
18760TIP3    H277696   3.363   5.436   1.346  0.2538  1.3278 -1.9422
18761TIP3   OH277697   0.250   1.905   3.538  0.0274 -0.1370  0.4815
18761TIP3    H177698   0.282   1.994   3.525  0.5555 -0.1300  1.7154
18761TIP3    H277699   0.171   1.915   3.591 -1.1889 -0.2715 -1.2288
18762TIP3   OH277700   1.644   1.523  13.237  0.2293 -0.2776  0.3908
18762TIP3    H177701   1.722   1.467  13.231  1.2460  1.0633  0.5217
18762TIP3    H277702   1.570   1.462  13.236  1.2769 -1.5901  0.2370
18763TIP3   OH277703   1.921   5.918   3.433 -0.4065 -0.1859 -0.3282
18763TIP3    H177704   1.871   5.837   3.432 -1.3834  0.3459  1.7383
18763TIP3    H277705   1.856   5.987   3.448  0.8017  0.5702  1.9045
18764TIP3   OH277706   3.139   1.365  14.574  0.0048 -0.2730 -0.8656
18764TIP3    H177707   3.069   1.351  14.638  0.3217 -0.2400 -0.4994
18764TIP3    H277708   3.095   1.387  14.493 -0.3825  0.8885 -0.3547
18765TIP3   OH277709   6.177   3.401   5.905 -0.2070 -0.2742 -0.2682
18765TIP3    H177710   6.169   3.467   5.973 -0.1608 -0.5419 -0.0036
18765TIP3    H277711   6.209   3.323   5.950 -2.0887 -1.0708 -0.2385
18766TIP3   OH277712   0.581   0.563   2.862 -0.0454  0.5461 -0.0565
18766TIP3    H177713   0.535   0.533   2.784 -2.2998  1.3766  0.8880
18766TIP3    H277714   0.589   0.658   2.849 -0.6617  0.7233  0.8135
18767TIP3   OH277715   0.937   4.614  13.381 -0.1038 -0.1012  0.7058
18767TIP3    H177716   0.977   4.694  13.346  0.3758  0.0536  1.5996
18767TIP3    H277717   0.908   4.637  13.469 -0.2292 -0.8277  0.8652
18768TIP3   OH277718   5.271   1.408  13.617  0.4592  0.0182  0.3370
18768TIP3    H177719   5.251   1.392  13.525 -1.9606  2.4561  0.3117
18768TIP3    H277720   5.310   1.496  13.618  0.3818  0.0539  1.6425
18769TIP3   OH277721   2.998   6.171   0.830 -0.7793 -0.6969  0.3070
18769TIP3    H177722   3.047   6.097   0.794  0.4497  0.7241 -1.0553
18769TIP3    H277723   2.983   6.147   0.922  2.1348 -1.4097  0.6970
18770TIP3   OH277724   2.108   1.096   3.327 -0.4642 -0.8104 -0.6908
18770TIP3    H177725   2.031   1.116   3.379 -0.7526 -0.0197 -1.3924
18770TIP3    H277726   2.110   1.000   3.323  1.7287 -1.2301  3.8998
18771TIP3   OH277727   1.494   0.227   3.562 -0.3313 -0.4487 -0.2151
18771TIP3    H177728   1.450   0.310   3.580 -1.8443 -1.2557 -0.0457
18771TIP3    H277729   1.434   0.180   3.503  1.0138 -0.9831 -1.2100
18772TIP3   OH277730   2.080   1.715  11.479 -0.8336  0.2558 -0.2010
18772TIP3    H177731   2.111   1.638  11.526 -0.5999  1.1894  1.2617
18772TIP3    H277732   2.064   1.685  11.390  2.8551 -0.6880 -0.7103
18773TIP3   OH277733   1.476   0.738   2.313  0.5434  0.1463 -0.2258
18773TIP3    H177734   1.461   0.803   2.245  0.1581  0.7005  0.3801
18773TIP3    H277735   1.432   0.659   2.281 -0.1688  0.5820 -0.3358
18774TIP3   OH277736   6.585   2.993  13.735  0.3552  0.3764 -0.8143
18774TIP3    H177737   6.564   2.900  13.731 -0.5239  0.5897 -1.8771
18774TIP3    H277738   6.669   3.001  13.691  0.4402  0.0870 -0.7068
18775TIP3   OH277739   5.978   3.999   1.372 -0.3673  0.5648 -0.3749
18775TIP3    H177740   6.014   4.057   1.305  1.3056 -0.2887 -0.2834
18775TIP3    H277741   5.909   3.950   1.327 -1.4967  2.2574 -0.5639
18776TIP3   OH277742   0.669   5.868   5.499 -0.7937  0.5331  0.5207
18776TIP3    H177743   0.753   5.911   5.510 -0.0158 -0.7646 -0.0501
18776TIP3    H277744   0.610   5.936   5.468  0.2988  1.2475 -0.0227
18777TIP3   OH277745   1.522   5.479   0.844  0.1503 -0.4032 -0.5124
18777TIP3    H177746   1.480   5.443   0.766  0.2598 -0.7152 -0.4297
18777TIP3    H277747   1.459   5.462   0.914  0.3973 -0.8457 -0.3929
18778TIP3   OH277748   3.618   1.633  12.833 -0.0028  0.4381 -0.1979
18778TIP3    H177749   3.622   1.654  12.926  1.1624 -0.7890  0.0484
18778TIP3    H277750   3.708   1.639  12.803 -0.4812  1.8319 -1.5145
18779TIP3   OH277751   6.345   5.031  13.143  0.2113  0.1065  0.2765
18779TIP3    H177752   6.365   5.039  13.050 -0.7270  0.0179  0.0566
18779TIP3    H277753   6.316   5.118  13.169  0.3901  0.1101  0.4679
18780TIP3   OH277754   6.586   6.601   1.140 -0.0298 -0.2447 -0.2841
18780TIP3    H177755   6.630   6.638   1.217  0.6593  0.6464 -1.0828
18780TIP3    H277756   6.656   6.556   1.093 -0.4578 -0.8162 -0.3817
18781TIP3   OH277757   5.438   3.210   5.867  0.5088  0.2614 -0.9320
18781TIP3    H177758   5.449   3.205   5.962 -1.1334 -0.0788 -0.7347
18781TIP3    H277759   5.525   3.191   5.832  1.3559  1.2657  0.5038
18782TIP3   OH277760   3.759   1.653   5.254  0.2007  0.4932 -0.3228
18782TIP3    H177761   3.780   1.588   5.187 -2.1319  0.1826 -0.8423
18782TIP3    H277762   3.779   1.609   5.337 -0.1528 -0.4255 -0.7126
18783TIP3   OH277763   0.070   2.127   5.075  1.1994 -1.0439 -0.7304
18783TIP3    H177764   0.029   2.053   5.030  0.4320 -0.9490 -0.2096
18783TIP3    H277765   0.029   2.128   5.161 -0.7433  1.5632 -1.5816
18784TIP3   OH277766   0.565   3.654   1.419 -0.3740 -0.0397  0.0074
18784TIP3    H177767   0.505   3.685   1.486 -0.1871 -0.5446  0.4134
18784TIP3    H277768   0.613   3.583   1.460  2.3228  1.9548  0.5767
18785TIP3   OH277769   2.545   1.113   1.424  1.0454 -0.2714 -0.4681
18785TIP3    H177770   2.491   1.102   1.502 -1.0363 -0.7000 -1.8970
18785TIP3    H277771   2.578   1.025   1.405  0.1976 -0.4913 -0.9758
18786TIP3   OH277772   6.687   5.477  11.136 -0.3978 -0.0595 -0.6809
18786TIP3    H177773   6.695   5.438  11.049  0.7796  0.1565 -0.6852
18786TIP3    H277774   6.776   5.505  11.158 -0.8731  0.8517  0.1481
18787TIP3   OH277775   3.516   0.136   4.514 -0.4373  0.7066 -0.2977
18787TIP3    H177776   3.447   0.083   4.475  2.8075 -3.6609 -0.7780
18787TIP3    H277777   3.496   0.136   4.608 -1.0191 -0.5433 -0.4061
18788TIP3   OH277778   0.736   4.665  15.135  0.3531  0.2648  0.1464
18788TIP3    H177779   0.790   4.598  15.093 -0.9006 -0.9783  0.4514
18788TIP3    H277780   0.652   4.659  15.090  0.0664  1.3152  0.5139
18789TIP3   OH277781   0.687   0.187  13.155 -0.4444 -0.8307 -0.1506
18789TIP3    H177782   0.608   0.236  13.177 -1.1880 -2.6482  1.6266
18789TIP3    H277783   0.660   0.131  13.082 -1.1447 -2.0629  0.9930
18790TIP3   OH277784   4.177   3.443   4.234  0.0413 -0.4999 -0.7315
18790TIP3    H177785   4.196   3.365   4.181 -1.9437 -0.1007 -2.1679
18790TIP3    H277786   4.113   3.492   4.182  1.1393  2.0844  0.1555
18791TIP3   OH277787   3.233   5.967  17.229 -0.6263 -0.5725  0.6395
18791TIP3    H177788   3.268   5.886  17.194 -0.2175  0.9358 -2.8183
18791TIP3    H277789   3.139   5.952  17.235 -0.6458 -1.0763 -0.6786
18792TIP3   OH277790   4.448   3.796   5.440 -0.8695  0.0128  0.0543
18792TIP3    H177791   4.479   3.881   5.472  1.7201 -0.9984  0.4757
18792TIP3    H277792   4.451   3.805   5.344  0.5241  0.0686  0.0803
18793TIP3   OH277793   5.142   1.335   5.861  0.0942  0.2458 -0.0616
18793TIP3    H177794   5.067   1.302   5.910 -0.3572  2.7557  1.1108
18793TIP3    H277795   5.104   1.384   5.788  0.4818  2.1041  0.9144
18794TIP3   OH277796   2.946   1.413  11.492 -0.6053  0.3829 -0.4484
18794TIP3    H177797   3.022   1.403  11.435 -0.4314 -0.5693 -0.0661
18794TIP3    H277798   2.943   1.507  11.511  1.7158  0.2302  1.1775
18795TIP3   OH277799   5.221   5.382   0.809 -0.3422 -0.2447  0.5447
18795TIP3    H177800   5.306   5.390   0.767 -0.7097 -3.0388 -0.9898
18795TIP3    H277801   5.239   5.336   0.891 -0.3784 -1.2678 -0.0040
18796TIP3   OH277802   6.611   0.110   6.069  0.0577  0.8817 -0.0342
18796TIP3    H177803   6.629   0.018   6.049  1.0116  1.3152 -1.3130
18796TIP3    H277804   6.566   0.108   6.153  1.5540 -0.6307  0.7882
18797TIP3   OH277805   4.072   0.415   6.417 -0.4911  0.2959 -0.2220
18797TIP3    H177806   4.066   0.381   6.506  1.5135  0.1109 -0.1127
18797TIP3    H277807   4.142   0.481   6.420 -0.3758  0.2806 -1.6480
18798TIP3   OH277808   6.384   3.698  13.418  0.3033 -0.0493 -0.2048
18798TIP3    H177809   6.454   3.675  13.479  1.2394  0.5385 -1.0341
18798TIP3    H277810   6.318   3.629  13.429  1.2458 -0.8952  0.2193
18799TIP3   OH277811   4.444   1.594   5.781 -0.2469  0.1007 -0.6062
18799TIP3    H177812   4.438   1.635   5.695 -1.0458  0.3020 -0.4588
18799TIP3    H277813   4.493   1.657   5.834  1.6311 -0.7036 -1.3049
18800TIP3   OH277814   6.609   5.464   1.089 -0.4193 -0.1156  0.6389
18800TIP3    H177815   6.523   5.458   1.048 -0.9029 -1.2735  1.7519
18800TIP3    H277816   6.592   5.455   1.182  0.7721  1.2353  1.0136
18801TIP3   OH277817   2.118   4.106  17.007 -0.4312  0.5274 -0.5506
18801TIP3    H177818   2.150   4.195  17.022 -2.4793  1.2171  0.0836
18801TIP3    H277819   2.169   4.051  17.066 -1.3247  1.7862  1.4901
18802TIP3   OH277820   4.367   4.704  16.506 -0.1887 -0.0899  0.3376
18802TIP3    H177821   4.332   4.783  16.465  1.9869  0.0257 -1.4789
18802TIP3    H277822   4.430   4.737  16.571  0.5225 -0.3072 -0.2340
18803TIP3   OH277823   4.688   0.641   0.004 -1.2761  0.4808  0.2289
18803TIP3    H177824   4.750   0.706   0.036 -0.6713 -0.2206  0.5006
18803TIP3    H277825   4.716   0.559   0.043 -1.9871  0.0329 -0.1676
18804TIP3   OH277826   4.001   3.293  12.314  0.8062 -0.2915 -0.1282
18804TIP3    H177827   3.936   3.276  12.383  0.1718 -0.7096 -0.8101
18804TIP3    H277828   4.044   3.374  12.341 -0.0314  0.0141  0.3258
18805TIP3   OH277829   5.346   5.207  15.968  0.1254  0.1320  0.3360
18805TIP3    H177830   5.295   5.192  15.888 -1.1279  0.1366  1.1115
18805TIP3    H277831   5.310   5.144  16.031 -0.1405  1.3372  1.4260
18806TIP3   OH277832   3.249   2.877  12.675 -0.3939 -0.5938  0.2531
18806TIP3    H177833   3.244   2.807  12.610  2.4728  1.2138 -2.1740
18806TIP3    H277834   3.312   2.844  12.740  1.0107 -0.3378 -0.9207
18807TIP3   OH277835   1.025   3.985   3.317 -0.1957  0.2663  0.1180
18807TIP3    H177836   1.024   3.892   3.338 -0.9340  0.1284 -0.4746
18807TIP3    H277837   1.049   3.989   3.224  0.9797  0.7373  0.4270
18808TIP3   OH277838   0.905   1.703   2.871 -0.5762  0.4325  0.2200
18808TIP3    H177839   0.881   1.781   2.821  0.0312  0.8463  0.5593
18808TIP3    H277840   0.922   1.736   2.959  0.4337  0.0458  0.1815
18809TIP3   OH277841   4.793   3.514  17.258 -0.0983 -0.1329  0.2651
18809TIP3    H177842   4.714   3.538  17.305 -0.8163 -2.0369  0.1491
18809TIP3    H277843   4.813   3.590  17.204 -0.8981  0.9999  1.5003
18810TIP3   OH277844   2.589   6.023   4.986  0.2688  0.4841  0.6501
18810TIP3    H177845   2.518   6.014   5.048  1.0531 -0.0721  1.4833
18810TIP3    H277846   2.631   5.937   4.984  0.0885  0.4053 -0.8712
18811TIP3   OH277847   1.156   6.147   5.969  0.2257 -0.4101 -0.1873
18811TIP3    H177848   1.207   6.133   6.049  0.6112  0.9210 -0.1835
18811TIP3    H277849   1.209   6.107   5.899 -1.5194 -4.4421  0.5000
18812TIP3   OH277850   1.414   0.908   2.746 -0.0882  0.3040 -0.0673
18812TIP3    H177851   1.402   0.929   2.838 -0.1354  2.2614 -0.4764
18812TIP3    H277852   1.356   0.834   2.730 -2.8954  2.2149  0.6747
18813TIP3   OH277853   3.367   1.110  10.786  0.1229 -0.1442  0.6677
18813TIP3    H177854   3.291   1.053  10.797  0.0631 -0.3532 -0.7084
18813TIP3    H277855   3.357   1.149  10.699  0.2769  1.8224  1.4709
18814TIP3   OH277856   0.100   6.207   4.272 -0.1535  0.3863 -0.2869
18814TIP3    H177857   0.118   6.134   4.213  1.1991  1.5009 -1.3237
18814TIP3    H277858   0.047   6.267   4.220  0.4805  1.0720 -0.1622
18815TIP3   OH277859   2.749   3.239  12.195  0.3374 -0.2698  0.5993
18815TIP3    H177860   2.817   3.206  12.254 -0.2186 -2.7128 -0.0258
18815TIP3    H277861   2.788   3.233  12.108  0.9628  2.8268  0.5589
18816TIP3   OH277862   3.125   0.081   5.211 -0.1130 -0.4967  0.0165
18816TIP3    H177863   3.078   0.001   5.236 -2.1379  0.0486 -1.8183
18816TIP3    H277864   3.173   0.106   5.291 -1.3229 -2.2184  1.3574
18817TIP3   OH277865   0.388   1.537  15.245  0.2980 -0.1705 -0.1410
18817TIP3    H177866   0.424   1.586  15.320 -2.0758 -0.8891  1.6141
18817TIP3    H277867   0.293   1.542  15.258 -0.0971 -3.0423 -1.3319
18818TIP3   OH277868   0.510   6.474  16.374 -0.6463 -0.2463  0.5924
18818TIP3    H177869   0.416   6.494  16.372 -1.1934 -1.9919 -3.9594
18818TIP3    H277870   0.552   6.556  16.399 -3.2794  1.5517 -0.4527
18819TIP3   OH277871   2.130   3.812  14.698  0.1679  0.0844 -0.3384
18819TIP3    H177872   2.124   3.906  14.714  2.8594  0.1990  0.6052
18819TIP3    H277873   2.134   3.772  14.785  1.6565 -0.6087 -0.6900
18820TIP3   OH277874   3.812   5.194  11.670 -0.1977 -0.1749  0.0882
18820TIP3    H177875   3.885   5.147  11.710 -1.9746 -0.4877  3.2625
18820TIP3    H277876   3.746   5.126  11.655 -0.1555  0.2087 -2.1076
18821TIP3   OH277877   6.203   0.102  15.973  0.3570  0.0148  0.1083
18821TIP3    H177878   6.128   0.066  15.926 -1.1065  0.5692  1.8945
18821TIP3    H277879   6.169   0.181  16.016  1.2631 -1.0153  2.9210
18822TIP3   OH277880   3.090   1.965  11.718  0.5666  0.1850  0.0084
18822TIP3    H177881   3.111   2.059  11.719 -2.9074  1.1164 -1.2107
18822TIP3    H277882   3.074   1.946  11.625 -1.1745 -0.9663  0.5145
18823TIP3   OH277883   2.652   0.102   4.967 -0.5148 -0.4101 -0.0949
18823TIP3    H177884   2.727   0.160   4.952 -0.1363 -1.1245 -1.0037
18823TIP3    H277885   2.617   0.131   5.052  1.1386 -0.4554  0.6423
18824TIP3   OH277886   6.303   4.590   5.831 -0.3897 -0.5977 -0.4225
18824TIP3    H177887   6.351   4.596   5.914  0.7087 -2.4953 -0.8610
18824TIP3    H277888   6.275   4.680   5.814  1.3412  0.2667  0.8573
18825TIP3   OH277889   6.586   4.770  10.782 -0.0734  0.5000  0.9964
18825TIP3    H177890   6.605   4.680  10.806  0.7306  0.2752 -0.3705
18825TIP3    H277891   6.666   4.801  10.739 -0.5465  1.6773  0.9079
18826TIP3   OH277892   0.899   5.713   2.145 -0.0197 -0.0909  0.3945
18826TIP3    H177893   0.823   5.768   2.127 -0.7630 -1.0369  0.5192
18826TIP3    H277894   0.915   5.725   2.239  0.2073  0.3834  0.2948
18827TIP3   OH277895   5.275   3.190   4.230 -0.0612 -0.1214 -0.0991
18827TIP3    H177896   5.229   3.106   4.228 -0.8903  0.3346 -0.7877
18827TIP3    H277897   5.365   3.168   4.204 -0.3569 -0.7446 -0.6339
18828TIP3   OH277898   6.404   0.072  15.193  0.1874 -0.2216  0.3878
18828TIP3    H177899   6.386  -0.015  15.155  1.6718 -0.0932 -0.6797
18828TIP3    H277900   6.429   0.126  15.119 -0.3162  1.0420  1.1044
18829TIP3   OH277901   1.651   5.266   0.179  0.8655 -0.1441  0.2589
18829TIP3    H177902   1.577   5.254   0.119  0.8648  1.0837 -0.0278
18829TIP3    H277903   1.619   5.330   0.243  2.5026  2.5857 -1.4671
18830TIP3   OH277904   1.888   3.523  12.714  0.3075 -0.2263  0.1641
18830TIP3    H177905   1.973   3.535  12.756 -0.0237 -1.0230  1.1025
18830TIP3    H277906   1.908   3.491  12.627  0.9626 -0.8656  0.5455
18831TIP3   OH277907   0.220   1.620  14.999 -0.7679  0.7822 -0.4103
18831TIP3    H177908   0.231   1.587  15.089  1.4003 -1.9622 -1.5135
18831TIP3    H277909   0.286   1.690  14.992 -0.3722  0.4533 -0.0846
18832TIP3   OH277910   4.032   4.786  17.129 -0.1220 -0.1827  0.0946
18832TIP3    H177911   4.118   4.827  17.137  0.2737 -1.2148  1.4994
18832TIP3    H277912   3.970   4.859  17.135  0.6142  0.4488  0.1602
18833TIP3   OH277913   6.586   5.832   2.406  0.8909 -0.4781 -0.2269
18833TIP3    H177914   6.491   5.821   2.410  0.9720 -1.2732 -0.3602
18833TIP3    H277915   6.619   5.746   2.381  1.8054 -0.8461  2.0514
18834TIP3   OH277916   6.050   0.366   1.687 -0.5016  0.1557 -0.3871
18834TIP3    H177917   6.013   0.446   1.723  0.7414  1.3185 -1.5733
18834TIP3    H277918   6.062   0.384   1.594 -0.5150 -1.5524 -0.7615
18835TIP3   OH277919   4.808   3.008   0.251  0.1385 -0.1530  0.1879
18835TIP3    H177920   4.865   3.078   0.219 -0.9300  0.9487  0.6133
18835TIP3    H277921   4.866   2.933   0.262  0.6057 -0.7603 -4.4584
18836TIP3   OH277922   4.645   5.844  13.375  0.1216  0.0852  0.2161
18836TIP3    H177923   4.558   5.826  13.340 -0.2317  0.6123  0.8050
18836TIP3    H277924   4.655   5.785  13.449 -0.0778  0.5928  0.6598
18837TIP3   OH277925   0.108   5.940   0.574 -0.1588  0.1398 -0.0850
18837TIP3    H177926   0.181   5.965   0.631  0.6667  0.4749 -1.2680
18837TIP3    H277927   0.037   5.999   0.600  0.5757  1.1026 -0.1932
18838TIP3   OH277928   5.315   5.376  15.270  0.5556  0.2143  0.4388
18838TIP3    H177929   5.262   5.304  15.305  2.1466 -0.5860  1.2750
18838TIP3    H277930   5.389   5.333  15.229  0.5685  1.3253 -0.7565
18839TIP3   OH277931   1.267   4.357  13.897  0.6735  0.2811  0.4971
18839TIP3    H177932   1.255   4.262  13.904 -1.7287  0.3543 -1.2579
18839TIP3    H277933   1.328   4.379  13.968  0.3287 -2.3903  1.7466
18840TIP3   OH277934   4.636   5.547   4.088 -0.2837 -0.1034 -0.3944
18840TIP3    H177935   4.587   5.580   4.012  0.4689  0.9161 -0.4560
18840TIP3    H277936   4.724   5.531   4.055  0.4455  1.7034  0.5445
18841TIP3   OH277937   3.164   2.552  17.092 -0.0526  0.2225 -0.1995
18841TIP3    H177938   3.075   2.540  17.059 -0.7315  2.2945  0.7074
18841TIP3    H277939   3.153   2.564  17.187  1.0896  1.2263 -0.1635
18842TIP3   OH277940   0.771   5.414   2.086 -0.3731  0.0355 -0.2718
18842TIP3    H177941   0.773   5.417   1.990 -0.4021  0.6502 -0.2608
18842TIP3    H277942   0.861   5.435   2.112 -0.7267  1.4930 -0.1487
18843TIP3   OH277943   6.715   5.816  15.210 -0.3377 -0.1873 -0.1379
18843TIP3    H177944   6.652   5.824  15.138  0.5837 -0.2192 -0.9741
18843TIP3    H277945   6.758   5.732  15.194 -0.7976 -0.6610  1.0230
18844TIP3   OH277946   0.327   2.160   3.456  0.0839  0.2803 -0.7191
18844TIP3    H177947   0.263   2.231   3.462 -0.3946 -0.1848 -0.3009
18844TIP3    H277948   0.410   2.205   3.438 -0.2224  0.9419 -0.5293
18845TIP3   OH277949   6.749   4.120  17.184 -0.1829  0.8420 -0.3235
18845TIP3    H177950   6.680   4.091  17.124 -0.7558  3.1139 -0.8573
18845TIP3    H277951   6.740   4.064  17.261 -0.6881 -0.8519 -1.5740
18846TIP3   OH277952   5.936   4.981  14.154  0.4338  0.0239 -0.4569
18846TIP3    H177953   5.958   4.891  14.178  0.3855  0.0803 -0.2016
18846TIP3    H277954   5.848   4.994  14.190  0.2502  0.0209 -0.8950
18847TIP3   OH277955   2.396   6.104   4.373  0.1963 -0.4473 -0.4892
18847TIP3    H177956   2.301   6.101   4.386  0.0218  0.6309 -1.3167
18847TIP3    H277957   2.406   6.137   4.284  1.3537 -1.6622 -0.8247
18848TIP3   OH277958   0.187   0.214  17.228 -0.1553 -0.0342  0.1994
18848TIP3    H177959   0.229   0.289  17.186  0.2576 -0.5077 -0.2432
18848TIP3    H277960   0.222   0.213  17.318  0.9028 -0.5023 -0.1991
18849TIP3   OH277961   5.029   3.950  17.038 -0.8028  0.3442  0.2430
18849TIP3    H177962   5.074   3.948  16.954  0.6136 -2.0220  0.9736
18849TIP3    H277963   5.093   3.983  17.100 -2.3856  3.8523  0.2355
18850TIP3   OH277964   2.355   1.045  16.335  0.3087  0.1560 -0.1840
18850TIP3    H177965   2.418   1.096  16.386  0.2970 -0.2337  0.2261
18850TIP3    H277966   2.284   1.027  16.397  1.4829 -2.6304  0.5288
18851TIP3   OH277967   2.936   4.311   2.257 -0.1142 -0.1249  0.0164
18851TIP3    H177968   2.877   4.386   2.248 -0.2759  0.0117  1.9317
18851TIP3    H277969   2.884   4.236   2.228 -0.8847  0.1345  0.7039
18852TIP3   OH277970   0.271   1.366   4.053  0.0542 -0.3521  0.2196
18852TIP3    H177971   0.207   1.316   4.002 -1.1846  1.1045  0.2709
18852TIP3    H277972   0.219   1.426   4.106  1.4350  0.2577  0.9604
18853TIP3   OH277973   4.458   1.397  15.238 -0.1416  0.0168 -0.2661
18853TIP3    H177974   4.538   1.385  15.186 -0.7630 -0.6678 -1.0934
18853TIP3    H277975   4.436   1.309  15.269 -0.2498  0.2939  0.4533
18854TIP3   OH277976   4.801   4.018   3.847 -0.3376  0.2137  0.0568
18854TIP3    H177977   4.761   3.982   3.768  0.0996 -2.6635  1.0111
18854TIP3    H277978   4.892   4.035   3.822 -0.5390  0.6542 -0.3983
18855TIP3   OH277979   0.718   0.476   3.094 -0.3239 -0.4217 -0.1368
18855TIP3    H177980   0.685   0.513   3.012 -0.0012 -1.2497 -0.6426
18855TIP3    H277981   0.697   0.383   3.090 -0.9702 -0.3563  1.0569
18856TIP3   OH277982   4.546   2.781   6.473 -0.2540 -0.3525  0.0450
18856TIP3    H177983   4.464   2.810   6.433  1.6660  2.8191 -2.0087
18856TIP3    H277984   4.610   2.786   6.402  2.1758 -0.4554  2.0894
18857TIP3   OH277985   1.493   0.406   1.586  0.1470 -0.0523  0.1548
18857TIP3    H177986   1.528   0.336   1.531  0.6190  0.7220 -0.5510
18857TIP3    H277987   1.501   0.372   1.675 -0.0511 -1.0722 -0.2023
18858TIP3   OH277988   3.428   0.823   0.755  0.4864  0.3612 -0.2989
18858TIP3    H177989   3.390   0.826   0.843  0.0914 -1.4504 -0.3788
18858TIP3    H277990   3.510   0.774   0.766  1.2689  1.5148 -0.6893
18859TIP3   OH277991   1.971   3.143   4.286  0.3308  0.1511  0.2869
18859TIP3    H177992   2.042   3.184   4.337  0.9950  0.8853 -1.1844
18859TIP3    H277993   1.936   3.213   4.232 -2.7765  0.2548  2.1995
18860TIP3   OH277994   5.236   4.976  10.868 -0.0876  0.4251  0.4937
18860TIP3    H177995   5.262   5.061  10.831 -0.4953  0.3231 -0.0238
18860TIP3    H277996   5.319   4.932  10.885  0.1073  0.6358  0.0899
18861TIP3   OH277997   6.616   3.539   6.684 -0.2749 -0.2415 -0.3098
18861TIP3    H177998   6.627   3.489   6.765 -0.6032 -0.0021 -0.1118
18861TIP3    H277999   6.555   3.609   6.708 -0.7711 -0.4674 -0.9011
18862TIP3   OH278000   5.067   0.409  16.339 -0.8371 -0.5892 -0.0192
18862TIP3    H178001   5.067   0.461  16.419  0.0115 -0.8473  0.1602
18862TIP3    H278002   4.987   0.356  16.345 -2.0151  1.0331 -0.4642
18863TIP3   OH278003   6.541   6.175   4.076  0.1168  0.1831  0.5175
18863TIP3    H178004   6.466   6.143   4.125  0.5030 -0.4377  0.7186
18863TIP3    H278005   6.557   6.263   4.110  0.8401 -0.5070  2.0648
18864TIP3   OH278006   2.604   2.901   2.809  0.4074 -0.5534 -0.3141
18864TIP3    H178007   2.511   2.922   2.820  0.6763  0.5956 -0.0699
18864TIP3    H278008   2.633   2.956   2.737  0.9936 -0.5894 -0.1124
18865TIP3   OH278009   0.296   5.535   4.290 -0.0274  0.1899  0.1615
18865TIP3    H178010   0.289   5.614   4.236  0.3078  0.6851  0.8366
18865TIP3    H278011   0.267   5.464   4.232 -1.7102  0.9721 -0.0284
18866TIP3   OH278012   2.238   2.268  13.711 -0.9686 -0.5718 -0.2462
18866TIP3    H178013   2.210   2.263  13.802 -0.3808  1.1970  0.0817
18866TIP3    H278014   2.259   2.361  13.698  1.3155 -1.1732 -1.4655
18867TIP3   OH278015   6.219   2.550  17.052 -0.0147  0.4985  0.0996
18867TIP3    H178016   6.296   2.582  17.005  0.2807 -0.6227 -0.2174
18867TIP3    H278017   6.146   2.601  17.016  0.6730  2.3153  1.1385
18868TIP3   OH278018   1.912   0.722  13.494  0.5502  0.1819 -0.6559
18868TIP3    H178019   1.997   0.764  13.507  0.0972  0.9871 -0.2383
18868TIP3    H278020   1.849   0.781  13.535 -0.3055  0.0069 -1.6739
18869TIP3   OH278021   3.596   5.906   2.006  0.2612 -0.0299  0.9308
18869TIP3    H178022   3.565   5.992   1.977  5.4374  1.5147 -1.1494
18869TIP3    H278023   3.598   5.913   2.101  0.2033  2.0432  0.8438
18870TIP3   OH278024   5.847   1.083  16.330  0.3449  0.0514  0.7022
18870TIP3    H178025   5.888   1.004  16.293  0.8408  1.9979 -3.5072
18870TIP3    H278026   5.764   1.091  16.283 -0.2460  1.4580  1.9187
18871TIP3   OH278027   3.684   6.653  16.055  0.0385  0.3758 -0.0374
18871TIP3    H178028   3.780   6.651  16.051  0.0140  0.2873 -2.6144
18871TIP3    H278029   3.662   6.744  16.076  0.6712  0.3007  0.9947
18872TIP3   OH278030   0.389   5.901  13.574 -0.1456 -0.3283  0.0979
18872TIP3    H178031   0.414   5.982  13.618 -0.7460  0.0284 -0.2031
18872TIP3    H278032   0.353   5.929  13.489 -2.8397 -0.6610  1.0237
18873TIP3   OH278033   4.057   2.996  12.329 -0.2849 -0.5132 -0.2970
18873TIP3    H178034   3.974   2.957  12.300  0.1789 -0.5675 -1.6648
18873TIP3    H278035   4.051   3.088  12.303  0.0789 -0.5179 -0.4060
18874TIP3   OH278036   4.534   5.656  12.760 -0.5000 -0.0607  0.3696
18874TIP3    H178037   4.498   5.641  12.847 -0.4206 -0.0206  0.4096
18874TIP3    H278038   4.569   5.744  12.763 -0.7610  0.0491  0.2029
18875TIP3   OH278039   0.828   6.359   2.717  0.1443 -0.3306 -1.1011
18875TIP3    H178040   0.872   6.392   2.639 -0.0676  0.1842 -1.0103
18875TIP3    H278041   0.738   6.343   2.688  0.1275 -0.3711 -1.0265
18876TIP3   OH278042   2.794   5.299  12.705  0.3969  0.8839  0.1748
18876TIP3    H178043   2.812   5.294  12.799  1.8875 -0.8499 -0.1369
18876TIP3    H278044   2.724   5.236  12.691  0.7587  0.5088  0.0232
18877TIP3   OH278045   1.196   1.880   2.296 -0.7111 -0.4798  0.4696
18877TIP3    H178046   1.246   1.893   2.215 -0.1626  0.1588  0.9028
18877TIP3    H278047   1.253   1.911   2.365 -0.9589 -1.5270  1.1772
18878TIP3   OH278048   4.301   0.650   6.413 -0.0097  0.5747  0.5183
18878TIP3    H178049   4.357   0.676   6.340 -1.6722 -0.7560 -1.3380
18878TIP3    H278050   4.350   0.676   6.492  0.6913  4.5253 -0.9903
18879TIP3   OH278051   0.745   0.108  12.493  0.8408 -0.0890  0.3270
18879TIP3    H178052   0.684   0.137  12.560  0.6818  1.0833 -0.2899
18879TIP3    H278053   0.816   0.066  12.541  0.2904 -0.0858  1.1552
18880TIP3   OH278054   2.043   3.896  11.483 -0.4272  0.0956  0.2071
18880TIP3    H178055   1.965   3.942  11.514  0.0311  1.2267 -0.2893
18880TIP3    H278056   2.097   3.964  11.441 -0.1075 -1.0194 -1.2764
18881TIP3   OH278057   1.322   1.234   0.405 -0.0324  0.2895 -0.0669
18881TIP3    H178058   1.374   1.207   0.481 -0.3412 -0.9202 -0.2659
18881TIP3    H278059   1.258   1.164   0.393  0.3993  0.1384 -1.8149
18882TIP3   OH278060   2.983   2.280   4.763 -0.0066  0.1735 -0.8397
18882TIP3    H178061   2.950   2.365   4.734  0.3915  0.0816 -1.5833
18882TIP3    H278062   3.054   2.301   4.823 -0.1350  0.3678 -0.7567
18883TIP3   OH278063   6.349   4.361  17.082 -0.0496 -0.9852  0.3752
18883TIP3    H178064   6.307   4.444  17.058  0.0943 -1.1301 -0.4242
18883TIP3    H278065   6.434   4.386  17.117  1.4344 -0.8568 -2.9145
18884TIP3   OH278066   5.075   1.124  17.258  0.0790  0.5227  0.0033
18884TIP3    H178067   5.068   1.220  17.259  0.0941  0.6336  3.7597
18884TIP3    H278068   5.168   1.107  17.243  0.5397  1.2586  1.7698
18885TIP3   OH278069   4.421   4.170  16.297 -0.4290 -0.0569 -0.1430
18885TIP3    H178070   4.508   4.132  16.284 -1.0104 -0.9411 -1.7101
18885TIP3    H278071   4.385   4.179  16.209 -2.0901 -0.0966  0.4833
18886TIP3   OH278072   6.300   3.691   4.567 -0.8811 -0.3619  0.0057
18886TIP3    H178073   6.224   3.657   4.519 -0.7267 -1.9779  0.8433
18886TIP3    H278074   6.324   3.621   4.627  0.1750  0.8306  1.0370
18887TIP3   OH278075   1.874   2.605   6.698  0.0796  0.0784  0.2841
18887TIP3    H178076   1.860   2.528   6.753 -5.4507  0.6487  0.2537
18887TIP3    H278077   1.873   2.571   6.609  2.6710 -0.1502  0.2550
18888TIP3   OH278078   3.905   5.969   3.382 -0.1361  0.0230 -0.0292
18888TIP3    H178079   3.915   5.993   3.291  0.2201  1.9752  0.4867
18888TIP3    H278080   3.811   5.967   3.397 -0.1775  0.6199 -0.2161
18889TIP3   OH278081   1.820   2.227   1.188 -0.0456  0.0846 -0.2944
18889TIP3    H178082   1.734   2.204   1.153 -1.1652  0.9970  1.6887
18889TIP3    H278083   1.875   2.241   1.110 -1.9401  0.4707 -1.6362
18890TIP3   OH278084   6.216   5.909  16.212 -0.0877  0.4439 -0.5002
18890TIP3    H178085   6.215   5.960  16.131 -1.3946  1.6660  0.2539
18890TIP3    H278086   6.124   5.890  16.230  0.3516 -2.4549 -0.8690
18891TIP3   OH278087   6.355   1.179   3.963  0.3428 -0.7100 -0.1237
18891TIP3    H178088   6.408   1.245   3.917 -0.8431 -1.7723 -3.2014
18891TIP3    H278089   6.412   1.103   3.969  0.1526 -0.9073 -0.7928
18892TIP3   OH278090   1.876   6.462  15.669  0.0902  0.0736  0.3099
18892TIP3    H178091   1.812   6.527  15.697 -0.3838  0.1936 -1.0032
18892TIP3    H278092   1.827   6.401  15.615  1.6058  2.1277 -3.7501
18893TIP3   OH278093   2.366   5.710   5.030  0.7683 -0.2577 -0.6734
18893TIP3    H178094   2.415   5.743   5.105  2.1641  0.9080 -2.0173
18893TIP3    H278095   2.421   5.640   4.994  1.2684  0.7125 -1.8901
18894TIP3   OH278096   4.165   4.592   4.134 -0.1892  0.1278  0.3315
18894TIP3    H178097   4.081   4.549   4.151 -0.6745  0.9267  0.0609
18894TIP3    H278098   4.185   4.638   4.215 -1.1331  1.7134 -0.2781
18895TIP3   OH278099   0.242   6.679   1.818  0.4253  0.1940 -0.5009
18895TIP3    H178100   0.187   6.722   1.753  1.5196  1.4427 -0.6360
18895TIP3    H278101   0.275   6.750   1.873  2.7093 -0.3600 -1.0463
18896TIP3   OH278102   5.057   3.728  14.379 -0.7797  0.1863  0.2226
18896TIP3    H178103   4.972   3.713  14.420 -1.4789  1.4660 -0.6901
18896TIP3    H278104   5.068   3.823  14.379  0.5602  0.0527  0.1176
18897TIP3   OH278105   6.668   4.470   3.316 -0.1412  0.2096  0.0411
18897TIP3    H178106   6.752   4.491   3.356 -0.3191  0.7828  0.1300
18897TIP3    H278107   6.673   4.377   3.296 -0.1452 -0.1527  1.6080
18898TIP3   OH278108   5.972   5.605   4.208  0.4715  0.8267  0.2609
18898TIP3    H178109   5.922   5.589   4.288 -0.9976  0.0288 -0.7724
18898TIP3    H278110   6.046   5.544   4.213 -0.3700 -0.2049  0.3820
18899TIP3   OH278111   3.601   6.000  17.073 -0.0190  0.2090 -0.1324
18899TIP3    H178112   3.684   5.953  17.077  0.3155  0.8337  0.5265
18899TIP3    H278113   3.620   6.080  17.024 -0.2911  0.2404 -0.1943
18900TIP3   OH278114   4.104   1.896  13.708  0.2056  0.1295  0.3881
18900TIP3    H178115   4.142   1.845  13.636  1.6057  1.0423  0.4314
18900TIP3    H278116   4.178   1.946  13.742 -1.0229  1.8641  0.6067
18901TIP3   OH278117   5.938   6.474   1.465 -0.1259  0.1028  0.2774
18901TIP3    H178118   5.860   6.419   1.474 -0.4815  0.5767  0.1535
18901TIP3    H278119   5.905   6.555   1.428  0.5299  0.0674 -0.3996
18902TIP3   OH278120   2.130   4.099   0.209 -0.4423  0.1176 -0.6578
18902TIP3    H178121   2.197   4.133   0.151 -2.4620 -1.3809 -4.1552
18902TIP3    H278122   2.057   4.161   0.203 -0.3835  0.4208  1.0856
18903TIP3   OH278123   5.718   6.467   5.559 -0.6768  0.3919 -0.3154
18903TIP3    H178124   5.793   6.521   5.581 -0.7770  0.4154 -0.0279
18903TIP3    H278125   5.720   6.396   5.623 -0.8247  0.3219 -0.3868
18904TIP3   OH278126   3.426   5.711  13.011  0.2557 -0.2065 -0.0822
18904TIP3    H178127   3.403   5.729  13.102 -1.4797  1.1625 -0.7260
18904TIP3    H278128   3.369   5.639  12.985 -0.5229  0.5489 -0.5407
18905TIP3   OH278129   5.261   4.294   3.267  0.9211 -0.2501  0.6444
18905TIP3    H178130   5.226   4.312   3.180  2.4017  0.5911  0.1948
18905TIP3    H278131   5.234   4.204   3.286 -0.6004  0.0124 -0.0728
18906TIP3   OH278132   3.025   5.968  14.661  0.0148  0.3336  0.9011
18906TIP3    H178133   2.987   5.893  14.617 -1.0400  1.6035 -0.4163
18906TIP3    H278134   3.052   5.934  14.747  0.2585 -1.6987  0.0717
18907TIP3   OH278135   6.706   2.876   0.258  0.0072 -0.7993  0.0446
18907TIP3    H178136   6.714   2.879   0.163  0.1996 -1.0207  0.0529
18907TIP3    H278137   6.718   2.784   0.280 -1.0513 -0.9044  0.1955
18908TIP3   OH278138   2.404   3.976  12.052  0.0132 -0.5645  0.3392
18908TIP3    H178139   2.475   3.982  11.987 -0.9726 -0.5299 -0.7718
18908TIP3    H278140   2.400   3.883  12.075 -0.5809 -0.8386 -0.7852
18909TIP3   OH278141   3.536   4.523  16.939 -0.0507 -0.1819  0.1446
18909TIP3    H178142   3.529   4.611  16.976  0.9350  1.3347 -2.9132
18909TIP3    H278143   3.616   4.487  16.978  0.9426  1.3326 -0.3982
18910TIP3   OH278144   0.853   3.992   2.172 -0.2078 -0.3778 -0.6795
18910TIP3    H178145   0.800   3.913   2.184  0.3192 -0.3955  2.1642
18910TIP3    H278146   0.801   4.061   2.212  1.5436 -0.2852  1.6050
18911TIP3   OH278147   0.030   1.997  11.519  0.5409 -0.4767 -0.1120
18911TIP3    H178148   0.082   2.077  11.512  1.2618 -1.0670 -3.0713
18911TIP3    H278149  -0.057   2.022  11.491  0.4148 -0.4603  0.2888
18912TIP3   OH278150   4.495   0.615  16.006  0.1693  0.1275  0.0997
18912TIP3    H178151   4.565   0.593  16.067  1.4617 -0.1362 -1.4316
18912TIP3    H278152   4.443   0.535  15.998  0.2557  0.0306  0.5131
18913TIP3   OH278153   4.743   3.984   0.287  0.1625  0.1834 -0.0697
18913TIP3    H178154   4.692   3.953   0.362  3.1401 -1.3261  1.5139
18913TIP3    H278155   4.778   3.905   0.247  1.8116  1.1472 -0.6186
18914TIP3   OH278156   5.551   3.766   2.905  0.1471 -0.2771  0.4896
18914TIP3    H178157   5.630   3.800   2.946 -0.3210 -0.5513  1.6569
18914TIP3    H278158   5.498   3.734   2.978 -0.8526 -0.4925 -0.3116
18915TIP3   OH278159   2.596   5.138  15.806  0.5353  0.0945 -0.0501
18915TIP3    H178160   2.572   5.065  15.749 -0.5302 -0.0814  0.5937
18915TIP3    H278161   2.598   5.100  15.894 -1.2042  1.0560  0.4559
18916TIP3   OH278162   1.340   6.154   4.952 -0.1220  0.0433 -0.0288
18916TIP3    H178163   1.331   6.244   4.983 -1.0267 -0.1124  0.1905
18916TIP3    H278164   1.320   6.158   4.859 -0.6731 -0.0162  0.0884
18917TIP3   OH278165   4.166   1.269  14.961  0.2106  0.6059  0.2596
18917TIP3    H178166   4.096   1.270  15.025 -0.1733  2.3470 -0.1481
18917TIP3    H278167   4.234   1.213  15.000 -1.0982 -0.5712  0.9379
18918TIP3   OH278168   1.694   3.886   3.996  0.1473  0.1775  0.6882
18918TIP3    H178169   1.773   3.835   3.978  0.7666  0.7676  1.6377
18918TIP3    H278170   1.702   3.963   3.939  0.8995  0.8474  1.6556
18919TIP3   OH278171   3.250   3.379  13.364 -0.8909  0.3769  0.2654
18919TIP3    H178172   3.336   3.343  13.381 -0.8675  0.6942  0.8451
18919TIP3    H278173   3.236   3.366  13.270  0.1860  1.1747 -0.0148
18920TIP3   OH278174   3.614   1.286   1.068 -0.0456  0.1917  0.2007
18920TIP3    H178175   3.674   1.345   1.022  1.0275 -0.8844  0.1713
18920TIP3    H278176   3.578   1.339   1.139 -0.4808  1.3959 -0.8821
18921TIP3   OH278177   3.777   6.206   1.372 -0.7548  0.3275  0.0771
18921TIP3    H178178   3.685   6.213   1.397 -0.3238  0.0468  1.9295
18921TIP3    H278179   3.807   6.124   1.412  0.5822  0.9982  0.5209
18922TIP3   OH278180   0.718   5.029   4.726  0.4702  0.5071  0.3631
18922TIP3    H178181   0.774   4.954   4.749  1.9483  1.7349  0.9479
18922TIP3    H278182   0.657   5.037   4.799  0.0537 -0.3396  0.1199
18923TIP3   OH278183   5.522   5.016  14.694 -0.5531  0.0521 -0.0686
18923TIP3    H178184   5.511   4.922  14.706  2.6145 -0.5798 -1.0913
18923TIP3    H278185   5.554   5.047  14.779 -2.7990  0.5172  0.6634
18924TIP3   OH278186   2.813   2.926  15.449 -0.1274  0.1629  0.2084
18924TIP3    H178187   2.823   2.882  15.364 -1.3828  0.8720 -0.3453
18924TIP3    H278188   2.721   2.955  15.449  0.7324  3.2046  0.3148
18925TIP3   OH278189   2.929   6.587   6.257 -0.2028 -0.0957 -0.4703
18925TIP3    H178190   2.945   6.553   6.345 -0.4570 -1.6325 -0.9810
18925TIP3    H278191   2.993   6.656   6.245  1.0816 -1.1243  0.2417
18926TIP3   OH278192   2.266   3.481   2.932  0.7297  0.0233 -0.2939
18926TIP3    H178193   2.238   3.571   2.915 -0.7472 -0.4131 -0.3094
18926TIP3    H278194   2.338   3.490   2.995  0.0326  1.1869  0.3822
18927TIP3   OH278195   4.051   2.065  11.777  0.0901  0.2883  0.4894
18927TIP3    H178196   4.132   2.016  11.785 -1.0227 -1.5391  1.1915
18927TIP3    H278197   3.996   2.034  11.849 -1.2956  1.3360 -0.0525
18928TIP3   OH278198   6.655   5.933   0.721  0.7982 -0.6708 -0.1561
18928TIP3    H178199   6.653   6.025   0.746 -3.2298 -0.8711  0.9226
18928TIP3    H278200   6.689   5.888   0.799  2.4774 -0.2005 -0.5755
18929TIP3   OH278201   1.006   0.746  12.363 -0.0109 -0.3639  0.0684
18929TIP3    H178202   0.912   0.742  12.342 -0.5518 -0.4617  2.3015
18929TIP3    H278203   1.028   0.839  12.355 -0.3318 -0.3153 -0.2925
18930TIP3   OH278204   3.605   0.129   3.597  0.4804  0.3567  0.1678
18930TIP3    H178205   3.541   0.183   3.552  0.9209  0.4044 -0.4091
18930TIP3    H278206   3.576   0.039   3.582 -0.6783  0.4123  1.7556
18931TIP3   OH278207   1.444   3.530  10.969 -0.4088  0.7427  0.5272
18931TIP3    H178208   1.516   3.473  10.995 -1.4474  0.0797  2.0996
18931TIP3    H278209   1.391   3.477  10.910 -1.2881  0.0927  1.8640
18932TIP3   OH278210   4.756   2.876  12.762  0.6087  0.3365  0.0546
18932TIP3    H178211   4.764   2.871  12.667  0.7291  1.3882  0.0034
18932TIP3    H278212   4.700   2.951  12.778  0.6834  0.2385  0.8238
18933TIP3   OH278213   4.170   2.468  11.326  0.4278 -0.4467 -0.3205
18933TIP3    H178214   4.210   2.396  11.278 -0.1177 -1.0351  0.0984
18933TIP3    H278215   4.129   2.522  11.258 -0.1939 -1.1799 -0.5334
18934TIP3   OH278216   4.480   1.577   4.804 -0.1135 -0.0126 -0.3970
18934TIP3    H178217   4.572   1.597   4.783 -0.0142 -0.9485 -0.9082
18934TIP3    H278218   4.445   1.541   4.723 -0.1324 -2.3734  0.5860
18935TIP3   OH278219   5.160   4.416   5.545  0.1252 -0.2950  0.0909
18935TIP3    H178220   5.217   4.390   5.473  0.6060 -0.0639  0.3781
18935TIP3    H278221   5.108   4.338   5.564 -1.4723  0.2274 -1.8288
18936TIP3   OH278222   5.630   4.415   0.058  0.0936  0.5043 -0.0983
18936TIP3    H178223   5.664   4.352  -0.005 -1.2223 -0.9493  0.5997
18936TIP3    H278224   5.692   4.489   0.053  0.7387 -0.1026 -2.1209
18937TIP3   OH278225   0.147   0.333  14.783 -0.0048  0.5146  0.1434
18937TIP3    H178226   0.112   0.366  14.866  0.7332 -2.3365  1.7210
18937TIP3    H278227   0.241   0.322  14.800  0.9096  3.1545 -2.3179
18938TIP3   OH278228   0.195   5.022   5.065 -0.5462 -0.4591  0.1136
18938TIP3    H178229   0.127   4.956   5.048 -0.9413 -0.0219 -0.0324
18938TIP3    H278230   0.260   4.977   5.118 -0.7995 -0.9777 -0.0133
18939TIP3   OH278231   3.099   4.561   4.723 -0.5506 -0.4283 -0.4821
18939TIP3    H178232   3.068   4.625   4.787  1.0618  0.7587 -0.8249
18939TIP3    H278233   3.125   4.485   4.775  2.3149  1.1257  0.5611
18940TIP3   OH278234   1.425   4.637   1.368  0.1893 -0.2149  0.1723
18940TIP3    H178235   1.424   4.622   1.273  1.8019  0.3449  0.0302
18940TIP3    H278236   1.390   4.556   1.405 -0.2486 -0.5315 -0.8900
18941TIP3   OH278237   3.273   0.617   2.643 -0.2388 -0.5622 -0.4366
18941TIP3    H178238   3.336   0.607   2.573 -0.7314 -2.6966 -0.6329
18941TIP3    H278239   3.287   0.542   2.700 -0.6371  0.4993  1.1329
18942TIP3   OH278240   2.898   1.041   2.649 -0.1402  0.0457  0.0328
18942TIP3    H178241   2.923   0.971   2.708  0.9047 -0.7732 -1.3052
18942TIP3    H278242   2.803   1.034   2.640 -0.0331 -1.3139 -0.1941
18943TIP3   OH278243   6.306   6.602  11.436 -0.4827 -0.0398  0.6140
18943TIP3    H178244   6.246   6.621  11.508 -0.5661 -0.6565  0.7157
18943TIP3    H278245   6.337   6.513  11.454  0.5941  0.3232  0.6541
18944TIP3   OH278246   0.745   4.572  14.433  0.4500  0.2490 -0.1026
18944TIP3    H178247   0.816   4.635  14.445 -0.5687  1.3932  0.1135
18944TIP3    H278248   0.754   4.511  14.506 -0.5727  2.1688  1.7481
18945TIP3   OH278249   3.927   6.108  16.301  0.1731 -0.0722 -0.3730
18945TIP3    H178250   3.956   6.199  16.290  0.0488  0.0786  0.4884
18945TIP3    H278251   3.853   6.113  16.362 -1.6790 -0.4621 -2.4738
18946TIP3   OH278252   5.987   6.359  12.406  0.2462 -0.0166  0.2780
18946TIP3    H178253   5.925   6.424  12.372 -1.3552 -1.5428  0.1886
18946TIP3    H278254   6.045   6.340  12.331  0.4370  0.9361  0.1682
18947TIP3   OH278255   6.019   2.747  12.486 -0.3974  0.4344 -1.0845
18947TIP3    H178256   6.059   2.717  12.568  1.4226  0.4624 -1.9056
18947TIP3    H278257   5.942   2.797  12.514 -0.2941 -0.2390  0.5525
18948TIP3   OH278258   6.744   6.348   4.802 -0.0685 -0.2975 -0.2005
18948TIP3    H178259   6.820   6.311   4.758 -0.7957  1.4522 -3.2655
18948TIP3    H278260   6.757   6.443   4.795 -3.2530  0.1437 -2.5839
18949TIP3   OH278261   5.625   6.370  12.654 -0.1020  0.3164 -0.3386
18949TIP3    H178262   5.649   6.462  12.660 -1.4142  0.9008 -2.6113
18949TIP3    H278263   5.666   6.340  12.573  1.3038 -1.4849  0.9614
18950TIP3   OH278264   0.108   1.374   1.560 -0.1168 -0.2654 -0.2268
18950TIP3    H178265   0.019   1.389   1.529 -0.4409 -1.8529 -0.1226
18950TIP3    H278266   0.115   1.279   1.569  1.0215 -0.0667  1.4314
18951TIP3   OH278267   3.225   0.069  13.534 -0.6564  0.0195  0.3002
18951TIP3    H178268   3.311   0.099  13.504 -1.8108  1.4548 -1.8591
18951TIP3    H278269   3.179   0.150  13.558 -0.7583 -0.8632  3.6379
18952TIP3   OH278270   2.938   3.430   3.084  0.1528  0.1995  0.2529
18952TIP3    H178271   2.875   3.357   3.084 -0.0937  0.3999 -0.4897
18952TIP3    H278272   2.925   3.472   2.999  1.4125  0.1495  0.0180
18953TIP3   OH278273   6.241   1.359  13.225 -0.1448  0.0152  0.0319
18953TIP3    H178274   6.261   1.424  13.158  0.3765 -0.9005 -0.7256
18953TIP3    H278275   6.325   1.317  13.244 -0.2695  0.3072  1.3229
18954TIP3   OH278276   5.277   4.785  16.133  0.0285  0.0216  0.1097
18954TIP3    H178277   5.343   4.738  16.184 -2.7209 -1.0133  2.9827
18954TIP3    H278278   5.203   4.725  16.128 -1.1513  1.5145 -2.1252
18955TIP3   OH278279   0.396   0.799   5.570 -0.1254 -0.3713 -0.1747
18955TIP3    H178280   0.483   0.759   5.574  0.0947  0.2049  1.4960
18955TIP3    H278281   0.410   0.888   5.601 -1.3349 -0.2966  0.1817
18956TIP3   OH278282   4.720   6.374  11.364 -0.0430 -0.6674 -0.2035
18956TIP3    H178283   4.645   6.342  11.313  0.9470 -0.5282 -1.7995
18956TIP3    H278284   4.791   6.313  11.345  0.1677 -1.0476  1.6388
18957TIP3   OH278285   5.334   4.521  12.414 -0.8119 -0.2291 -0.4307
18957TIP3    H178286   5.380   4.535  12.332 -1.3800  0.0831 -0.7040
18957TIP3    H278287   5.262   4.462  12.391 -0.2379 -1.1567  0.0984
18958TIP3   OH278288   4.295   1.507  12.719 -0.1216 -0.0924  0.2613
18958TIP3    H178289   4.322   1.416  12.732  0.5750  0.2285  1.2092
18958TIP3    H278290   4.376   1.553  12.697 -0.6153  0.1585 -1.1435
18959TIP3   OH278291   5.371   0.779   3.876  0.4002  0.0364  0.1750
18959TIP3    H178292   5.418   0.702   3.843 -0.6369 -0.3946 -0.3663
18959TIP3    H278293   5.328   0.748   3.956 -0.6362 -0.1851 -0.4509
18960TIP3   OH278294   6.030   3.507  14.430 -0.3981  0.3112  0.3828
18960TIP3    H178295   6.076   3.491  14.348  2.2645 -2.4792  2.1939
18960TIP3    H278296   6.017   3.602  14.432 -0.5228  0.5063 -3.1252
18961TIP3   OH278297   4.745   4.738   3.392 -0.3292  0.4709 -0.2529
18961TIP3    H178298   4.801   4.671   3.430  1.8546  1.0378 -2.2705
18961TIP3    H278299   4.734   4.803   3.462  3.1740  1.2665 -0.2726
18962TIP3   OH278300   2.364   2.442  16.910 -0.1930  0.2903 -0.3605
18962TIP3    H178301   2.449   2.412  16.942 -0.1339  0.4346 -0.3794
18962TIP3    H278302   2.339   2.512  16.971 -0.1997  0.3910 -0.4774
18963TIP3   OH278303   2.315   2.150   0.039  0.1786  0.4993 -0.0975
18963TIP3    H178304   2.331   2.243   0.023 -0.0662  0.6824  0.6450
18963TIP3    H278305   2.226   2.135   0.007  0.1077  0.5978  0.0480
18964TIP3   OH278306   4.952   1.058  10.747  0.4874 -0.0307 -0.2891
18964TIP3    H178307   4.898   0.986  10.778  1.2439 -0.1120  0.9279
18964TIP3    H278308   4.891   1.129  10.730 -0.0494 -0.2909  0.5333
18965TIP3   OH278309   1.805   3.520  15.068  0.4531  0.5327 -0.2124
18965TIP3    H178310   1.864   3.506  14.994  1.7452  1.9594  0.4886
18965TIP3    H278311   1.821   3.611  15.094 -0.7386  0.3820  1.1681
18966TIP3   OH278312   0.617   3.584   2.016 -0.4211  0.6773 -0.3668
18966TIP3    H178313   0.668   3.650   1.970  1.9448  0.0644  1.1640
18966TIP3    H278314   0.528   3.618   2.017  0.1688  2.4489 -2.0450
18967TIP3   OH278315   5.502   4.685  16.465  0.2780  0.7438  0.2100
18967TIP3    H178316   5.484   4.629  16.540  0.4561  1.5148  0.8422
18967TIP3    H278317   5.452   4.765  16.482 -2.5735 -0.3214 -2.1908
18968TIP3   OH278318   4.959   5.758   5.011 -0.7092  0.3100  0.0256
18968TIP3    H178319   5.045   5.759   4.969 -0.5255  1.4663  0.3978
18968TIP3    H278320   4.897   5.773   4.940 -0.7378 -1.6781 -0.4426
18969TIP3   OH278321   5.006   3.698  10.896  0.5401 -0.7720 -0.1883
18969TIP3    H178322   5.076   3.634  10.890  1.7675  0.6378 -1.6967
18969TIP3    H278323   4.941   3.671  10.831  0.1582 -1.4745  0.4644
18970TIP3   OH278324   2.414   1.777   5.334 -0.5343  0.4935  0.7240
18970TIP3    H178325   2.432   1.690   5.297 -1.0580  0.0161  1.5723
18970TIP3    H278326   2.327   1.770   5.372 -1.3331  1.9233 -0.7243
18971TIP3   OH278327   1.483   1.147   5.593  0.3804  0.4787 -0.6551
18971TIP3    H178328   1.535   1.226   5.602  2.0294 -0.4692 -1.3297
18971TIP3    H278329   1.399   1.177   5.557 -0.4132  2.3007  2.3962
18972TIP3   OH278330   2.221   4.369  17.002  0.3510 -0.0065 -0.5058
18972TIP3    H178331   2.178   4.413  16.928 -0.3363  0.3317  0.0863
18972TIP3    H278332   2.250   4.440  17.059 -0.8834 -0.3001  0.5203
18973TIP3   OH278333   2.942   1.652   5.398  0.1389  0.5403  0.4724
18973TIP3    H178334   2.987   1.735   5.413  2.5489 -0.8402  1.3499
18973TIP3    H278335   2.954   1.603   5.479  2.4581 -2.2445 -1.3722
18974TIP3   OH278336   2.943   1.657  12.630 -0.7016 -0.2783 -0.0222
18974TIP3    H178337   3.003   1.589  12.598 -0.6078 -0.8691  1.3455
18974TIP3    H278338   2.995   1.737  12.631  0.0514 -0.7563  1.0065
18975TIP3   OH278339   1.848   1.402   5.142  0.2692  0.1114  0.0402
18975TIP3    H178340   1.943   1.406   5.128  0.3943 -0.0406  0.7919
18975TIP3    H278341   1.831   1.473   5.205  0.0596 -0.5883  0.7839
18976TIP3   OH278342   0.822   5.534  11.026 -0.0034  0.3230 -0.3577
18976TIP3    H178343   0.889   5.466  11.030  1.6107  1.9193  1.1222
18976TIP3    H278344   0.855   5.595  10.960 -1.2534 -0.0934 -1.4012
18977TIP3   OH278345   5.740   2.563   2.401  0.0895  1.1488 -0.0645
18977TIP3    H178346   5.792   2.608   2.334 -0.0879  1.3986 -0.0365
18977TIP3    H278347   5.773   2.596   2.484 -0.0444  1.2293 -0.0434
18978TIP3   OH278348   2.686   1.636  12.577  0.2334  0.3478 -0.1761
18978TIP3    H178349   2.669   1.641  12.671 -0.1457  0.1142 -0.2264
18978TIP3    H278350   2.780   1.649  12.568  0.2219  0.7069  0.2083
18979TIP3   OH278351   2.077   6.401   4.646  0.1781  0.2314  0.1060
18979TIP3    H178352   2.033   6.353   4.716  0.4788 -2.8984 -1.6302
18979TIP3    H278353   2.027   6.481   4.636 -0.6546  0.1964  2.9645
18980TIP3   OH278354   0.778   2.946  17.159 -0.1422  0.3201  0.2642
18980TIP3    H178355   0.843   2.875  17.156 -1.2130 -0.6790 -0.0212
18980TIP3    H278356   0.698   2.904  17.191 -1.2169  1.0616 -1.3452
18981TIP3   OH278357   0.225   0.510   0.871  0.3205  0.3833 -0.1684
18981TIP3    H178358   0.168   0.586   0.882  1.3670  1.2984 -0.8056
18981TIP3    H278359   0.217   0.487   0.778 -0.8424 -1.0155  0.2453
18982TIP3   OH278360   6.766   5.714   5.863 -0.0619  0.5295 -0.5428
18982TIP3    H178361   6.848   5.665   5.855  0.0041  0.7060 -0.9898
18982TIP3    H278362   6.698   5.648   5.857  0.0350  0.4530 -0.8217
18983TIP3   OH278363   3.518   1.321   2.616 -0.2343 -0.6016 -0.0127
18983TIP3    H178364   3.476   1.329   2.702 -0.9130 -0.0460 -0.3875
18983TIP3    H278365   3.547   1.230   2.613  1.4769 -0.1646  1.5493
18984TIP3   OH278366   5.316   5.090  16.632 -0.4606 -0.6309  0.6628
18984TIP3    H178367   5.384   5.082  16.565 -0.7707  1.0700  0.0935
18984TIP3    H278368   5.341   5.168  16.681 -1.3986 -0.6383  1.1712
18985TIP3   OH278369   3.751   2.131   0.912  0.3895 -0.6431  0.4398
18985TIP3    H178370   3.821   2.177   0.865  0.6087  0.1542  1.5094
18985TIP3    H278371   3.763   2.039   0.887  0.7060 -0.2965 -0.7761
18986TIP3   OH278372   5.308   2.891   2.088  0.0614  0.3386 -0.2521
18986TIP3    H178373   5.267   2.816   2.045 -3.3172  0.2954  2.5993
18986TIP3    H278374   5.252   2.965   2.066  2.1068  1.6634 -1.2373
18987TIP3   OH278375   3.227   0.417   4.122 -0.0700  0.7051  0.8165
18987TIP3    H178376   3.268   0.331   4.111  0.9686  1.0869  1.6024
18987TIP3    H278377   3.134   0.398   4.128 -0.0528 -0.1927 -0.9579
18988TIP3   OH278378   5.995   4.271   3.202  0.1997  0.5019  0.3113
18988TIP3    H178379   5.930   4.202   3.215  0.0677  0.9996  2.8587
18988TIP3    H278380   6.079   4.227   3.209  0.3882 -0.4275 -4.5099
18989TIP3   OH278381   0.769   2.945  13.046 -0.1877  0.1300 -0.1667
18989TIP3    H178382   0.787   2.997  12.968 -0.8069  0.7576  0.0985
18989TIP3    H278383   0.745   3.009  13.113 -3.2631 -0.5646 -0.4568
18990TIP3   OH278384   2.250   0.070  12.921  0.2486  0.3892  0.0318
18990TIP3    H178385   2.316   0.029  12.866 -0.4365 -1.4056  0.4720
18990TIP3    H278386   2.210  -0.003  12.969 -2.3477  1.3373 -0.5374
18991TIP3   OH278387   0.152   0.100  14.144  0.9098 -0.2658  0.7252
18991TIP3    H178388   0.125   0.159  14.074 -0.3524 -0.2170  1.2181
18991TIP3    H278389   0.227   0.144  14.185 -1.0491  1.9654  2.2043
18992TIP3   OH278390   4.811   2.636   6.840 -0.2264  0.8500  0.1132
18992TIP3    H178391   4.767   2.552   6.835  1.1528 -0.1593  2.8428
18992TIP3    H278392   4.751   2.698   6.799 -2.5625 -1.0085  0.5806
18993TIP3   OH278393   4.698   2.562   6.099  0.3757 -0.4635  0.5186
18993TIP3    H178394   4.729   2.629   6.161 -0.2662  1.4140 -1.0585
18993TIP3    H278395   4.604   2.558   6.114  0.3312 -0.5717  0.2150
18994TIP3   OH278396   6.123   2.901   0.676  0.1826 -0.7358  0.2582
18994TIP3    H178397   6.122   2.837   0.747 -0.5830 -2.1058 -0.9330
18994TIP3    H278398   6.157   2.853   0.600  2.3633  1.0710 -0.0125
18995TIP3   OH278399   2.058   3.968  11.139  0.0621  0.2495 -0.1770
18995TIP3    H178400   2.038   3.937  11.051  0.9681 -1.3347  0.1459
18995TIP3    H278401   2.025   3.900  11.197  1.8256 -0.0215  0.5739
18996TIP3   OH278402   5.540   5.334  14.413  0.1066  0.0883 -0.0374
18996TIP3    H178403   5.486   5.259  14.389 -0.0023 -1.1957  3.5118
18996TIP3    H278404   5.612   5.296  14.464  1.3326  2.2277 -0.0565
18997TIP3   OH278405   0.468   2.931  10.878  0.0975 -0.3045  0.0590
18997TIP3    H178406   0.437   2.949  10.967  0.9480 -0.7888  0.4557
18997TIP3    H278407   0.450   2.838  10.865 -0.3281 -0.1642 -0.4100
18998TIP3   OH278408   5.982   4.659   0.371 -0.6598 -0.2382  0.0174
18998TIP3    H178409   5.930   4.579   0.358 -1.9809  0.5586  0.1853
18998TIP3    H278410   6.048   4.635   0.436 -0.7961 -1.2938 -0.2154
18999TIP3   OH278411   6.147   6.137   4.418 -0.5016  0.1524  0.1102
18999TIP3    H178412   6.188   6.180   4.493  0.2401 -0.0613 -0.1608
18999TIP3    H278413   6.053   6.143   4.435 -0.3964  1.3951  0.3381
19000TIP3   OH278414   5.884   6.707   2.645  0.6165 -0.2921 -0.0719
19000TIP3    H178415   5.821   6.733   2.578  0.2332 -0.7797  0.0918
19000TIP3    H278416   5.934   6.787   2.663  0.7374 -0.1626 -0.9431
19001TIP3   OH278417   0.885   2.734   6.795 -0.6020  0.4026  0.2682
19001TIP3    H178418   0.807   2.746   6.849 -0.7637 -0.0596  0.1424
19001TIP3    H278419   0.903   2.640   6.798  0.0537  0.5294  0.4338
19002TIP3   OH278420   4.643   0.168  11.523 -0.0872  0.1647 -0.7019
19002TIP3    H178421   4.713   0.136  11.466  0.9852  1.2805 -0.0634
19002TIP3    H278422   4.671   0.256  11.548 -1.8934  0.7786 -0.6817
19003TIP3   OH278423   4.907   2.463   5.930  0.4283  0.3573  0.0618
19003TIP3    H178424   4.847   2.485   6.002  0.2754 -2.6181  0.9874
19003TIP3    H278425   4.994   2.470   5.968  0.3319 -1.6389  0.7595
19004TIP3   OH278426   5.739   5.626   0.599 -0.8680 -0.3082 -0.2738
19004TIP3    H178427   5.681   5.690   0.638 -1.1128 -0.6206 -0.1189
19004TIP3    H278428   5.776   5.578   0.674  1.6602  1.6073 -0.1622
19005TIP3   OH278429   2.346   5.141   2.259 -0.7067 -0.1752  0.1979
19005TIP3    H178430   2.270   5.198   2.271 -0.9941 -0.5514  0.1845
19005TIP3    H278431   2.416   5.199   2.231 -1.3130 -0.0023 -0.9985
19006TIP3   OH278432   1.193   3.686   4.785  0.1276 -0.0493 -0.5891
19006TIP3    H178433   1.259   3.682   4.854  1.0821  0.9890 -1.3916
19006TIP3    H278434   1.240   3.722   4.709 -1.6929  2.3289 -0.7223
19007TIP3   OH278435   5.807   2.805  11.120  0.0736 -0.1998 -0.0282
19007TIP3    H178436   5.780   2.713  11.116 -1.7371  0.2242  1.3837
19007TIP3    H278437   5.825   2.828  11.028 -2.1799 -1.2040 -0.7978
19008TIP3   OH278438   5.164   2.974   1.496 -0.1318  0.3870 -0.5844
19008TIP3    H178439   5.176   2.884   1.525 -1.3956  0.5879  0.6720
19008TIP3    H278440   5.138   2.967   1.404 -2.5190 -0.7043  0.1083
19009TIP3   OH278441   5.379   6.756  13.030 -0.2590 -0.1051 -0.0432
19009TIP3    H178442   5.396   6.837  12.982 -0.5105 -0.1286 -0.1749
19009TIP3    H278443   5.438   6.692  12.991  0.9024  0.3253  0.9512
19010TIP3   OH278444   6.495   5.518  13.712 -0.0281 -0.5023  0.3341
19010TIP3    H178445   6.434   5.557  13.649  0.6299  1.8687  1.0675
19010TIP3    H278446   6.581   5.524  13.670  0.1336 -0.8674  0.6021
19011TIP3   OH278447   3.853   4.717   1.371  0.8979  0.2173 -0.3564
19011TIP3    H178448   3.826   4.804   1.342  2.4384  0.4773 -1.1351
19011TIP3    H278449   3.938   4.703   1.329  1.4899 -0.9538  1.1280
19012TIP3   OH278450   5.026   3.173  13.162 -0.1503 -0.0257  0.7170
19012TIP3    H178451   4.953   3.169  13.224  0.5546 -0.5095  1.5438
19012TIP3    H278452   5.070   3.088  13.171  0.6776  0.3631  0.4392
19013TIP3   OH278453   1.710   5.038  13.111  0.0994 -0.5708  0.3381
19013TIP3    H178454   1.631   4.994  13.141 -0.9908  1.5803  0.8229
19013TIP3    H278455   1.735   5.095  13.184  0.7889  0.4506 -0.6613
19014TIP3   OH278456   2.175   3.974  13.463 -0.2850  0.2677  0.3136
19014TIP3    H178457   2.102   3.928  13.422 -0.4761  0.2018  0.7178
19014TIP3    H278458   2.146   3.988  13.553  0.5946 -0.6518  0.7578
19015TIP3   OH278459   4.895   1.316  14.064 -0.8135 -0.4233 -0.4924
19015TIP3    H178460   4.861   1.382  14.124 -1.6817  0.2392 -1.6747
19015TIP3    H278461   4.935   1.366  13.993  0.9174 -1.1923 -0.1251
19016TIP3   OH278462   5.989   4.322  16.093  0.0970 -0.8152  0.1236
19016TIP3    H178463   6.066   4.273  16.064 -0.0018 -0.5999 -0.5050
19016TIP3    H278464   5.915   4.263  16.075 -0.1324 -0.0331 -1.6386
19017TIP3   OH278465   5.778   4.192   6.316  0.1834 -0.4154 -0.0146
19017TIP3    H178466   5.853   4.169   6.371 -0.9225  0.0077  1.7319
19017TIP3    H278467   5.801   4.278   6.280  0.9370 -0.7141 -0.2670
19018TIP3   OH278468   6.244   3.151   6.005  0.0661  0.1568  0.4725
19018TIP3    H178469   6.177   3.087   5.981 -0.3382  0.3263  1.1082
19018TIP3    H278470   6.303   3.104   6.064 -0.0007  0.2491  0.6155
19019TIP3   OH278471   4.292   2.546   3.009 -0.3878  0.3845  0.1391
19019TIP3    H178472   4.247   2.603   2.946  0.7989  2.4295  1.0447
19019TIP3    H278473   4.246   2.560   3.091  0.0483  0.1859  0.4198
19020TIP3   OH278474   5.418   2.824   2.359 -0.4230 -0.3089  0.4110
19020TIP3    H178475   5.483   2.888   2.329 -1.1430  0.5479  0.6294
19020TIP3    H278476   5.369   2.801   2.280 -0.2866 -0.4460  0.3663
19021TIP3   OH278477   1.304   0.771  13.389  0.7809 -0.0269  0.1916
19021TIP3    H178478   1.384   0.724  13.414 -0.9822 -2.1117  2.5742
19021TIP3    H278479   1.270   0.721  13.315  0.8579 -0.1958  0.2674
19022TIP3   OH278480   5.108   0.035  14.472  0.2257  0.1895  0.2246
19022TIP3    H178481   5.192   0.066  14.506  1.7016  0.1631 -3.0213
19022TIP3    H278482   5.132  -0.039  14.415 -1.7473  1.2068 -2.0842
19023TIP3   OH278483   2.560   2.348   4.579  0.2239 -0.6151 -1.0850
19023TIP3    H178484   2.595   2.369   4.492 -0.0178  1.2392 -0.7739
19023TIP3    H278485   2.469   2.379   4.576  0.4629  0.2666  0.0777
19024TIP3   OH278486   5.151   0.462   5.009  0.2209  0.3900 -0.4311
19024TIP3    H178487   5.136   0.535   4.950 -1.1442  1.1697  0.7931
19024TIP3    H278488   5.195   0.501   5.085 -0.6896  0.0188  0.3146
19025TIP3   OH278489   6.420   3.923  13.238 -0.5590  0.6609 -0.4459
19025TIP3    H178490   6.420   3.830  13.262  0.2012  0.3839 -1.4493
19025TIP3    H278491   6.410   3.969  13.321 -0.6546 -0.3091  0.0981
19026TIP3   OH278492   2.700   0.234   5.674  0.4626  0.7048  0.3286
19026TIP3    H178493   2.619   0.280   5.654 -0.3610 -1.2668 -1.1383
19026TIP3    H278494   2.768   0.285   5.629  0.1193  2.3933  1.6032
19027TIP3   OH278495   5.684   2.410   5.449 -0.4936 -0.5050  0.4264
19027TIP3    H178496   5.662   2.394   5.540 -0.0090  2.7764  1.2661
19027TIP3    H278497   5.779   2.423   5.449 -0.3224 -1.5275 -0.7736
19028TIP3   OH278498   1.171   3.089  16.142  0.1034 -0.5157  0.1446
19028TIP3    H178499   1.101   3.025  16.151  0.2648 -0.4998  2.0882
19028TIP3    H278500   1.251   3.039  16.157  0.6121 -0.6192 -2.4732
19029TIP3   OH278501   2.016   5.644  13.334  0.2060  0.1190  0.0833
19029TIP3    H178502   2.082   5.628  13.402 -0.3722  0.1140  0.6488
19029TIP3    H278503   2.024   5.737  13.314  1.6226 -0.2199 -1.1696
19030TIP3   OH278504   4.741   2.840  15.856  0.2466  0.0597  0.0882
19030TIP3    H178505   4.693   2.889  15.789  0.0483 -0.2455  0.0057
19030TIP3    H278506   4.825   2.885  15.863  0.5102 -0.2567 -0.7995
19031TIP3   OH278507   4.707   2.358   2.507 -0.6646  0.9909  0.6870
19031TIP3    H178508   4.693   2.413   2.584 -0.6301  0.9650  0.7118
19031TIP3    H278509   4.780   2.302   2.530 -1.5337  0.0325  1.1508
19032TIP3   OH278510   0.168   3.525   6.679  0.3660 -0.1204  0.2846
19032TIP3    H178511   0.223   3.489   6.749 -0.4951  1.2259  1.7156
19032TIP3    H278512   0.083   3.484   6.692  0.0757  0.4879  0.3370
19033TIP3   OH278513   2.974   3.274   3.922  0.5372 -0.1948  0.3286
19033TIP3    H178514   2.907   3.327   3.879 -1.0179 -0.8500  1.8498
19033TIP3    H278515   3.057   3.316   3.897 -0.1906 -0.6528 -3.4230
19034TIP3   OH278516   2.862   5.961  13.152  0.2217 -0.3625 -0.3810
19034TIP3    H178517   2.848   5.902  13.227 -0.1448  0.5107  0.2464
19034TIP3    H278518   2.809   5.922  13.082 -0.3963 -0.5304  0.1642
19035TIP3   OH278519   2.345   2.427   1.046  0.5823 -0.3090  0.0437
19035TIP3    H178520   2.343   2.500   1.109 -0.1726 -0.0716 -0.2422
19035TIP3    H278521   2.435   2.395   1.050  0.7106  0.1039  0.7861
19036TIP3   OH278522   4.582   2.542  15.352 -0.0503 -0.2585  0.5285
19036TIP3    H178523   4.501   2.576  15.314 -0.2930 -1.0774  0.2975
19036TIP3    H278524   4.571   2.447  15.353  0.4355 -0.3245  1.5720
19037TIP3   OH278525   1.812   3.553   1.729  0.4646 -0.1559 -0.3592
19037TIP3    H178526   1.812   3.641   1.765 -0.1774  0.1929 -1.1864
19037TIP3    H278527   1.831   3.565   1.636 -1.2155 -0.7289 -0.8075
19038TIP3   OH278528   1.479   4.347  14.110 -0.3764 -0.1158  0.7159
19038TIP3    H178529   1.514   4.399  14.182  0.4187 -0.4375  0.5811
19038TIP3    H278530   1.534   4.268  14.109  2.2278  1.5007 -2.5757
19039TIP3   OH278531   3.615   3.410  12.358 -0.2102 -0.0483 -0.0871
19039TIP3    H178532   3.558   3.378  12.288 -0.3111 -1.6320  0.6735
19039TIP3    H278533   3.677   3.468  12.313 -3.0486  2.6980 -0.7637
19040TIP3   OH278534   6.733   3.751   5.672 -0.3791  0.1388  0.3211
19040TIP3    H178535   6.817   3.716   5.644 -0.0462  0.9333  0.3068
19040TIP3    H278536   6.749   3.788   5.759 -1.0260 -0.8576  0.8894
19041TIP3   OH278537   5.711   1.445   1.483  0.4005 -0.1266  0.0647
19041TIP3    H178538   5.792   1.494   1.498  1.7401 -1.7036 -1.5544
19041TIP3    H278539   5.717   1.371   1.543 -0.1907  0.0973  0.4085
19042TIP3   OH278540   2.628   0.101  13.009 -0.2867 -0.0598 -0.0004
19042TIP3    H178541   2.620   0.080  12.916 -0.6047  1.2051 -0.2794
19042TIP3    H278542   2.633   0.196  13.011  1.4639 -0.1488  1.1685
19043TIP3   OH278543   2.312   2.329  14.956 -0.2422  0.0328  0.5689
19043TIP3    H178544   2.380   2.281  14.908 -0.6885  1.3545 -1.4912
19043TIP3    H278545   2.233   2.277  14.944 -0.0095 -0.5326  1.3853
19044TIP3   OH278546   6.263   2.937  14.881 -0.1036 -0.1805  0.0074
19044TIP3    H178547   6.285   2.858  14.932 -0.0719 -1.8866 -2.4537
19044TIP3    H278548   6.174   2.958  14.908 -0.2457 -1.2919  0.4825
19045TIP3   OH278549   2.173   1.755  17.101  0.0705 -0.1859  0.3710
19045TIP3    H178550   2.243   1.814  17.074  0.0416  0.6066  1.9416
19045TIP3    H278551   2.137   1.795  17.180 -1.9633 -0.7246 -0.2107
19046TIP3   OH278552   0.132   4.284   1.776 -0.2635 -0.5513  0.1071
19046TIP3    H178553   0.085   4.314   1.698 -0.2626  0.4286  0.4643
19046TIP3    H278554   0.068   4.292   1.847  0.2759  0.3195  0.5107
19047TIP3   OH278555   3.857   0.640   5.137 -0.0895 -0.1969  0.5020
19047TIP3    H178556   3.935   0.658   5.190 -0.5576 -0.3639  1.2725
19047TIP3    H278557   3.843   0.546   5.148 -1.7894  0.1977  2.3960
19048TIP3   OH278558   0.535   2.398   1.202 -0.3607 -0.0668 -0.3574
19048TIP3    H178559   0.561   2.482   1.165 -0.2943  0.6218  1.1570
19048TIP3    H278560   0.583   2.333   1.151  2.1444  1.0004  0.4976
19049TIP3   OH278561   4.508   5.880   4.897  0.4847  0.4657 -0.6387
19049TIP3    H178562   4.439   5.855   4.959  0.4316  1.8142 -0.1156
19049TIP3    H278563   4.484   5.969   4.870  0.3189 -0.2136 -2.8809
19050TIP3   OH278564   0.487   5.206   4.667  0.2116 -0.1657 -0.2276
19050TIP3    H178565   0.403   5.221   4.623 -0.2757 -0.8136  0.4499
19050TIP3    H278566   0.466   5.143   4.737  0.8451  1.2471  1.2894
19051TIP3   OH278567   3.422   1.467  12.935 -0.2658 -0.3194  0.1747
19051TIP3    H178568   3.419   1.511  13.021 -0.6894  1.8937 -0.8877
19051TIP3    H278569   3.482   1.520  12.883 -2.1738  0.1372 -1.7328
19052TIP3   OH278570   1.258   6.765  11.987 -0.0255  0.0757  1.0125
19052TIP3    H178571   1.227   6.855  11.980  0.0918  0.1914  1.8677
19052TIP3    H278572   1.275   6.753  12.080  2.2075 -0.0919  0.6312
19053TIP3   OH278573   3.032   6.569   4.868 -0.0152  0.5567  0.0284
19053TIP3    H178574   2.991   6.615   4.941 -0.7719 -1.7268  1.1704
19053TIP3    H278575   2.968   6.572   4.798 -1.1660 -0.7871  0.9453
19054TIP3   OH278576   0.045   0.680  15.178  0.3350 -0.2515 -0.3040
19054TIP3    H178577   0.106   0.608  15.161  0.4379  0.0292 -1.1901
19054TIP3    H278578   0.049   0.693  15.272  2.3605  0.3674 -0.4387
19055TIP3   OH278579   0.100   4.587   4.688  0.6796 -0.1382  0.4207
19055TIP3    H178580   0.096   4.634   4.605 -0.8998 -0.8778  0.0542
19055TIP3    H278581   0.033   4.628   4.743  0.9671 -0.3668  0.9567
19056TIP3   OH278582   4.200   0.802  12.978 -0.1404 -0.6235 -0.2317
19056TIP3    H178583   4.166   0.790  12.889  0.8178 -1.1798 -0.5414
19056TIP3    H278584   4.171   0.889  13.003 -0.8576 -0.6580 -0.8917
19057TIP3   OH278585   5.490   5.291   4.723  0.3250  0.0327  0.5069
19057TIP3    H178586   5.411   5.240   4.706  0.2427  0.1151  0.6454
19057TIP3    H278587   5.553   5.226   4.755 -0.6194  0.3965  3.4501
19058TIP3   OH278588   4.297   2.025   2.622 -0.1451 -0.0166  0.1346
19058TIP3    H178589   4.229   1.962   2.597 -0.5059  0.4149  0.0254
19058TIP3    H278590   4.378   1.988   2.586 -0.2491 -0.7436  0.6206
19059TIP3   OH278591   2.194   5.977   3.417 -0.2464  0.0715  0.1071
19059TIP3    H178592   2.158   5.984   3.329 -0.7471  0.8706  0.3605
19059TIP3    H278593   2.119   5.957   3.473  0.0514 -0.3429  0.3631
19060TIP3   OH278594   2.119   0.195  17.134  0.1208 -0.3812  0.2092
19060TIP3    H178595   2.136   0.115  17.183  2.1143  0.9615  1.9072
19060TIP3    H278596   2.156   0.179  17.047 -2.7170 -2.4967 -0.7517
19061TIP3   OH278597   0.342   6.215  13.442  0.4904  0.1314  0.2249
19061TIP3    H178598   0.339   6.120  13.426  0.6367  0.1225  0.2510
19061TIP3    H278599   0.270   6.250  13.390  1.6566  0.2386 -1.3784
19062TIP3   OH278600   5.390   5.634   4.599  0.0066  0.2052 -0.1842
19062TIP3    H178601   5.317   5.692   4.582  0.1921  0.0256 -1.6706
19062TIP3    H278602   5.467   5.690   4.595  0.0226  0.2876  0.8278
19063TIP3   OH278603   5.914   4.101   2.800  0.0113 -0.5394  0.4548
19063TIP3    H178604   5.893   4.026   2.744  0.2454  0.2903 -0.7792
19063TIP3    H278605   5.865   4.174   2.763  2.0284  0.5738 -0.1721
19064TIP3   OH278606   4.554   5.883  15.444 -0.0502  0.4940 -0.0242
19064TIP3    H178607   4.644   5.917  15.442 -0.3367  1.2446 -0.4264
19064TIP3    H278608   4.554   5.821  15.518  1.2633 -0.8777 -1.0971
19065TIP3   OH278609   2.436   0.092  14.787 -0.1749 -0.2955 -0.0988
19065TIP3    H178610   2.484   0.116  14.867 -1.5047  0.5479  0.4941
19065TIP3    H278611   2.469   0.006  14.764 -0.0334 -0.7438  1.6122
19066TIP3   OH278612   3.193   3.301  16.964 -0.0643 -0.0557  0.2845
19066TIP3    H178613   3.148   3.385  16.963  2.3684  1.3344  0.2727
19066TIP3    H278614   3.136   3.243  17.015 -1.2869  1.8996  1.2297
19067TIP3   OH278615   4.764   5.125   0.908 -0.1178 -0.3421  0.3864
19067TIP3    H178616   4.745   5.219   0.899  1.1522  0.1032  1.8824
19067TIP3    H278617   4.794   5.099   0.822 -0.1884  0.7108  0.0215
19068TIP3   OH278618   1.961   1.924   0.327  0.2803  0.0238  0.1953
19068TIP3    H178619   2.041   1.882   0.295 -0.0859  0.6299 -1.6559
19068TIP3    H278620   1.898   1.853   0.337  1.3016 -0.5978  2.6428
19069TIP3   OH278621   3.686   1.288   0.086 -0.2507 -0.2991  0.3554
19069TIP3    H178622   3.595   1.296   0.114 -0.4449 -1.2753  0.0574
19069TIP3    H278623   3.723   1.221   0.144  0.1748 -0.1864  0.2202
19070TIP3   OH278624   4.440   1.467  12.073  0.6249  0.4279 -0.2622
19070TIP3    H178625   4.486   1.407  12.131 -2.9274 -1.0330  1.3800
19070TIP3    H278626   4.508   1.504  12.017  3.5033 -2.4468  1.0103
19071TIP3   OH278627   3.510   5.980  15.652  0.5027  0.0376  0.2382
19071TIP3    H178628   3.521   6.001  15.745 -2.5702  0.3492  0.6146
19071TIP3    H278629   3.545   5.891  15.644 -0.2507 -0.4444  1.9568
19072TIP3   OH278630   3.622   5.626   2.225  0.0996 -0.2531 -0.3195
19072TIP3    H178631   3.585   5.546   2.189  0.5711 -0.6424  0.0451
19072TIP3    H278632   3.697   5.645   2.169 -0.2594  0.1660 -0.6580
19073TIP3   OH278633   1.402   0.383  12.026  0.0160 -0.0267 -0.0725
19073TIP3    H178634   1.404   0.473  12.059  0.2338  0.9877 -2.6289
19073TIP3    H278635   1.311   0.356  12.035 -0.7069  1.5724 -1.9017
19074TIP3   OH278636   3.069   2.811   5.740  0.2830  0.3089  0.2315
19074TIP3    H178637   3.112   2.894   5.720 -1.0633  0.5155 -2.2347
19074TIP3    H278638   3.089   2.755   5.665  0.8165 -1.5223  1.6461
19075TIP3   OH278639   2.822   1.578   4.704  0.0924  0.0708  0.3602
19075TIP3    H178640   2.804   1.575   4.610 -0.3290 -0.3550  0.4502
19075TIP3    H278641   2.735   1.588   4.744  0.2063 -0.3992  0.7307
19076TIP3   OH278642   0.933   4.380   3.010 -0.0292  0.5862  1.0521
19076TIP3    H178643   0.932   4.389   2.915  0.1051 -0.7221  0.9130
19076TIP3    H278644   1.026   4.386   3.033  0.4265 -2.7410  0.6569
19077TIP3   OH278645   3.277   4.868   3.926  0.1388  0.1926  0.0290
19077TIP3    H178646   3.296   4.894   3.836  0.5061  1.6108  0.4913
19077TIP3    H278647   3.362   4.841   3.962  0.3371  1.3930  0.4888
19078TIP3   OH278648   6.297   2.369  15.186  0.5446 -0.0668 -0.3082
19078TIP3    H178649   6.229   2.433  15.210  0.2651 -0.4332 -0.1249
19078TIP3    H278650   6.305   2.378  15.091  0.3447  0.0795 -0.3128
19079TIP3   OH278651   1.079   1.107  12.798  0.5065  0.0933  0.0948
19079TIP3    H178652   1.030   1.157  12.733  1.7826  1.4995  0.1392
19079TIP3    H278653   1.169   1.137  12.788  1.2789 -1.9790  0.4054
19080TIP3   OH278654   3.996   5.149   5.445 -0.3360 -0.4059 -0.0462
19080TIP3    H178655   3.986   5.059   5.415 -3.4070  0.0723 -0.7493
19080TIP3    H278656   4.045   5.142   5.527  1.0449 -2.4952 -0.9819
19081TIP3   OH278657   1.489   3.115  13.396  0.1022  0.2443  0.1494
19081TIP3    H178658   1.464   3.053  13.328  0.9884 -0.0562  0.0867
19081TIP3    H278659   1.541   3.064  13.458 -0.8529  0.4690  1.1662
19082TIP3   OH278660   3.747   4.132   0.493  0.6059  0.0104 -0.6141
19082TIP3    H178661   3.726   4.076   0.418  0.4125 -0.1551 -0.4368
19082TIP3    H278662   3.809   4.082   0.545  0.0605 -0.2525 -0.1985
19083TIP3   OH278663   0.596   1.535  11.205 -0.0272 -0.7528 -0.5315
19083TIP3    H178664   0.690   1.550  11.204 -0.3595  2.3855  0.7899
19083TIP3    H278665   0.572   1.521  11.114  1.6307 -0.8919 -0.9677
19084TIP3   OH278666   3.111   4.603  13.416  0.2291 -0.5222 -0.0666
19084TIP3    H178667   3.156   4.604  13.331 -1.0012 -0.4558 -0.7273
19084TIP3    H278668   3.108   4.695  13.442  1.8387 -0.6532  0.7502
19085TIP3   OH278669   1.380   3.608   5.524  0.0163 -0.3549  0.2325
19085TIP3    H178670   1.453   3.547   5.512  2.6625  2.8757 -2.4178
19085TIP3    H278671   1.319   3.588   5.454 -0.7449 -1.8647  1.2919
19086TIP3   OH278672   4.006   6.658   3.784 -0.1241  0.0549  0.4692
19086TIP3    H178673   3.952   6.627   3.711 -0.2881 -0.4273  0.7877
19086TIP3    H278674   4.087   6.687   3.743 -0.5011  0.4962  0.0161
19087TIP3   OH278675   0.411   0.370  14.845  0.1865 -0.1756 -0.5965
19087TIP3    H178676   0.499   0.406  14.842 -0.1332  0.7095  0.0663
19087TIP3    H278677   0.422   0.276  14.830  1.2795 -0.1267 -0.1500
19088TIP3   OH278678   1.779   2.654   3.666 -0.7466  0.4894  0.4978
19088TIP3    H178679   1.683   2.657   3.664 -0.7210  1.8658 -0.3088
19088TIP3    H278680   1.805   2.742   3.692  0.3100  0.1953  0.4708
19089TIP3   OH278681   3.687   6.215  13.397  0.0082 -0.1063 -0.1878
19089TIP3    H178682   3.601   6.255  13.408 -0.1800 -0.5311 -0.1091
19089TIP3    H278683   3.736   6.239  13.476 -1.0832 -2.5149  1.3195
19090TIP3   OH278684   4.292   0.379   2.198 -0.7103 -0.3761  0.3642
19090TIP3    H178685   4.382   0.405   2.217 -0.3482 -1.8656  0.8856
19090TIP3    H278686   4.292   0.358   2.104 -1.2171  2.1000 -0.2745
19091TIP3   OH278687   1.447   1.420  16.280  0.2256 -0.5410  0.5073
19091TIP3    H178688   1.500   1.499  16.290  0.5567 -0.7476  0.3822
19091TIP3    H278689   1.433   1.412  16.185 -1.2651  0.3251  0.6157
19092TIP3   OH278690   2.501   4.564  14.188  0.1001  0.0522 -0.1980
19092TIP3    H178691   2.408   4.565  14.208  0.4075 -0.1151  1.3934
19092TIP3    H278692   2.533   4.483  14.228  0.9129  0.0474 -0.8243
19093TIP3   OH278693   6.159   6.611  15.871 -0.5542 -0.1516  0.0893
19093TIP3    H178694   6.218   6.670  15.918 -0.7093 -0.5086  0.7370
19093TIP3    H278695   6.185   6.620  15.779 -0.3811  0.6986  0.2142
19094TIP3   OH278696   0.869   6.503   3.181  0.0327  0.0655 -0.1866
19094TIP3    H178697   0.902   6.555   3.107  0.5942  2.8521  1.8553
19094TIP3    H278698   0.781   6.478   3.154 -0.5937  2.8140 -1.0615
19095TIP3   OH278699   2.513   5.770   3.759 -0.5963 -0.2347 -0.1459
19095TIP3    H178700   2.441   5.830   3.777  0.4669  1.4713 -1.3755
19095TIP3    H278701   2.573   5.780   3.832 -1.3829 -1.4077  0.7066
19096TIP3   OH278702   3.963   0.336   5.528 -0.4279  0.2956 -0.2941
19096TIP3    H178703   4.040   0.372   5.573  0.4961 -1.6373 -0.2267
19096TIP3    H278704   3.994   0.254   5.490 -2.8956 -1.4875  1.2790
19097TIP3   OH278705   3.534   6.779   0.455 -0.2919 -0.2201 -0.2098
19097TIP3    H178706   3.604   6.729   0.496  0.3921  0.3785 -0.6183
19097TIP3    H278707   3.578   6.828   0.385 -1.0270  0.5606 -0.1343
19098TIP3   OH278708   3.772   3.133   1.897 -0.8688 -0.0131  0.2513
19098TIP3    H178709   3.852   3.120   1.948 -0.5224  0.0747 -0.2675
19098TIP3    H278710   3.736   3.045   1.887 -0.8446 -0.0518  0.4960
19099TIP3   OH278711   2.875   1.695   2.481 -0.0974  0.2904  0.1596
19099TIP3    H178712   2.863   1.607   2.517  0.0968  0.5834  0.9699
19099TIP3    H278713   2.808   1.747   2.524  0.6231  0.8094  0.6679
19100TIP3   OH278714   4.701   5.278  12.859 -0.1108 -0.0967 -0.1257
19100TIP3    H178715   4.756   5.343  12.904 -1.1109 -0.1336  1.2050
19100TIP3    H278716   4.763   5.213  12.827  0.8261  1.0169 -0.6652
19101TIP3   OH278717   2.830   4.735   0.225  0.4250  0.2579 -1.1078
19101TIP3    H178718   2.877   4.703   0.149  0.6136  0.4641 -1.0803
19101TIP3    H278719   2.899   4.771   0.282  0.1345  1.7627 -1.6463
19102TIP3   OH278720   1.616   3.550   4.773  0.2967  0.1663 -0.0674
19102TIP3    H178721   1.611   3.645   4.786  1.2525  0.1576  0.4662
19102TIP3    H278722   1.660   3.539   4.689  1.0175  0.1942  0.3050
19103TIP3   OH278723   0.678   5.055   2.595 -0.3077  0.1340 -0.5571
19103TIP3    H178724   0.752   5.108   2.625 -0.2992 -0.3999  0.4153
19103TIP3    H278725   0.656   5.001   2.671 -0.9187 -0.5762 -1.2303
19104TIP3   OH278726   6.397   2.649   5.747  0.5661  0.1893  0.4997
19104TIP3    H178727   6.323   2.652   5.807 -0.3471 -0.4259 -0.5772
19104TIP3    H278728   6.443   2.732   5.761 -1.2974  1.3593 -0.0438
19105TIP3   OH278729   4.208   0.425   5.615  0.0682  0.6965 -0.0857
19105TIP3    H178730   4.262   0.420   5.694  0.1837  2.3411 -0.0308
19105TIP3    H278731   4.268   0.456   5.547 -0.6551  2.0121 -0.1534
19106TIP3   OH278732   3.090   3.117  12.728 -0.4325 -0.3550  0.4403
19106TIP3    H178733   3.032   3.041  12.734  0.2402 -0.7509  3.1184
19106TIP3    H278734   3.178   3.080  12.735  0.0343  0.4924 -0.6963
19107TIP3   OH278735   2.641   0.368  12.934  0.2891  0.5725 -0.3594
19107TIP3    H178736   2.728   0.392  12.967 -0.1718  0.2181  1.2197
19107TIP3    H278737   2.581   0.421  12.987 -0.4711  0.5804 -1.2199
19108TIP3   OH278738   6.314   4.391   2.589 -0.6511  0.4959  0.3947
19108TIP3    H178739   6.403   4.370   2.558 -0.6459  0.1674  0.6288
19108TIP3    H278740   6.326   4.420   2.679 -0.7942  0.3158  0.4731
19109TIP3   OH278741   6.540   2.955  14.754 -0.4888 -0.5751  0.3065
19109TIP3    H178742   6.448   2.952  14.782  0.6035  0.4439  5.0625
19109TIP3    H278743   6.569   3.043  14.779  1.5099 -0.3429 -2.4191
19110TIP3   OH278744   6.621   2.513   1.274  0.1853 -0.0966 -0.1854
19110TIP3    H178745   6.649   2.501   1.183 -0.3601  1.1127 -0.5288
19110TIP3    H278746   6.560   2.441   1.289  1.0343 -0.8877 -0.4468
19111TIP3   OH278747   2.451   5.108  15.342  0.2514  0.6245  0.1658
19111TIP3    H178748   2.393   5.154  15.402  0.6859 -0.0603  1.1467
19111TIP3    H278749   2.528   5.164  15.335 -0.3516  1.3628 -0.8599
19112TIP3   OH278750   1.833   5.954  14.130 -0.5429  0.4572  0.1898
19112TIP3    H178751   1.748   5.961  14.085 -0.5028 -0.1477  0.0135
19112TIP3    H278752   1.897   5.975  14.062 -0.5632  1.4449  0.4538
19113TIP3   OH278753   0.162   0.831   3.812  0.2618 -0.2271  0.1535
19113TIP3    H178754   0.254   0.815   3.832  0.5440  0.3891 -0.5753
19113TIP3    H278755   0.164   0.905   3.752 -0.7081 -0.2689  0.0606
19114TIP3   OH278756   2.096   6.643  16.591  0.2610 -0.1188  0.1539
19114TIP3    H178757   2.108   6.574  16.656  0.4571  1.1292  1.5096
19114TIP3    H278758   2.004   6.667  16.597 -0.6792 -2.4305 -2.6812
19115TIP3   OH278759   0.250   1.516  12.352 -0.3275  0.2164  0.2641
19115TIP3    H178760   0.271   1.577  12.422 -0.6437 -0.5838  1.0714
19115TIP3    H278761   0.308   1.441  12.366 -0.0830  0.2292 -0.5972
19116TIP3   OH278762   2.659   3.713   1.506 -0.5189 -0.4083  0.0408
19116TIP3    H178763   2.690   3.648   1.569  0.1838  0.8216  1.0182
19116TIP3    H278764   2.574   3.741   1.539 -0.1047  0.3122  0.5381
19117TIP3   OH278765   4.029   1.443  11.904 -0.3148  0.4499 -0.1310
19117TIP3    H178766   4.044   1.533  11.876 -0.0319 -0.0006 -1.4974
19117TIP3    H278767   4.096   1.392  11.859 -0.9996 -0.5619 -0.0482
19118TIP3   OH278768   5.893   3.312   3.935  0.2962  0.0346  0.1206
19118TIP3    H178769   5.967   3.362   3.902  1.0240 -1.5761 -0.7783
19118TIP3    H278770   5.928   3.226   3.956 -0.9847 -0.2416  1.3323
19119TIP3   OH278771   3.852   5.294   1.350 -0.0740  0.1575  0.2956
19119TIP3    H178772   3.941   5.263   1.366  0.1756  0.1485 -1.0167
19119TIP3    H278773   3.864   5.378   1.305 -0.7460  0.5447  0.8093
19120TIP3   OH278774   1.497   5.235  16.906 -0.0588  0.1322 -0.4469
19120TIP3    H178775   1.587   5.240  16.873  0.1750  0.9511  0.2678
19120TIP3    H278776   1.481   5.322  16.944 -0.4192 -0.6550  1.2926
19121TIP3   OH278777   3.360   5.510   4.786  0.4448 -0.4322 -0.0849
19121TIP3    H178778   3.317   5.459   4.855 -0.9540 -0.9257 -1.2787
19121TIP3    H278779   3.419   5.447   4.743 -0.0782 -0.6351 -0.5194
19122TIP3   OH278780   4.645   0.117  14.075 -0.8261  0.0454 -0.2815
19122TIP3    H178781   4.713   0.111  14.008  1.1733 -1.4240  1.7100
19122TIP3    H278782   4.625   0.210  14.081  1.7552  0.6719 -0.3155
19123TIP3   OH278783   3.921   4.865   5.242 -1.3806  0.1710 -0.5767
19123TIP3    H178784   3.857   4.904   5.302 -0.9477 -2.1308  1.5433
19123TIP3    H278785   3.874   4.797   5.196 -0.7860 -0.7294  0.1117
19124TIP3   OH278786   2.608   4.112   3.702 -0.1868 -0.0309  0.0742
19124TIP3    H178787   2.521   4.112   3.661  0.0526  2.0349 -0.5619
19124TIP3    H278788   2.597   4.166   3.780  0.7262  1.1568 -0.5806
19125TIP3   OH278789   2.957   3.883  15.853  1.1557 -0.4352 -0.3021
19125TIP3    H178790   2.917   3.826  15.919  0.1757  1.5174  0.8861
19125TIP3    H278791   2.884   3.935  15.820  2.0976  0.5489 -0.8911
19126TIP3   OH278792   1.052   3.430   1.292  0.5504  0.3105  0.2551
19126TIP3    H178793   1.047   3.518   1.329 -0.0455 -0.2219  1.5072
19126TIP3    H278794   1.036   3.372   1.367 -3.2716 -0.8119 -1.1905
19127TIP3   OH278795   5.238   6.767   5.451  0.3307  0.7952 -0.0573
19127TIP3    H178796   5.276   6.745   5.366  2.2874 -1.3513  1.2514
19127TIP3    H278797   5.223   6.682   5.494 -0.6937  1.8054  1.7173
19128TIP3   OH278798   2.382   2.088   4.019  0.7035 -0.2947 -0.5287
19128TIP3    H178799   2.331   2.061   4.096  0.6614 -0.0591 -0.4728
19128TIP3    H278800   2.465   2.118   4.056  1.2121 -1.4620 -0.6825
19129TIP3   OH278801   2.552   3.543   3.849 -0.4807  0.0555  0.5031
19129TIP3    H178802   2.487   3.578   3.788  0.8761  0.5946 -0.7110
19129TIP3    H278803   2.501   3.503   3.919 -2.2122 -2.7151 -2.0922
19130TIP3   OH278804   3.537   0.093  12.639 -0.0262  0.3461 -0.5864
19130TIP3    H178805   3.455   0.142  12.643 -0.0426  0.1997  1.8282
19130TIP3    H278806   3.511   0.004  12.615 -0.9133 -0.2467  2.2289
19131TIP3   OH278807   4.936   6.413  14.247  0.7474 -0.1377 -0.1524
19131TIP3    H178808   4.931   6.399  14.153 -1.9757  2.0891 -0.4768
19131TIP3    H278809   4.845   6.408  14.277  0.9236  3.6013  1.5572
19132TIP3   OH278810   2.340   2.967   2.870  0.0358  0.0622 -0.6886
19132TIP3    H178811   2.312   3.025   2.940  1.5716  0.5193 -0.4256
19132TIP3    H278812   2.275   2.980   2.800 -0.2738  1.2211 -0.1945
19133TIP3   OH278813   4.398   4.939   4.789  0.5623 -0.1771 -0.0318
19133TIP3    H178814   4.316   4.967   4.829  0.3983  0.7861 -1.0128
19133TIP3    H278815   4.455   5.015   4.796  1.6177 -1.0192  1.1926
19134TIP3   OH278816   3.205   6.691  14.864  0.2168 -0.2698 -0.1226
19134TIP3    H178817   3.252   6.772  14.884  0.9543 -0.7653  0.2020
19134TIP3    H278818   3.112   6.714  14.872  0.2594  1.3358 -3.0725
19135TIP3   OH278819   2.235   6.307  11.800  0.5831  0.3321 -0.0842
19135TIP3    H178820   2.164   6.302  11.864  0.0667  0.8423 -0.6128
19135TIP3    H278821   2.315   6.309  11.854  0.1345  1.4186  0.5782
19136TIP3   OH278822   1.292   6.283  14.795  0.6750  0.5898  0.6017
19136TIP3    H178823   1.371   6.236  14.768  2.1209  1.6657  2.6609
19136TIP3    H278824   1.260   6.323  14.714  0.5701 -2.1221 -0.8209
19137TIP3   OH278825   0.258   6.579   5.853  0.5400  0.6562  0.5343
19137TIP3    H178826   0.226   6.589   5.943  1.4318  1.6599  0.7573
19137TIP3    H278827   0.350   6.605   5.857  1.4667 -2.1801 -0.0972
19138TIP3   OH278828   5.526   4.510  13.221 -0.4486  0.6484  0.1487
19138TIP3    H178829   5.465   4.506  13.295  0.4849 -1.7891  0.8880
19138TIP3    H278830   5.488   4.451  13.156  0.1046  0.6695 -0.1937
19139TIP3   OH278831   5.253   0.539  10.861  0.3036  0.4119  0.1006
19139TIP3    H178832   5.259   0.623  10.907 -2.0544  0.6697  0.0885
19139TIP3    H278833   5.181   0.552  10.798  0.9176 -1.1437 -0.9780
19140TIP3   OH278834   6.382   0.020   4.593  0.4364 -0.2340  0.2878
19140TIP3    H178835   6.454   0.076   4.566 -1.0188  0.8177 -1.7150
19140TIP3    H278836   6.357   0.053   4.679  0.0645  1.8462 -0.5407
19141TIP3   OH278837   6.240   3.766  12.075 -0.4600  0.8811  0.0850
19141TIP3    H178838   6.288   3.843  12.043  1.2913  0.3721  1.3661
19141TIP3    H278839   6.198   3.796  12.156  0.7284  0.3819  0.9213
19142TIP3   OH278840   1.565   2.927   5.017  0.0715  0.0534  0.1061
19142TIP3    H178841   1.588   2.974   4.937 -1.8141  0.7968 -0.0677
19142TIP3    H278842   1.645   2.882   5.043  1.1964  1.1839 -1.2411
19143TIP3   OH278843   3.432   0.898  11.521  0.4015  0.8687  0.2892
19143TIP3    H178844   3.409   0.861  11.607 -1.0482  2.6659  0.7402
19143TIP3    H278845   3.527   0.894  11.518  0.3907 -1.2518  1.0202
19144TIP3   OH278846   1.300   5.108   2.011 -0.7683  0.0517 -0.2399
19144TIP3    H178847   1.360   5.183   2.012 -0.4955 -0.1303 -1.3994
19144TIP3    H278848   1.302   5.075   2.101 -0.9836  1.4904  0.3259
19145TIP3   OH278849   5.525   6.512  16.653  0.1855  0.5794  0.1782
19145TIP3    H178850   5.573   6.494  16.572  1.1939 -1.2801  1.1163
19145TIP3    H278851   5.561   6.449  16.716 -3.9156 -1.4777  0.7901
19146TIP3   OH278852   4.346   2.124  13.580 -0.0403 -0.1799 -0.0017
19146TIP3    H178853   4.345   2.028  13.579  0.9249 -0.1982 -0.2830
19146TIP3    H278854   4.425   2.148  13.532  1.1385  0.6888  2.2264
19147TIP3   OH278855   6.331   0.742   5.124  0.0684  0.0425 -0.0083
19147TIP3    H178856   6.346   0.736   5.030  0.9004 -1.5976  0.1942
19147TIP3    H278857   6.237   0.727   5.134  0.0069  0.0357 -0.5559
19148TIP3   OH278858   6.453   2.262   6.297 -0.1341  0.1367  0.5261
19148TIP3    H178859   6.391   2.190   6.304 -1.1118  0.7660 -1.1898
19148TIP3    H278860   6.534   2.228   6.337 -0.6576 -1.7805  0.0242
19149TIP3   OH278861   4.671   6.766   4.326 -0.0897 -0.3032  0.4364
19149TIP3    H178862   4.633   6.684   4.296 -1.0404  0.2681  0.0345
19149TIP3    H278863   4.690   6.752   4.419 -1.8508 -0.4241  0.8014
19150TIP3   OH278864   6.024   0.673  17.246  0.3273 -0.0480  0.0236
19150TIP3    H178865   5.940   0.712  17.223  0.5802 -0.1738 -1.1943
19150TIP3    H278866   6.090   0.731  17.207  0.8214  0.0262  0.9218
19151TIP3   OH278867   5.474   5.882   3.902  0.0418 -0.4399 -0.1679
19151TIP3    H178868   5.459   5.971   3.869 -0.2092 -0.3044  0.3092
19151TIP3    H278869   5.412   5.872   3.974  2.2169  0.1491  1.9069
19152TIP3   OH278870   5.193   1.354  15.990 -0.2629 -0.1611 -0.0785
19152TIP3    H178871   5.205   1.306  15.908 -0.9379  0.7842 -0.7585
19152TIP3    H278872   5.220   1.293  16.058 -0.9538 -1.4447 -0.9142
19153TIP3   OH278873   6.504   2.013   2.961  0.2144  0.0686  0.3518
19153TIP3    H178874   6.481   1.969   3.043  2.8185  0.9143  1.6483
19153TIP3    H278875   6.476   2.103   2.973  0.8666  0.2630  0.4626
19154TIP3   OH278876   6.420   0.101   0.247 -0.4588 -0.5481 -0.6038
19154TIP3    H178877   6.506   0.066   0.225 -0.8170 -0.9370 -1.4295
19154TIP3    H278878   6.366   0.024   0.263 -1.0556 -0.3773 -1.6815
19155TIP3   OH278879   5.299   4.412   1.650  0.0960 -0.1358  0.4442
19155TIP3    H178880   5.344   4.349   1.594 -0.6621  0.1708 -0.5353
19155TIP3    H278881   5.250   4.359   1.713  0.6333 -0.4922  0.5638
19156TIP3   OH278882   4.067   5.605   5.189  0.2188 -0.4685 -0.0992
19156TIP3    H178883   4.047   5.593   5.282 -0.1241 -2.5345 -0.3947
19156TIP3    H278884   3.981   5.605   5.146  0.4099 -0.1653 -0.4892
19157TIP3   OH278885   2.208   1.199   2.256  0.3160  0.0006 -0.0447
19157TIP3    H178886   2.206   1.104   2.263 -1.6313 -0.0003  0.0994
19157TIP3    H278887   2.152   1.219   2.181 -0.7891  1.0574  0.9957
19158TIP3   OH278888   4.188   1.157   3.028  0.3967  0.2954  0.2990
19158TIP3    H178889   4.260   1.101   2.999 -0.8722 -0.3069 -1.9038
19158TIP3    H278890   4.211   1.245   2.997  0.3657  0.1805 -0.0463
19159TIP3   OH278891   6.652   5.566   4.977  0.2346 -0.1927  0.5745
19159TIP3    H178892   6.675   5.630   5.044 -0.6863  1.6351 -0.7570
19159TIP3    H278893   6.631   5.486   5.025 -1.6763  1.3974  2.5681
19160TIP3   OH278894   4.321   4.889   1.770 -0.1456  0.1046 -0.1784
19160TIP3    H178895   4.410   4.894   1.735  0.8714 -1.5424  1.9816
19160TIP3    H278896   4.323   4.946   1.847 -0.6311 -0.7688  0.4911
19161TIP3   OH278897   2.168   0.096  13.284  0.4113 -0.2197 -0.0254
19161TIP3    H178898   2.240   0.063  13.231 -0.0291  0.2597 -0.9595
19161TIP3    H278899   2.128   0.018  13.323 -0.2526 -0.7725 -1.7175
19162TIP3   OH278900   3.812   1.824   6.472  0.7082  0.3883  0.3857
19162TIP3    H178901   3.722   1.821   6.505  1.3076  0.0363  2.0417
19162TIP3    H278902   3.812   1.897   6.410 -1.1480 -0.6935 -1.0047
19163TIP3   OH278903   2.969   1.755  14.067 -0.2140 -1.0862  0.1597
19163TIP3    H178904   2.995   1.847  14.076 -0.5843 -1.1042  1.8220
19163TIP3    H278905   2.880   1.759  14.031  0.5227 -0.8965 -1.7439
19164TIP3   OH278906   4.655   2.186  12.523 -0.2853  0.2603  0.2037
19164TIP3    H178907   4.615   2.197  12.437 -1.0261  1.2550  0.6611
19164TIP3    H278908   4.717   2.114  12.511 -1.1438 -0.3316 -0.8925
19165TIP3   OH278909   3.791   1.447   0.400  0.4900  0.3059  0.5881
19165TIP3    H178910   3.843   1.494   0.335 -0.1265  1.2135  0.7298
19165TIP3    H278911   3.854   1.422   0.469  0.9831  0.1058  0.0719
19166TIP3   OH278912   5.180   4.089   4.919 -0.1238  0.5159 -0.5680
19166TIP3    H178913   5.209   4.096   4.827  0.1162  0.9390 -0.4617
19166TIP3    H278914   5.159   4.178   4.945  0.5898  0.5167  0.0386
19167TIP3   OH278915   1.071   2.286  11.207  0.0180  0.3397  0.2407
19167TIP3    H178916   1.094   2.236  11.129 -1.6229  2.2347 -1.5867
19167TIP3    H278917   0.980   2.262  11.226  0.0260  0.7560  0.8618
19168TIP3   OH278918   6.052   1.294  12.556 -0.2594 -0.2919 -0.1385
19168TIP3    H178919   6.053   1.352  12.632 -0.9485 -2.3670  1.5404
19168TIP3    H278920   5.959   1.279  12.539 -0.1583  1.0117 -2.1506
19169TIP3   OH278921   1.349   2.658  15.857 -0.0733  0.0871  0.3183
19169TIP3    H178922   1.259   2.642  15.826 -0.3565  0.1371  1.1014
19169TIP3    H278923   1.351   2.622  15.945  0.9380 -0.6829 -0.0004
19170TIP3   OH278924   6.190   3.757   1.252 -0.1453 -0.8385 -0.1206
19170TIP3    H178925   6.282   3.768   1.228  0.0721 -0.8994  0.6573
19170TIP3    H278926   6.148   3.838   1.224 -0.1340 -1.3648 -1.7344
19171TIP3   OH278927   4.724   3.454   4.584  0.2328  0.6295  0.3153
19171TIP3    H178928   4.819   3.444   4.590  0.6705  2.2347 -2.1999
19171TIP3    H278929   4.696   3.376   4.535  0.0675 -0.3331  1.8856
19172TIP3   OH278930   1.530   2.254  16.315  0.4502  0.0267 -0.0024
19172TIP3    H178931   1.437   2.271  16.296  0.0825 -3.3200 -1.9295
19172TIP3    H278932   1.578   2.309  16.253 -0.3186  0.3015 -0.3693
19173TIP3   OH278933   6.529   0.525  13.233 -0.0660 -0.0345  0.0264
19173TIP3    H178934   6.508   0.445  13.280  0.9078 -1.3161 -1.5791
19173TIP3    H278935   6.625   0.526  13.229 -0.0681  1.0644 -0.2227
19174TIP3   OH278936   2.242   0.647   0.435  0.6597  0.7088 -0.0681
19174TIP3    H178937   2.188   0.725   0.447  0.5563  0.8114 -1.1479
19174TIP3    H278938   2.326   0.669   0.474 -0.0627  0.5119  1.7454
19175TIP3   OH278939   4.839   5.064   2.099  0.0221  0.1112  0.1101
19175TIP3    H178940   4.743   5.064   2.096  0.0174  1.0130  0.1397
19175TIP3    H278941   4.862   4.972   2.114 -0.8549 -0.0420  0.5850
19176TIP3   OH278942   1.863   3.086   0.886  0.5511 -0.4085 -0.1186
19176TIP3    H178943   1.777   3.089   0.845  0.2349 -0.6992  0.5066
19176TIP3    H278944   1.887   2.994   0.885  0.7938 -0.3439 -0.1756
19177TIP3   OH278945   3.105   2.077   0.489  0.2395  0.4359 -0.1401
19177TIP3    H178946   3.098   2.165   0.452  1.5656  0.4425 -0.4088
19177TIP3    H278947   3.163   2.087   0.564  0.0660 -0.1400  0.0752
19178TIP3   OH278948   5.758   1.646   4.826  0.5041  0.1614  0.1651
19178TIP3    H178949   5.811   1.720   4.796  2.1548 -1.3864 -0.9105
19178TIP3    H278950   5.670   1.666   4.794  0.6709  2.1169  0.7696
19179TIP3   OH278951   5.300   2.726   3.546 -0.1248  0.1451 -0.4158
19179TIP3    H178952   5.248   2.770   3.478  0.1198  0.4015 -0.4378
19179TIP3    H278953   5.239   2.665   3.587 -0.0436 -0.7237 -1.5125
19180TIP3   OH278954   1.436   1.299   1.630 -0.3067 -0.4241 -0.1519
19180TIP3    H178955   1.381   1.271   1.703 -1.0935 -0.2545 -0.6705
19180TIP3    H278956   1.518   1.250   1.642  1.5074  2.9674  3.5212
19181TIP3   OH278957   5.797   3.237  11.558 -0.1775  0.0369  0.4011
19181TIP3    H178958   5.831   3.303  11.618  1.6741 -0.4579 -0.0301
19181TIP3    H278959   5.852   3.161  11.573 -2.9876 -1.9070  1.7202
19182TIP3   OH278960   2.227   3.297  16.920  0.2223 -0.3615  0.0075
19182TIP3    H178961   2.301   3.330  16.971  1.7521 -0.4909 -2.0028
19182TIP3    H278962   2.264   3.228  16.865 -1.1387  0.2692 -1.8149
19183TIP3   OH278963   2.556   3.738   5.697  0.0633 -0.2687 -0.1060
19183TIP3    H178964   2.541   3.697   5.782  0.0565  0.1029  0.0759
19183TIP3    H278965   2.491   3.697   5.639 -0.9085  0.4954  0.4082
19184TIP3   OH278966   6.539   1.000   6.366  0.4260 -0.0272  0.1169
19184TIP3    H178967   6.587   1.067   6.414  1.7659 -1.5868  1.0040
19184TIP3    H278968   6.507   0.940   6.433 -1.6967  0.2496 -0.5695
19185TIP3   OH278969   0.420   3.637  14.497  0.8132  0.1516 -0.9698
19185TIP3    H178970   0.332   3.676  14.502  1.3681  1.3415  0.2775
19185TIP3    H278971   0.451   3.659  14.410 -0.0201 -0.0193 -1.3140
19186TIP3   OH278972   5.921   0.996   4.921 -0.4687  0.5930  0.2026
19186TIP3    H178973   5.958   0.974   4.836  2.5139  1.6229  1.0884
19186TIP3    H278974   5.968   0.939   4.982 -1.4921  0.8960  1.3039
19187TIP3   OH278975   1.895   6.632  13.879  0.1111 -0.6441 -0.0949
19187TIP3    H178976   1.868   6.616  13.789 -2.2481 -0.3654  0.5151
19187TIP3    H278977   1.914   6.545  13.914 -1.9084 -1.0983 -0.0221
19188TIP3   OH278978   1.949   6.033   2.500 -0.2156 -0.1929 -0.0331
19188TIP3    H178979   2.040   6.013   2.476  0.0339 -1.0338  1.4623
19188TIP3    H278980   1.943   6.129   2.492  0.6416 -0.1795 -0.6636
19189TIP3   OH278981   2.503   3.351   1.844  0.3546  0.0797  0.9688
19189TIP3    H178982   2.456   3.289   1.900 -0.0378  0.1306  0.7038
19189TIP3    H278983   2.447   3.429   1.844 -0.5163 -0.4920 -0.8237
19190TIP3   OH278984   1.070   0.959   2.862  0.0708  0.1012 -0.2168
19190TIP3    H178985   1.125   0.941   2.938 -0.7751  0.0070  0.3731
19190TIP3    H278986   0.996   0.900   2.870 -1.6660  2.2753  0.6332
19191TIP3   OH278987   5.819   4.417   1.829 -0.2606 -0.0997  0.5790
19191TIP3    H178988   5.830   4.427   1.924 -2.1684  2.8139  0.6125
19191TIP3    H278989   5.771   4.335   1.819 -1.7808  0.5089  2.3498
19192TIP3   OH278990   5.405   2.712  17.073  0.1628 -0.0685 -0.1363
19192TIP3    H178991   5.420   2.718  16.979  1.5174 -3.6129 -0.2791
19192TIP3    H278992   5.310   2.705  17.082 -0.0111  0.7410 -1.1558
19193TIP3   OH278993   5.483   0.379  11.174  0.1234 -0.0162 -0.4308
19193TIP3    H178994   5.509   0.305  11.119 -0.2201  0.9074 -1.9081
19193TIP3    H278995   5.388   0.384  11.165  0.1085  0.3825 -0.0724
19194TIP3   OH278996   5.253   4.002   5.678  0.2995 -0.3824 -0.2761
19194TIP3    H178997   5.291   3.931   5.627  0.4651 -0.6009  0.1491
19194TIP3    H278998   5.200   3.958   5.745  2.4340 -0.2097  1.6343
19195TIP3   OH278999   0.263   4.713   2.315 -0.6891  0.3907 -0.2465
19195TIP3    H179000   0.261   4.753   2.228  2.0025  1.9987  0.3158
19195TIP3    H279001   0.280   4.786   2.375  0.0271 -1.0198  1.3564
19196TIP3   OH279002   1.283   5.184  15.264 -0.4090 -0.3233 -0.2403
19196TIP3    H179003   1.327   5.266  15.284 -0.2677 -0.5924  0.5809
19196TIP3    H279004   1.354   5.121  15.249 -0.5140 -0.5012 -0.0015
19197TIP3   OH279005   2.646   5.919  13.637 -0.1767 -0.2130 -0.3328
19197TIP3    H179006   2.673   6.009  13.657  0.8068 -0.3242 -1.0749
19197TIP3    H279007   2.599   5.890  13.715  1.6679  0.0790  0.9524
19198TIP3   OH279008   3.738   2.951   5.772  0.4599 -0.4356 -0.5162
19198TIP3    H179009   3.773   3.035   5.743  0.2740 -0.4860 -0.8906
19198TIP3    H279010   3.662   2.935   5.716  0.3377 -0.7316 -0.2769
19199TIP3   OH279011   2.274   3.331   1.166  0.1589 -0.0658  0.1895
19199TIP3    H179012   2.233   3.350   1.251  0.2248  1.9857 -0.1698
19199TIP3    H279013   2.204   3.294   1.113 -0.6451  1.1895  0.3210
19200TIP3   OH279014   5.234   3.068  12.855  0.6143 -0.3384  0.4794
19200TIP3    H179015   5.291   3.120  12.911 -1.0895 -0.1092  2.1202
19200TIP3    H279016   5.292   3.029  12.790  2.5836  0.0449  1.9204
19201TIP3   OH279017   1.661   3.013   0.722 -0.3790 -0.2483  0.1813
19201TIP3    H179018   1.715   2.937   0.700  1.9215  1.2994  0.1203
19201TIP3    H279019   1.633   3.047   0.637 -3.3250 -2.1849  0.2337
19202TIP3   OH279020   5.617   2.699   0.454 -0.1407 -0.2218  0.5425
19202TIP3    H179021   5.524   2.702   0.432  0.0961 -0.4525 -0.5686
19202TIP3    H279022   5.621   2.652   0.538 -1.2192  2.0214  1.9430
19203TIP3   OH279023   4.100   1.995  12.777 -0.4144 -0.8453  0.5596
19203TIP3    H179024   4.040   2.034  12.714 -0.8971 -0.5508  1.1905
19203TIP3    H279025   4.187   2.024  12.750 -0.6234 -0.6965  0.0544
19204TIP3   OH279026   3.447   0.149  12.189  0.0953  0.2488  0.3526
19204TIP3    H179027   3.425   0.078  12.129  2.0422  0.0827 -0.2310
19204TIP3    H279028   3.401   0.226  12.154  1.7035  0.3216 -1.8147
19205TIP3   OH279029   4.378   5.942   2.774 -0.6735  0.3778 -0.0037
19205TIP3    H179030   4.465   5.978   2.757 -0.1437 -0.6269  0.5170
19205TIP3    H279031   4.386   5.897   2.858 -0.9905 -1.8844 -1.1158
19206TIP3   OH279032   4.898   5.280   5.679 -0.5892  0.1405 -0.1536
19206TIP3    H179033   4.906   5.333   5.759 -0.5612  0.2684 -0.2406
19206TIP3    H279034   4.852   5.337   5.618  0.2502  0.4043 -0.5580
19207TIP3   OH279035   4.964   6.142  13.047 -0.2300 -0.0901 -0.4052
19207TIP3    H179036   4.998   6.215  13.099  0.6862 -2.1763  2.1680
19207TIP3    H279037   4.882   6.118  13.089 -0.0857 -1.0493 -0.6355
19208TIP3   OH279038   3.025   4.222   2.633 -0.0398 -0.7315 -0.3557
19208TIP3    H179039   2.980   4.147   2.594  0.6788 -1.7517  0.7086
19208TIP3    H279040   3.100   4.237   2.575 -0.2460 -0.7444 -0.6330
19209TIP3   OH279041   4.717   3.361   2.598  1.2435 -0.0575 -0.4757
19209TIP3    H179042   4.779   3.289   2.587 -0.1937 -1.3347 -0.5927
19209TIP3    H279043   4.681   3.376   2.511 -0.0580 -0.7235 -0.0800
19210TIP3   OH279044   2.686   2.361   6.070  0.5020 -0.5622 -0.2986
19210TIP3    H179045   2.748   2.313   6.123 -0.7074 -1.7357  0.1020
19210TIP3    H279046   2.616   2.298   6.051  0.2582  0.2104 -2.1669
19211TIP3   OH279047   2.370   1.417  14.932  0.0358 -0.4369 -0.0426
19211TIP3    H179048   2.301   1.472  14.893  0.0835 -0.1404  0.2818
19211TIP3    H279049   2.337   1.396  15.019  0.9685  0.9020  0.6696
19212TIP3   OH279050   2.665   2.543   4.884 -0.4621 -0.3492  0.0307
19212TIP3    H179051   2.635   2.497   4.806 -1.1731  1.2505 -0.6713
19212TIP3    H279052   2.760   2.532   4.883 -0.3888  0.1677 -1.4209
19213TIP3   OH279053   6.454   4.108   1.178  0.2257 -0.1835 -0.1673
19213TIP3    H179054   6.392   4.181   1.181 -1.4401 -1.3018 -3.0782
19213TIP3    H279055   6.459   4.076   1.268 -0.9992  1.8784  0.6965
19214TIP3   OH279056   4.361   5.586   0.257 -0.2538 -0.2262 -0.6056
19214TIP3    H179057   4.353   5.682   0.251 -0.0332 -0.1542  0.1895
19214TIP3    H279058   4.270   5.555   0.251 -0.4925  0.1386  0.7993
19215TIP3   OH279059   5.316   5.864   1.946 -0.6442  0.6541  0.0875
19215TIP3    H179060   5.302   5.958   1.941 -1.7793  0.4801 -0.1578
19215TIP3    H279061   5.231   5.825   1.928  0.1241 -0.4659 -1.4112
19216TIP3   OH279062   1.987   2.162   4.648 -0.5275 -0.2159 -0.4648
19216TIP3    H179063   1.998   2.134   4.557 -1.9644  0.2512 -0.8140
19216TIP3    H279064   1.932   2.240   4.643  2.0490  1.8282  0.5952
19217TIP3   OH279065   0.578   1.128  16.345  0.0663  0.1768  0.6939
19217TIP3    H179066   0.622   1.095  16.424  0.1303  2.5919  1.7535
19217TIP3    H279067   0.554   1.049  16.297  3.2683 -1.3557  1.2985
19218TIP3   OH279068   6.492   3.502  11.417  0.4317 -0.8580  0.5260
19218TIP3    H179069   6.457   3.574  11.364 -0.8862 -2.5029 -0.9820
19218TIP3    H279070   6.414   3.453  11.445  1.2991 -2.0612  0.9319
19219TIP3   OH279071   3.492   3.732  13.727 -0.2713  0.1800  0.4240
19219TIP3    H179072   3.437   3.697  13.657 -1.6668 -0.0245  1.5826
19219TIP3    H279073   3.440   3.802  13.766  0.6530  0.5587  1.0136
19220TIP3   OH279074   0.721   4.540  13.220  0.3618  0.1610 -0.0807
19220TIP3    H179075   0.805   4.556  13.262  0.5069  0.8558 -0.6216
19220TIP3    H279076   0.664   4.609  13.253 -0.1380 -0.5776  0.6418
19221TIP3   OH279077   2.179   1.737  15.399 -0.3167 -0.1707  0.4347
19221TIP3    H179078   2.116   1.776  15.338  0.6615 -0.4212 -0.7681
19221TIP3    H279079   2.124   1.701  15.469 -1.3270  2.3917  1.0793
19222TIP3   OH279080   2.225   5.581   4.782  0.5919  0.1506  0.1519
19222TIP3    H179081   2.320   5.585   4.791  0.4283  2.1274  1.5987
19222TIP3    H279082   2.197   5.523   4.853  0.6438  0.3866  0.3650
19223TIP3   OH279083   4.813   1.966  12.467  0.1694 -0.2259 -0.3000
19223TIP3    H179084   4.852   2.020  12.399 -1.0941  2.0009  0.6245
19223TIP3    H279085   4.740   1.922  12.424 -1.1506  1.8217 -0.2822
19224TIP3   OH279086   5.215   3.540  14.954  0.4630  0.2190 -0.2198
19224TIP3    H179087   5.236   3.464  14.899 -0.7615 -0.3243  0.0145
19224TIP3    H279088   5.299   3.568  14.991  0.9255 -1.1127 -0.2105
19225TIP3   OH279089   2.091   3.478   2.686 -0.5234 -0.0462 -0.3055
19225TIP3    H179090   2.140   3.450   2.764  0.7791  0.4183 -0.9178
19225TIP3    H279091   2.043   3.556   2.715 -0.3570 -0.1070  0.1439
19226TIP3   OH279092   2.854   3.989   1.723 -0.2606 -0.4704  0.3970
19226TIP3    H179093   2.826   4.074   1.758  1.3150 -0.1179  0.8756
19226TIP3    H279094   2.852   4.001   1.628  2.7233  1.1617  0.3984
19227TIP3   OH279095   5.811   1.594  13.213 -0.3649  0.7827  0.1341
19227TIP3    H179096   5.798   1.501  13.197  2.1656  0.3252  0.3109
19227TIP3    H279097   5.825   1.601  13.308  1.4742  0.9899 -0.1106
19228TIP3   OH279098   1.328   5.917  13.812  0.0820  0.2767  0.0466
19228TIP3    H179099   1.390   5.923  13.884 -1.4593 -0.4271  1.4859
19228TIP3    H279100   1.312   5.824  13.801 -0.1953  0.4076 -0.7812
19229TIP3   OH279101   5.868   6.073  13.269  0.2868  0.3559 -0.3419
19229TIP3    H179102   5.959   6.061  13.239  0.7471  0.0589  1.0915
19229TIP3    H279103   5.816   6.071  13.189  1.3548 -1.4722 -1.0569
19230TIP3   OH279104   6.711   5.074   4.842  0.0272  0.3067 -0.2494
19230TIP3    H179105   6.629   5.122   4.828 -1.2651 -1.9487 -1.0615
19230TIP3    H279106   6.724   5.075   4.937 -0.6432  1.1512 -0.1555
19231TIP3   OH279107   5.811   4.462   2.107  0.3095  0.0798  0.0493
19231TIP3    H179108   5.792   4.408   2.183  3.2640  0.1640  0.9632
19231TIP3    H279109   5.893   4.507   2.128  0.2903  1.5225 -2.4562
19232TIP3   OH279110   4.229   4.921  16.414  0.4988  0.3576  0.1368
19232TIP3    H179111   4.176   4.901  16.337 -1.0930  0.3843  1.1755
19232TIP3    H279112   4.183   4.993  16.457  2.4021  1.6518  0.1166
19233TIP3   OH279113   0.517   2.739   3.982  0.1456 -0.0306 -0.1760
19233TIP3    H179114   0.572   2.776   3.913 -1.8961 -0.1057 -1.9204
19233TIP3    H279115   0.515   2.645   3.965  0.5508 -0.2156  0.7118
19234TIP3   OH279116   3.972   2.244  14.924 -0.0455  0.7728 -0.2361
19234TIP3    H179117   3.905   2.311  14.913 -1.4697 -0.6307 -0.5834
19234TIP3    H279118   4.044   2.272  14.868 -1.0664  1.4583 -1.2438
19235TIP3   OH279119   1.333   5.121   2.302 -0.0528  0.2353  0.8045
19235TIP3    H179120   1.354   5.035   2.340  0.5901  0.2196  0.4301
19235TIP3    H279121   1.409   5.175   2.323  0.2605  0.2625 -0.3371
19236TIP3   OH279122   3.114   1.501  11.987 -0.0613  0.1693  0.2786
19236TIP3    H179123   3.171   1.476  12.060  0.4667  3.2331  1.0533
19236TIP3    H279124   3.169   1.490  11.909  0.6377  0.4166  0.7257
19237TIP3   OH279125   1.733   6.231  11.696 -0.1923 -0.0707  0.2001
19237TIP3    H179126   1.700   6.257  11.609 -0.0423 -2.6511 -0.7129
19237TIP3    H279127   1.827   6.250  11.692 -0.2484  0.1748 -0.0365
19238TIP3   OH279128   0.047   2.262  13.477  0.0385 -0.3841 -0.0638
19238TIP3    H179129   0.135   2.249  13.443  0.0594  0.6036 -0.4194
19238TIP3    H279130  -0.003   2.297  13.403 -0.1434  0.9403  0.6486
19239TIP3   OH279131   2.997   3.058   3.439 -0.2868  0.7804  0.4710
19239TIP3    H179132   2.944   3.137   3.426 -0.4972  0.4390 -0.8563
19239TIP3    H279133   2.939   2.998   3.485 -2.4580 -0.8916 -3.8697
19240TIP3   OH279134   2.889   6.658  15.522  0.3630 -0.3779 -0.1690
19240TIP3    H179135   2.920   6.749  15.525 -0.6130 -0.0661  2.3814
19240TIP3    H279136   2.809   6.657  15.574  0.6602 -2.8258  0.3793
19241TIP3   OH279137   2.805   2.378  17.218  0.0664 -0.3591 -0.1419
19241TIP3    H179138   2.875   2.320  17.247  1.4334  1.0075 -0.5777
19241TIP3    H279139   2.767   2.412  17.300 -0.6416 -1.6758  0.1115
19242TIP3   OH279140   3.677   3.565   1.812  0.0854 -0.2404 -0.1648
19242TIP3    H179141   3.746   3.630   1.827 -0.4540  0.4816 -0.7580
19242TIP3    H279142   3.698   3.527   1.726 -0.2418 -0.0264 -0.3424
19243TIP3   OH279143   6.262   4.120   0.896 -0.3336  0.3014 -0.4454
19243TIP3    H179144   6.242   4.213   0.911  0.5979  0.7165 -1.5698
19243TIP3    H279145   6.358   4.118   0.886 -0.1939 -0.9844  0.7848
19244TIP3   OH279146   2.038   3.672  16.137  0.3162  0.7739 -0.3887
19244TIP3    H179147   2.013   3.581  16.123 -0.9989  1.1242 -0.4571
19244TIP3    H279148   2.115   3.684  16.082  0.2541 -0.1822 -0.7087
19245TIP3   OH279149   5.578   5.418   0.171  0.3008  0.7044 -0.0632
19245TIP3    H179150   5.524   5.437   0.094 -1.3909 -0.9587  0.6293
19245TIP3    H279151   5.589   5.503   0.213  0.0276  1.4195 -1.3677
19246TIP3   OH279152   6.072   0.304   3.493 -0.8254 -0.1330 -0.2878
19246TIP3    H179153   6.167   0.305   3.478 -1.0426  1.0171 -1.9427
19246TIP3    H279154   6.052   0.212   3.512  0.5531 -0.4887 -0.4132
19247TIP3   OH279155   4.175   1.115  16.967 -0.1246 -0.2307 -0.2013
19247TIP3    H179156   4.103   1.111  16.903 -0.4979  0.0035  0.1964
19247TIP3    H279157   4.252   1.089  16.918 -0.6455 -1.4611 -0.4007
19248TIP3   OH279158   3.698   0.166  11.771  0.3021 -0.5315 -0.2470
19248TIP3    H179159   3.761   0.235  11.753  0.8650 -1.2931 -1.3224
19248TIP3    H279160   3.698   0.113  11.692 -1.5256 -0.6886 -0.1710
19249TIP3   OH279161   1.425   6.367  12.572  0.2549  0.1768  0.2276
19249TIP3    H179162   1.370   6.396  12.499  1.1554 -0.3039 -0.6701
19249TIP3    H279163   1.400   6.276  12.585 -1.1630  0.7301  1.7333
19250TIP3   OH279164   4.864   3.918   2.829  0.0386  0.3112  0.3527
19250TIP3    H179165   4.838   4.004   2.862 -0.4061  0.3271 -0.0329
19250TIP3    H279166   4.893   3.871   2.907  1.9754  1.3809  0.3544
19251TIP3   OH279167   6.268   2.278  14.588 -0.1636  0.1420  0.2981
19251TIP3    H179168   6.277   2.373  14.600  1.8383 -0.0072  0.2764
19251TIP3    H279169   6.356   2.244  14.599 -1.0013 -1.8538  1.2491
19252TIP3   OH279170   0.225   6.384  16.578  0.5812  0.0969 -0.2716
19252TIP3    H179171   0.240   6.337  16.660 -1.0978 -0.4781 -0.2355
19252TIP3    H279172   0.206   6.315  16.515  0.5319  0.6048 -0.8177
19253TIP3   OH279173   2.178   0.751  13.178 -0.6124 -0.6040 -0.3214
19253TIP3    H179174   2.228   0.677  13.144 -0.3115 -0.9368  0.8032
19253TIP3    H279175   2.222   0.828  13.141  1.1820 -0.8540  1.1255
19254TIP3   OH279176   0.465   4.454  11.586  0.1572  0.2965  0.0004
19254TIP3    H179177   0.392   4.414  11.633 -0.0687 -1.5543 -1.7651
19254TIP3    H279178   0.460   4.547  11.608 -0.3025 -0.3234  3.0160
19255TIP3   OH279179   2.002   1.898  12.745  0.5320  0.4042 -0.1696
19255TIP3    H179180   1.975   1.954  12.672 -1.3124  0.8583  0.8097
19255TIP3    H279181   1.936   1.828  12.747  1.4662 -0.5042  0.1004
19256TIP3   OH279182   1.201   4.646   3.273 -0.4053  0.4313 -0.4060
19256TIP3    H179183   1.216   4.563   3.228 -4.1227  0.1441 -1.4500
19256TIP3    H279184   1.210   4.625   3.366 -0.1212 -0.8614 -0.7036
19257TIP3   OH279185   5.572   4.825  13.225 -0.3148 -0.2201 -0.2877
19257TIP3    H179186   5.576   4.739  13.184 -0.5902  0.5321 -1.9598
19257TIP3    H279187   5.480   4.850  13.220 -0.3942 -0.1682  0.9861
19258TIP3   OH279188   0.873   6.188   2.934  0.4058  0.2434  0.0449
19258TIP3    H179189   0.855   6.244   2.859  1.8762  1.0790  0.2802
19258TIP3    H279190   0.929   6.118   2.900 -1.4706 -1.2025 -0.2623
19259TIP3   OH279191   1.077   3.404   0.236 -0.8365 -0.2637  0.1256
19259TIP3    H179192   0.988   3.418   0.267 -0.5680  0.1720  0.7418
19259TIP3    H279193   1.125   3.482   0.266  0.0571 -1.1270  1.0295
19260TIP3   OH279194   4.489   0.311   3.245 -0.9158  0.3370  0.4324
19260TIP3    H179195   4.452   0.392   3.209  0.8335  0.5569 -0.9936
19260TIP3    H279196   4.517   0.262   3.168 -0.2537 -0.7855  1.3787
19261TIP3   OH279197   4.774   2.802   1.454  0.0780  0.3151 -0.0830
19261TIP3    H179198   4.717   2.862   1.405  0.7205 -0.0912 -1.3589
19261TIP3    H279199   4.851   2.791   1.399 -0.5792 -2.7429 -0.5952
19262TIP3   OH279200   4.833   3.787  14.530 -0.1158 -0.2353 -0.3533
19262TIP3    H179201   4.840   3.879  14.506 -1.0118 -0.1701 -0.3867
19262TIP3    H279202   4.832   3.786  14.625  2.8962 -0.4549 -0.2284
19263TIP3   OH279203   5.914   4.800   2.656 -0.5907  0.0967  0.3655
19263TIP3    H179204   5.942   4.735   2.720  0.6232  0.5543  0.3197
19263TIP3    H279205   5.993   4.850   2.636 -1.3080  1.0126 -0.2696
19264TIP3   OH279206   4.097   4.054   0.523 -1.0653  0.3366 -0.5696
19264TIP3    H179207   4.183   4.079   0.490 -1.3024  1.1535 -0.5779
19264TIP3    H279208   4.049   4.024   0.446 -0.7843 -0.1357 -0.5618
19265TIP3   OH279209   1.995   6.549   2.500 -0.4023  0.0347 -0.5158
19265TIP3    H179210   2.075   6.593   2.530 -0.0378 -0.4215 -0.8028
19265TIP3    H279211   2.005   6.544   2.405  0.7522 -2.8817 -0.3419
19266TIP3   OH279212   4.999   4.344  11.908 -0.9219 -0.1285  0.3733
19266TIP3    H179213   5.078   4.318  11.956 -0.2263  3.0402  1.1428
19266TIP3    H279214   5.029   4.353  11.817 -0.9055 -0.7768  0.3063
19267TIP3   OH279215   4.853   2.641  12.559 -0.6077  0.5167  0.0343
19267TIP3    H179216   4.803   2.643  12.477 -0.7360  0.8529  0.1175
19267TIP3    H279217   4.910   2.718  12.555  1.8588 -1.2436 -1.2463
19268TIP3   OH279218   4.373   0.697  14.689 -0.2023 -0.1653 -0.0585
19268TIP3    H179219   4.386   0.666  14.600  1.1609  1.8761 -0.6538
19268TIP3    H279220   4.301   0.760  14.682  1.0840  1.3780 -0.1579
19269TIP3   OH279221   2.333   2.824  14.465 -0.0218  0.5380 -0.0728
19269TIP3    H179222   2.370   2.766  14.399 -0.5060  1.8630 -1.5897
19269TIP3    H279223   2.407   2.877  14.494 -0.2728  1.8739 -1.6939
19270TIP3   OH279224   1.234   0.447  14.543  0.5141  0.0508  0.6109
19270TIP3    H179225   1.202   0.537  14.537 -1.3990 -0.6105  0.1689
19270TIP3    H279226   1.274   0.430  14.458 -0.2724  0.0746  0.2338
19271TIP3   OH279227   0.167   1.029  12.077 -0.4697  0.2606 -0.1369
19271TIP3    H179228   0.231   0.965  12.109 -0.2011  0.6256  0.0744
19271TIP3    H279229   0.083   0.995  12.106 -0.4227 -0.4747 -0.8368
19272TIP3   OH279230   6.562   2.697   2.033 -1.0335 -0.2060  0.0568
19272TIP3    H179231   6.483   2.714   2.084 -0.6098  0.3515  0.5361
19272TIP3    H279232   6.592   2.784   2.005 -0.9931 -0.4653 -0.7468
19273TIP3   OH279233   3.967   5.287  10.599  0.1545 -0.3364 -0.8044
19273TIP3    H179234   4.006   5.359  10.647 -0.6400  0.1422 -0.8519
19273TIP3    H279235   3.952   5.322  10.511 -2.6486  0.3662 -0.1400
19274TIP3   OH279236   6.103   2.543   3.636 -0.1993  0.6253 -0.2841
19274TIP3    H179237   6.187   2.512   3.603 -1.1935 -0.1918 -2.1488
19274TIP3    H279238   6.127   2.604   3.707  1.9566  0.6489 -0.9513
19275TIP3   OH279239   1.439   4.957   4.519 -0.0102 -0.1431 -0.0453
19275TIP3    H179240   1.444   5.040   4.565  2.3130 -0.1909 -0.1012
19275TIP3    H279241   1.530   4.935   4.498 -0.5323 -2.7251  0.0149
19276TIP3   OH279242   2.620   4.656   1.248 -0.3576 -0.1451 -0.0639
19276TIP3    H179243   2.557   4.586   1.233  0.0892 -0.7172  0.6898
19276TIP3    H279244   2.678   4.653   1.172 -0.0933 -0.8665  0.1611
19277TIP3   OH279245   1.458   2.629  16.250  0.0034  0.6579  0.2718
19277TIP3    H179246   1.374   2.676  16.257 -0.1509  0.2275  1.4026
19277TIP3    H279247   1.433   2.538  16.237  0.3106  0.7781 -1.3476
19278TIP3   OH279248   3.650   3.912   1.912  0.5561 -0.1159  0.0070
19278TIP3    H179249   3.567   3.865   1.913  0.1335  0.5914 -0.7882
19278TIP3    H279250   3.630   3.999   1.947  0.4532  0.8093 -2.1852
19279TIP3   OH279251   4.139   5.270   3.339  0.5197  0.4874  0.7607
19279TIP3    H179252   4.079   5.284   3.412 -1.2970 -0.8416 -0.3974
19279TIP3    H279253   4.083   5.264   3.262  2.2628  0.4624 -0.5740
19280TIP3   OH279254   5.105   1.892   2.176  0.1383 -0.0070  0.0531
19280TIP3    H179255   5.105   1.874   2.082  1.3743  1.8082 -0.3577
19280TIP3    H279256   5.013   1.905   2.198 -0.0571  1.0543 -1.2581
19281TIP3   OH279257   2.343   4.392  16.452  0.2192 -0.2497 -0.2764
19281TIP3    H179258   2.382   4.480  16.460 -0.0342 -0.1742  0.1654
19281TIP3    H279259   2.410   4.333  16.486  0.5917 -0.2847 -1.0402
19282TIP3   OH279260   3.965   2.110  11.503  0.5293  0.0894 -0.2405
19282TIP3    H179261   4.047   2.141  11.462  0.3442 -0.6311 -1.1926
19282TIP3    H279262   3.985   2.106  11.596  0.9005  2.0150 -0.1826
19283TIP3   OH279263   5.826   2.359  15.839  0.2239 -0.6829 -0.0721
19283TIP3    H179264   5.737   2.328  15.821  0.0161  0.2730 -0.7803
19283TIP3    H279265   5.818   2.412  15.918 -0.3932  1.6401 -1.6027
19284TIP3   OH279266   1.990   4.075  16.715 -0.0011  0.2137  0.0484
19284TIP3    H179267   2.071   4.124  16.727  0.6294 -0.6100 -0.7203
19284TIP3    H279268   2.012   3.985  16.736 -0.4207 -0.2029 -1.1763
19285TIP3   OH279269   6.184   0.707   1.196 -0.0187  0.4670  0.3341
19285TIP3    H179270   6.232   0.727   1.277  1.6804 -1.1185 -0.2081
19285TIP3    H279271   6.201   0.782   1.140  1.3870  0.2101  0.3748
19286TIP3   OH279272   6.249   1.130  14.807  0.3269  0.6444 -0.7214
19286TIP3    H179273   6.284   1.219  14.815  3.3406 -0.2178 -2.5323
19286TIP3    H279274   6.310   1.076  14.857 -0.6353 -0.5972 -0.8444
19287TIP3   OH279275   2.525   0.936   5.536  0.1893 -0.1083  0.0024
19287TIP3    H179276   2.447   0.881   5.533  0.7549 -0.9023 -2.2503
19287TIP3    H279277   2.493   1.025   5.522 -0.2394 -0.6417 -3.1479
19288TIP3   OH279278   0.466   2.541   6.562 -0.1499  0.1105 -0.4975
19288TIP3    H179279   0.459   2.636   6.546  1.0500  0.4977  1.0123
19288TIP3    H279280   0.384   2.506   6.529 -0.2713  1.5499 -1.8932
19289TIP3   OH279281   5.167   4.961   3.107 -0.2439  0.6416 -0.2648
19289TIP3    H179282   5.168   4.908   3.028 -1.1191  1.8897 -1.1374
19289TIP3    H279283   5.101   4.920   3.163 -1.5969  1.3361 -1.3228
19290TIP3   OH279284   5.480   6.643  14.459 -0.0072  0.4567 -0.1286
19290TIP3    H179285   5.549   6.631  14.394 -0.0984 -0.5994 -0.0578
19290TIP3    H279286   5.415   6.576  14.437 -0.7182  1.0349  0.1797
19291TIP3   OH279287   0.469   1.556   0.784  0.0986 -0.0863  0.4962
19291TIP3    H179288   0.484   1.629   0.844 -0.3721 -0.2157  0.7772
19291TIP3    H279289   0.422   1.491   0.837 -0.1079 -0.3022  0.0533
19292TIP3   OH279290   4.829   0.225   2.426 -0.0497 -0.4101 -0.5255
19292TIP3    H179291   4.754   0.284   2.419  0.1511 -0.0283  0.4492
19292TIP3    H279292   4.802   0.160   2.491  0.3059 -0.5227 -0.4889
19293TIP3   OH279293   5.217   4.251   5.319 -0.2374  0.2582 -0.3535
19293TIP3    H179294   5.149   4.184   5.312  0.7329 -0.7613 -0.3509
19293TIP3    H279295   5.294   4.211   5.279  0.8812  0.6438  1.2771
19294TIP3   OH279296   4.859   0.854   3.569 -0.2872 -0.0486 -0.4972
19294TIP3    H179297   4.911   0.934   3.578  0.4008 -0.1178 -3.1063
19294TIP3    H279298   4.924   0.786   3.549 -1.1757 -0.4957 -1.9886
19295TIP3   OH279299   3.692   2.021   5.610  0.3806 -0.4420  0.4229
19295TIP3    H179300   3.733   1.940   5.579  0.1804  0.4490 -2.4494
19295TIP3    H279301   3.667   2.001   5.700  2.3473 -2.7887  0.5820
19296TIP3   OH279302   2.890   3.181  16.336 -0.3747  0.2292 -0.6789
19296TIP3    H179303   2.940   3.160  16.256  0.3941 -1.9605  0.2854
19296TIP3    H279304   2.956   3.181  16.405 -1.3303  0.0653  0.2457
19297TIP3   OH279305   1.540   0.527   5.323 -0.1596 -0.1692 -0.0324
19297TIP3    H179306   1.587   0.456   5.366 -0.2673 -0.2911 -0.1174
19297TIP3    H279307   1.447   0.510   5.341 -0.2471 -0.5711 -0.8452
19298TIP3   OH279308   0.271   3.415   5.127  0.3772 -0.0119 -0.7480
19298TIP3    H179309   0.190   3.369   5.150  0.8430 -1.0319 -1.1023
19298TIP3    H279310   0.340   3.349   5.134  1.2354  0.9024 -0.1949
19299TIP3   OH279311   4.335   2.824   3.674 -0.0882  0.0428 -0.1394
19299TIP3    H179312   4.348   2.917   3.691  1.3511 -0.3697  1.4194
19299TIP3    H279313   4.341   2.815   3.579  1.8175  1.3216 -0.2022
19300TIP3   OH279314   0.282   0.645  14.797 -0.3140 -0.4285 -0.1851
19300TIP3    H179315   0.291   0.567  14.852  2.4100 -0.8941 -1.1077
19300TIP3    H279316   0.327   0.713  14.846 -0.1820 -0.1761 -0.6528
19301TIP3   OH279317   2.301   3.294   4.700  0.0312  0.5912 -0.3662
19301TIP3    H179318   2.221   3.242   4.696 -0.7445  1.7498 -0.5863
19301TIP3    H279319   2.352   3.266   4.625  0.4411 -1.0755  0.4829
19302TIP3   OH279320   3.238   1.707  14.794  0.3569  0.3466  0.1731
19302TIP3    H179321   3.253   1.800  14.812 -1.7009  0.5206  1.4197
19302TIP3    H279322   3.198   1.673  14.875 -1.5890 -0.9073 -1.2026
19303TIP3   OH279323   3.479   6.445  17.112  0.5811  0.3273  0.0067
19303TIP3    H179324   3.457   6.382  17.181  0.0514  1.6312  1.0778
19303TIP3    H279325   3.532   6.395  17.050 -0.1584 -1.2659  0.6048
19304TIP3   OH279326   4.369   5.527  13.093  0.1719  0.1289  0.3400
19304TIP3    H179327   4.379   5.482  13.009  2.1955  2.7069 -0.9108
19304TIP3    H279328   4.291   5.582  13.081 -1.2196 -1.5257  1.2419
19305TIP3   OH279329   4.851   6.640   0.016 -0.5746 -0.0291 -0.3434
19305TIP3    H179330   4.864   6.561  -0.038  0.4377 -1.4954  1.8996
19305TIP3    H279331   4.791   6.613   0.085 -1.7199  1.7653 -0.5591
19306TIP3   OH279332   0.883   0.525   2.748  0.1255 -0.8883  0.1247
19306TIP3    H179333   0.835   0.444   2.764  1.4577 -1.7846 -0.2226
19306TIP3    H279334   0.869   0.543   2.655 -0.8984 -0.2049  0.3945
19307TIP3   OH279335   2.521   0.808  16.414 -0.0455 -0.0507  0.1429
19307TIP3    H179336   2.593   0.798  16.351 -0.4451  0.8870 -0.4929
19307TIP3    H279337   2.556   0.777  16.497  0.0785 -2.6695 -0.7936
19308TIP3   OH279338   1.963   1.001  14.795  0.3118  0.1307 -0.0269
19308TIP3    H179339   1.896   0.947  14.835  0.6797  0.3448  0.8942
19308TIP3    H279340   1.945   1.090  14.826  0.6461  0.2920 -0.2776
19309TIP3   OH279341   2.567   3.616  16.676  0.0753 -0.2177 -0.1503
19309TIP3    H179342   2.524   3.701  16.665 -0.7543 -0.5762  0.2235
19309TIP3    H279343   2.579   3.583  16.587  0.6763  0.4176 -0.3090
19310TIP3   OH279344   1.293   6.613   0.160 -0.3059  0.4001  0.0288
19310TIP3    H179345   1.331   6.695   0.191 -1.0692  0.5093  0.7240
19310TIP3    H279346   1.243   6.580   0.235 -0.7965 -0.2040 -0.5503
19311TIP3   OH279347   5.568   2.628  12.455  0.1056  0.4523 -0.0964
19311TIP3    H179348   5.498   2.618  12.391  0.2861 -1.2541 -0.0883
19311TIP3    H279349   5.528   2.675  12.528 -0.6797  0.5799 -0.5980
19312TIP3   OH279350   0.524   0.447   2.633 -0.5040  0.5771 -0.0308
19312TIP3    H179351   0.542   0.424   2.542  0.3782 -1.1453  0.5328
19312TIP3    H279352   0.429   0.456   2.637 -0.5692  0.4572 -1.0759
19313TIP3   OH279353   0.130   2.887  14.706 -0.2597  0.4374 -0.2078
19313TIP3    H179354   0.122   2.934  14.789  1.1800 -1.3751  1.0405
19313TIP3    H279355   0.042   2.888  14.669 -1.3138 -0.0469  2.1132
19314TIP3   OH279356   2.512   4.796  16.251  0.0082  0.1559 -0.0381
19314TIP3    H179357   2.449   4.863  16.278  1.4476  1.3536  0.5095
19314TIP3    H279358   2.564   4.838  16.183  1.5280 -0.0322  0.9508
19315TIP3   OH279359   1.618   0.519   1.820  0.2794 -0.2461 -0.1240
19315TIP3    H179360   1.656   0.545   1.736 -0.7682 -0.0716 -0.5705
19315TIP3    H279361   1.526   0.547   1.814  0.3825  0.5263  1.4194
19316TIP3   OH279362   6.155   5.923   5.217  0.4601  0.1489 -0.0191
19316TIP3    H179363   6.093   5.857   5.186  0.8940 -0.2150 -0.1276
19316TIP3    H279364   6.114   5.960   5.294 -0.0441  0.1469 -0.2868
19317TIP3   OH279365   2.755   1.092  12.175 -0.1054  0.1104 -0.1562
19317TIP3    H179366   2.721   1.043  12.250  0.0860  0.6737  0.3131
19317TIP3    H279367   2.850   1.080  12.180 -0.0598  0.4873 -0.0571
19318TIP3   OH279368   4.551   0.094  11.058 -0.7596 -0.4691  0.0863
19318TIP3    H179369   4.632   0.112  11.010 -1.5207  3.3400 -0.0753
19318TIP3    H279370   4.489   0.066  10.991 -0.1597 -1.3846 -0.1039
19319TIP3   OH279371   6.294   4.321  12.235  0.2226  0.3192 -0.0096
19319TIP3    H179372   6.199   4.325  12.243  0.2099  0.3068 -0.1558
19319TIP3    H279373   6.321   4.411  12.220  0.0025  0.0232 -2.5852
19320TIP3   OH279374   0.884   0.154   6.179  0.3369 -0.1664 -0.4742
19320TIP3    H179375   0.871   0.149   6.273 -0.2892 -1.4865 -0.6072
19320TIP3    H279376   0.870   0.247   6.158 -1.1110 -0.1311  0.5178
19321TIP3   OH279377   1.839   0.787   5.795  0.7206  0.8094  0.2407
19321TIP3    H179378   1.863   0.735   5.872  0.9846 -1.3838 -1.2266
19321TIP3    H279379   1.766   0.841   5.825  0.3268 -0.5072  1.8417
19322TIP3   OH279380   3.531   1.537  11.914 -0.1691 -0.1657  0.1878
19322TIP3    H179381   3.554   1.568  11.826 -2.3253  1.7346  0.1768
19322TIP3    H279382   3.452   1.484  11.901  0.3350 -1.0998  0.8443
19323TIP3   OH279383   3.478   4.205   5.440 -0.3725 -0.5354  0.2825
19323TIP3    H179384   3.506   4.285   5.485  0.3669 -0.5243 -0.1817
19323TIP3    H279385   3.543   4.139   5.464  0.5341 -0.3136 -1.4143
19324TIP3   OH279386   4.902   6.542  11.768 -0.7003 -0.2328  0.0334
19324TIP3    H179387   4.995   6.560  11.757 -0.6681 -0.3572  0.0965
19324TIP3    H279388   4.877   6.593  11.845 -0.9511  0.7194 -0.6607
19325TIP3   OH279389   3.445   5.457  13.581 -0.0066 -0.6926 -0.2561
19325TIP3    H179390   3.394   5.537  13.568 -0.1212 -0.6566  0.3731
19325TIP3    H279391   3.403   5.413  13.655 -1.0392 -2.2442 -1.7146
19326TIP3   OH279392   3.518   5.228  10.931 -0.4946 -0.1083 -0.5704
19326TIP3    H179393   3.554   5.145  10.962 -1.9844 -0.8581 -0.7570
19326TIP3    H279394   3.468   5.262  11.004 -1.8850 -0.5988 -1.2632
19327TIP3   OH279395   6.290   6.229  14.048 -0.3470 -0.1874 -0.3518
19327TIP3    H179396   6.295   6.229  13.953  1.5984  0.7967 -0.2845
19327TIP3    H279397   6.351   6.161  14.075 -0.6618 -0.2547  0.2111
19328TIP3   OH279398   2.650   3.246   3.964  0.4748 -0.3771 -0.3180
19328TIP3    H179399   2.693   3.328   3.940 -1.4755  0.4307 -1.2784
19328TIP3    H279400   2.684   3.181   3.902  1.9961 -0.3370  0.4200
19329TIP3   OH279401   6.355   2.290   1.783  0.2655  0.6935  0.6927
19329TIP3    H179402   6.326   2.240   1.859  0.9750 -0.3782  0.2842
19329TIP3    H279403   6.394   2.369   1.819 -1.0931  1.1029  1.3428
19330TIP3   OH279404   5.249   6.740   3.312  0.1862  0.1136  0.3646
19330TIP3    H179405   5.243   6.646   3.297 -0.1073  0.3329 -1.0419
19330TIP3    H279406   5.343   6.760   3.306  0.1032  0.1659 -1.2316
19331TIP3   OH279407   3.414   3.996  13.828 -0.7085 -0.1536  0.3690
19331TIP3    H179408   3.348   4.006  13.897 -0.1278  0.9276  0.7991
19331TIP3    H279409   3.423   4.083  13.791 -1.8549 -0.9477 -1.9073
19332TIP3   OH279410   3.001   6.467   1.362 -0.3323  0.2047 -0.1754
19332TIP3    H179411   3.090   6.455   1.394 -0.2655 -0.3276 -0.5515
19332TIP3    H279412   2.967   6.378   1.351 -0.5883  0.3853 -0.9111
19333TIP3   OH279413   2.791   5.813   6.827 -0.1232 -0.4769  0.3401
19333TIP3    H179414   2.766   5.729   6.864 -0.5809  0.1459  1.4964
19333TIP3    H279415   2.874   5.797   6.783 -0.5151 -1.6640  0.0079
19334TIP3   OH279416   5.266   5.389   0.073 -0.3093  1.0990 -0.0607
19334TIP3    H179417   5.187   5.380   0.019 -0.2858  0.7872 -0.0437
19334TIP3    H279418   5.338   5.363   0.015 -0.2815  0.7784  0.1164
19335TIP3   OH279419   3.782   3.091   3.448 -0.2432  0.1790  0.0612
19335TIP3    H179420   3.868   3.127   3.426  0.0475 -0.3256  0.3549
19335TIP3    H279421   3.720   3.160   3.424  0.1783  0.2338 -0.9194
19336TIP3   OH279422   2.308   4.028  12.819 -0.2267  0.3900 -0.5958
19336TIP3    H179423   2.296   4.086  12.894 -1.2908 -1.2586  0.5678
19336TIP3    H279424   2.391   3.984  12.836 -1.0443 -0.8698  0.2837
19337TIP3   OH279425   3.721   0.758   2.193  0.4781  0.0707 -0.7843
19337TIP3    H179426   3.788   0.773   2.260  0.8186  1.3801 -1.3894
19337TIP3    H279427   3.715   0.841   2.146 -2.3616  0.3753 -0.0643
19338TIP3   OH279428   5.458   1.383   5.097 -0.2696 -0.6583 -0.2659
19338TIP3    H179429   5.481   1.469   5.134 -1.9147 -0.9115  1.4934
19338TIP3    H279430   5.540   1.351   5.060  0.4974  1.4707 -0.5866
19339TIP3   OH279431   6.747   5.699   2.001 -0.0346 -0.6794 -0.2158
19339TIP3    H179432   6.782   5.787   1.990  1.3221 -1.4801 -3.4676
19339TIP3    H279433   6.824   5.644   2.018 -0.6649 -1.4669  0.1823
19340TIP3   OH279434   4.954   5.193   5.147 -0.3765 -0.5981  0.3614
19340TIP3    H179435   4.910   5.124   5.099 -0.7103 -1.0934  1.3564
19340TIP3    H279436   4.904   5.272   5.126  0.2134 -0.5667 -1.0537
19341TIP3   OH279437   4.582   3.769  13.557 -0.3330 -0.6110 -0.1858
19341TIP3    H179438   4.529   3.779  13.637  0.2283  2.5558 -0.0574
19341TIP3    H279439   4.670   3.796  13.584  0.4941 -2.0699 -1.2972
19342TIP3   OH279440   3.085   2.499   1.557 -0.8569  0.0803 -0.3843
19342TIP3    H179441   3.179   2.481   1.570 -1.0979 -0.1703  1.1669
19342TIP3    H279442   3.048   2.415   1.532 -0.8379 -0.0574  0.0443
19343TIP3   OH279443   4.303   5.731  16.290  0.4451  0.2291 -0.4104
19343TIP3    H179444   4.382   5.785  16.297  0.7084 -0.3107  1.3112
19343TIP3    H279445   4.240   5.787  16.245  1.5947  0.9013 -1.2475
19344TIP3   OH279446   2.662   5.310  15.334  0.3329 -0.5317  0.0244
19344TIP3    H179447   2.699   5.396  15.313 -0.6756  0.0390  0.5385
19344TIP3    H279448   2.738   5.252  15.334  0.8535  0.0696 -1.7112
19345TIP3   OH279449   5.322   4.924  13.193  0.1203  0.5986 -0.4490
19345TIP3    H179450   5.318   4.999  13.253  1.0084  0.5080 -0.2552
19345TIP3    H279451   5.322   4.962  13.106 -0.2217  0.7804 -0.3704
19346TIP3   OH279452   1.204   0.537  16.256  0.1260  0.1417 -0.7359
19346TIP3    H179453   1.144   0.497  16.319  0.2316 -0.7083 -1.1526
19346TIP3    H279454   1.201   0.631  16.275 -0.6025  0.0026 -0.1301
19347TIP3   OH279455   2.505   2.112  12.375  0.0502 -0.3171 -0.8484
19347TIP3    H179456   2.411   2.117  12.359 -0.2632 -0.4719  0.7192
19347TIP3    H279457   2.545   2.130  12.291 -1.3726  0.7631 -1.3392
19348TIP3   OH279458   2.016   4.142   3.197 -0.2016  0.6305  0.0820
19348TIP3    H179459   2.072   4.192   3.256 -2.2990  2.3356  0.7585
19348TIP3    H279460   1.930   4.142   3.239 -0.8422 -1.6516 -1.0238
19349TIP3   OH279461   0.771   4.373   0.649 -0.3260 -0.2835  0.3725
19349TIP3    H179462   0.783   4.285   0.612  0.6279 -0.3767  0.8700
19349TIP3    H279463   0.801   4.365   0.740 -0.1184  0.5822  0.3862
19350TIP3   OH279464   4.436   3.279   3.909  0.4504  0.0913  0.3212
19350TIP3    H179465   4.512   3.310   3.957  1.9319  1.0479 -2.4258
19350TIP3    H279466   4.370   3.348   3.919 -0.1766 -0.7628  2.7456
19351TIP3   OH279467   3.180   6.662  15.612  0.3907  0.0524  0.5635
19351TIP3    H179468   3.141   6.588  15.659  1.6051 -1.0786 -0.1279
19351TIP3    H279469   3.140   6.739  15.651 -0.0540 -0.9161  2.1276
19352TIP3   OH279470   2.495   6.254   3.514  0.2194 -0.1191  0.3235
19352TIP3    H179471   2.400   6.244   3.515  0.3333 -2.1421 -1.9055
19352TIP3    H279472   2.524   6.220   3.599 -0.9289 -1.3534  0.2475
19353TIP3   OH279473   4.662   1.051   3.139  0.0045  0.5553  0.5698
19353TIP3    H179474   4.740   1.018   3.184 -0.8060 -2.0108  0.2827
19353TIP3    H279475   4.661   1.145   3.159  3.2608  0.7688  0.3752
19354TIP3   OH279476   5.757   2.371   0.935  0.2887 -0.9419 -0.0569
19354TIP3    H179477   5.848   2.341   0.936  0.1770 -1.2715  0.9568
19354TIP3    H279478   5.706   2.291   0.927  0.0920 -0.7061 -1.3715
19355TIP3   OH279479   1.821   0.021  14.358 -0.3477  0.1766  0.8414
19355TIP3    H179480   1.900   0.043  14.309 -1.0073  0.9509  0.1089
19355TIP3    H279481   1.769  -0.032  14.298  0.0749 -1.2790  1.7027
19356TIP3   OH279482   0.716   6.607  14.191 -0.1906  0.0904  0.6115
19356TIP3    H179483   0.760   6.659  14.124 -0.0986 -2.0922 -1.1365
19356TIP3    H279484   0.662   6.670  14.238  0.9672  1.9826 -0.4507
19357TIP3   OH279485   3.409   6.149   5.174 -0.3096  0.1230  0.3741
19357TIP3    H179486   3.449   6.236   5.174 -0.8005  0.3846 -0.9438
19357TIP3    H279487   3.481   6.088   5.159 -0.2959  0.5435 -1.4456
19358TIP3   OH279488   2.187   2.402   3.191  0.3440 -0.2773  0.2466
19358TIP3    H179489   2.190   2.351   3.271  1.2881 -1.3682 -0.4518
19358TIP3    H279490   2.271   2.448   3.188  1.2051 -1.8280 -1.0777
19359TIP3   OH279491   5.535   1.075  11.700  0.0747 -0.2651 -0.2113
19359TIP3    H179492   5.486   1.077  11.782  3.0881 -1.3603  1.7855
19359TIP3    H279493   5.514   0.990  11.662  1.0953 -1.1884  1.1698
19360TIP3   OH279494   4.285   2.241   1.439  0.2929  0.6432 -0.3051
19360TIP3    H179495   4.209   2.227   1.495 -0.8733  1.1740 -1.6822
19360TIP3    H279496   4.331   2.314   1.479 -0.7941  1.3484 -0.2932
19361TIP3   OH279497   4.327   2.092   2.905  0.2177 -0.5118 -0.1874
19361TIP3    H179498   4.291   2.062   2.821 -2.2840  1.3200  0.1280
19361TIP3    H279499   4.266   2.159   2.935  1.4942 -0.5047  2.7264
19362TIP3   OH279500   2.157   2.911  14.106  0.1784 -0.8274  0.0565
19362TIP3    H179501   2.249   2.886  14.098  0.4922  0.5342 -1.0301
19362TIP3    H279502   2.123   2.857  14.177  1.5241 -2.1658 -0.2747
19363TIP3   OH279503   0.921   6.735   2.215  0.6724 -0.3800 -0.6155
19363TIP3    H179504   0.983   6.746   2.287 -0.9092 -0.1910  0.7716
19363TIP3    H279505   0.904   6.641   2.212 -1.0738 -0.1842  0.9323
19364TIP3   OH279506   0.500   6.105  13.727 -0.2103 -0.1437 -0.6980
19364TIP3    H179507   0.515   6.193  13.691 -0.5784  0.2241  0.0182
19364TIP3    H279508   0.588   6.067  13.732 -0.1070 -0.0283 -1.5335
19365TIP3   OH279509   3.460   0.323  12.446  0.2215  0.6931 -0.1541
19365TIP3    H179510   3.459   0.401  12.502  1.2898 -0.7102  1.9211
19365TIP3    H279511   3.368   0.308  12.425 -0.0918  1.9277  0.2193
19366TIP3   OH279512   1.489   4.097  13.358  0.1481  0.2301  0.0788
19366TIP3    H179513   1.483   4.002  13.368  0.2233  0.1203 -0.8333
19366TIP3    H279514   1.542   4.126  13.433  0.2607 -0.4647  0.2754
19367TIP3   OH279515   1.671   3.673   5.185 -0.0031 -0.1530  0.4933
19367TIP3    H179516   1.765   3.668   5.203 -0.0110  1.0033  0.9420
19367TIP3    H279517   1.646   3.761   5.214 -0.9194  0.1325 -1.0768
19368TIP3   OH279518   4.944   2.072   5.179 -0.1118 -0.1989 -0.0201
19368TIP3    H179519   4.941   2.112   5.266  0.0585  0.9436 -0.5283
19368TIP3    H279520   4.855   2.081   5.145 -0.2731 -0.9789  0.1639
19369TIP3   OH279521   2.400   1.102  14.930  0.5596  0.3241 -0.5176
19369TIP3    H179522   2.385   1.194  14.906  2.4563  0.5262 -1.1685
19369TIP3    H279523   2.459   1.070  14.861  0.3379 -1.2394 -0.0085
19370TIP3   OH279524   3.284   0.660   0.325  0.1414 -0.0228 -0.0788
19370TIP3    H179525   3.292   0.743   0.372 -3.9112 -0.7118  2.2991
19370TIP3    H279526   3.195   0.660   0.290 -0.5135 -3.7263  1.0841
19371TIP3   OH279527   2.190   0.723  15.341  0.2216 -0.3258  0.5180
19371TIP3    H179528   2.175   0.629  15.336 -2.5366 -0.0250  1.1253
19371TIP3    H279529   2.186   0.743  15.434 -0.8027  0.5526  0.3082
19372TIP3   OH279530   6.628   0.479   4.364 -0.4672 -0.1344 -0.2395
19372TIP3    H179531   6.672   0.542   4.307 -0.4753  0.3723  0.2972
19372TIP3    H279532   6.534   0.493   4.347 -0.5774  1.4970  1.3716
19373TIP3   OH279533   2.640   5.315  10.618 -0.1625  0.0492 -0.1004
19373TIP3    H179534   2.684   5.391  10.579  0.7140 -0.1418  0.4923
19373TIP3    H279535   2.547   5.334  10.608  0.0147  1.7769  1.0934
19374TIP3   OH279536   3.284   6.441  14.464  0.3782  0.2426  0.3650
19374TIP3    H179537   3.343   6.513  14.441  0.2742 -0.2605 -1.7059
19374TIP3    H279538   3.277   6.389  14.383 -0.5765 -1.3630  1.4220
19375TIP3   OH279539   1.770   2.810  12.246  0.1738  0.6512 -0.6970
19375TIP3    H179540   1.726   2.896  12.243 -1.8732 -0.2999  0.1034
19375TIP3    H279541   1.801   2.796  12.157  0.7804  2.3312 -0.7822
19376TIP3   OH279542   3.119   0.213   5.628 -0.0531 -0.6050  0.3753
19376TIP3    H179543   3.191   0.275   5.633  0.0322 -0.7908  1.8194
19376TIP3    H279544   3.139   0.146   5.693 -1.3490 -0.8582  0.5557
19377TIP3   OH279545   1.274   4.988   5.195  0.2964 -0.0724  1.1149
19377TIP3    H179546   1.295   4.898   5.220  0.4186 -0.6664 -0.9039
19377TIP3    H279547   1.231   4.979   5.109  0.6417  1.8207  0.7019
19378TIP3   OH279548   3.208   0.523   3.073  0.6548 -0.0398  0.3495
19378TIP3    H179549   3.209   0.467   2.996 -1.6385 -0.7392  0.7339
19378TIP3    H279550   3.218   0.463   3.147 -1.7729 -0.0509  0.7665
19379TIP3   OH279551   1.948   1.895  15.840 -0.4832 -0.0150  0.1632
19379TIP3    H179552   1.983   1.808  15.817 -1.0154  0.0654 -1.0181
19379TIP3    H279553   2.003   1.956  15.791 -0.3675  0.3021  0.6810
19380TIP3   OH279554   0.745   3.080  12.814 -0.0000  0.4878  0.6146
19380TIP3    H179555   0.754   3.172  12.790 -0.1026  0.4505  0.4382
19380TIP3    H279556   0.651   3.066  12.822 -0.0206  0.1916 -0.1431
19381TIP3   OH279557   4.250   3.845   1.600 -0.0793  0.0714 -0.5917
19381TIP3    H179558   4.318   3.805   1.655 -0.1655 -2.3165 -2.0727
19381TIP3    H279559   4.299   3.897   1.536  0.1103  1.3737  0.5756
19382TIP3   OH279560   5.157   3.485  10.568 -0.7549  0.0559  0.1002
19382TIP3    H179561   5.186   3.459  10.481 -0.3906 -1.6616  0.6936
19382TIP3    H279562   5.119   3.405  10.606 -2.7102  1.2352  0.8204
19383TIP3   OH279563   2.701   6.335   1.897 -0.4097  0.2400 -0.5108
19383TIP3    H179564   2.776   6.350   1.840 -1.2613  0.7957 -1.5084
19383TIP3    H279565   2.737   6.282   1.969  0.5512 -1.0487 -1.8732
19384TIP3   OH279566   5.309   1.648  11.609  0.4346  0.3085  0.3714
19384TIP3    H179567   5.374   1.591  11.650  1.1759  0.3881 -0.6495
19384TIP3    H279568   5.250   1.588  11.563  0.6429  0.2963  0.1110
19385TIP3   OH279569   6.357   4.394  16.062 -0.3120 -0.5767  0.4658
19385TIP3    H179570   6.346   4.359  15.974 -0.1602 -1.4926  0.8012
19385TIP3    H279571   6.447   4.373  16.086  0.6674  2.2921 -0.2718
19386TIP3   OH279572   2.048   5.489  15.547 -0.1748  0.0819  0.4170
19386TIP3    H179573   2.101   5.559  15.586 -0.0230 -0.1399  0.6073
19386TIP3    H279574   2.066   5.412  15.600 -0.0812 -0.1860 -0.0016
19387TIP3   OH279575   4.086   4.575   3.276  0.4303 -0.2851  0.2608
19387TIP3    H179576   4.161   4.540   3.227  1.1048  0.4770  0.7281
19387TIP3    H279577   4.110   4.565   3.368 -0.3733 -0.7190  0.4377
19388TIP3   OH279578   0.523   6.719   4.154 -0.3488 -0.7649  0.2231
19388TIP3    H179579   0.572   6.640   4.176 -1.0908 -1.3223 -0.0898
19388TIP3    H279580   0.528   6.725   4.058  1.5124  0.7640  0.3462
19389TIP3   OH279581   5.974   6.755  16.338 -0.9056 -0.5206 -0.0846
19389TIP3    H179582   6.063   6.721  16.343  0.7673  3.2178 -1.0676
19389TIP3    H279583   5.940   6.723  16.254  0.2830 -0.4111 -0.6215
19390TIP3   OH279584   5.382   0.989   2.305 -0.6534  0.2481 -0.5891
19390TIP3    H179585   5.471   1.009   2.276  0.7876 -1.4491  2.1362
19390TIP3    H279586   5.380   0.893   2.311 -1.1107  0.3432  3.3648
19391TIP3   OH279587   1.824   1.015  14.399  0.1421  0.0382 -0.0157
19391TIP3    H179588   1.744   1.037  14.351 -0.6580  0.4988  1.4839
19391TIP3    H279589   1.888   1.081  14.370 -0.2970  0.2627 -0.4909
19392TIP3   OH279590   6.562   1.066  14.552 -0.1266  0.0598  0.3877
19392TIP3    H179591   6.580   0.982  14.595  1.2474 -0.1031 -0.4152
19392TIP3    H279592   6.638   1.121  14.574  0.0885  0.3202 -0.9004
19393TIP3   OH279593   4.010   6.639   5.605  0.0650  0.2829  0.2300
19393TIP3    H179594   4.083   6.658   5.664 -0.0362 -0.2623  0.5442
19393TIP3    H279595   4.046   6.647   5.517  0.0213  1.9165  0.3226
19394TIP3   OH279596   5.615   5.875   0.787  0.3378 -0.7153  0.2769
19394TIP3    H179597   5.554   5.804   0.772 -1.2650  0.4422  0.9769
19394TIP3    H279598   5.573   5.952   0.748  3.2854 -0.5461 -3.0214
19395TIP3   OH279599   6.007   6.325  16.503 -0.5705 -0.3231 -0.3225
19395TIP3    H179600   5.996   6.241  16.547 -1.1457  0.3205  0.8307
19395TIP3    H279601   5.946   6.322  16.429 -1.0780 -0.6696  0.1024
19396TIP3   OH279602   5.003   0.872  11.428 -0.0900  1.0221 -0.1793
19396TIP3    H179603   4.932   0.884  11.365 -0.5442  0.0824  0.1328
19396TIP3    H279604   4.961   0.826  11.501  1.6474 -3.3787 -1.6494
19397TIP3   OH279605   0.155   1.020  17.059  0.1693  0.1420 -0.8419
19397TIP3    H179606   0.118   1.080  17.124  0.4951 -0.5466 -0.0131
19397TIP3    H279607   0.160   1.073  16.979 -1.3236  0.6594 -0.6274
19398TIP3   OH279608   1.189   3.168   0.375  0.7527  0.0197 -0.3784
19398TIP3    H179609   1.151   3.090   0.336 -0.1604 -0.2879  1.0335
19398TIP3    H279610   1.148   3.241   0.329 -0.5677 -0.3302  0.1815
19399TIP3   OH279611   3.166   6.618   1.764 -0.5227  0.0672  0.4820
19399TIP3    H179612   3.129   6.700   1.729 -0.8513  0.0524  0.7947
19399TIP3    H279613   3.092   6.575   1.807 -0.4390 -0.5759 -0.0061
19400TIP3   OH279614   1.950   4.457  15.843  0.2071 -0.0966 -0.1799
19400TIP3    H179615   1.909   4.371  15.849 -1.6201  0.6790 -1.0438
19400TIP3    H279616   1.956   4.487  15.934  0.6350 -0.9993  0.1045
19401TIP3   OH279617   5.180   3.229  11.163  0.1030 -0.1423  0.8723
19401TIP3    H179618   5.189   3.298  11.229  0.8406 -1.2024  1.9158
19401TIP3    H279619   5.267   3.222  11.124  0.7546 -2.1205  2.5040
19402TIP3   OH279620   2.784   4.643  16.262  0.4782 -0.2804  0.2333
19402TIP3    H179621   2.812   4.717  16.315  1.0870 -0.2223 -0.1544
19402TIP3    H279622   2.692   4.660  16.243  0.3336 -0.1549  1.0111
19403TIP3   OH279623   0.962   5.309  10.414  0.3143  0.4453  0.3087
19403TIP3    H179624   1.033   5.271  10.466 -0.1355 -1.3062 -0.2729
19403TIP3    H279625   0.940   5.390  10.459  2.2323  0.7019  0.8718
19404TIP3   OH279626   5.011   5.237   0.678  0.2902  0.2942  0.1165
19404TIP3    H179627   4.975   5.296   0.611  1.0738  0.6558  0.0016
19404TIP3    H279628   5.063   5.294   0.735  2.6530 -0.5027 -1.1043
19405TIP3   OH279629   2.438   1.584  11.229  0.0247  0.2031 -0.6771
19405TIP3    H179630   2.410   1.543  11.147 -1.0518 -0.6234  0.0737
19405TIP3    H279631   2.383   1.662  11.237 -0.8635 -0.4611 -0.0838
19406TIP3   OH279632   2.540   2.395   1.940  0.8140  0.0276 -0.5236
19406TIP3    H179633   2.478   2.338   1.893 -1.1421  1.0200  0.6921
19406TIP3    H279634   2.624   2.380   1.897  0.0473 -2.5038 -1.3264
19407TIP3   OH279635   6.643   0.996   0.070 -0.5716  0.1092 -0.4051
19407TIP3    H179636   6.695   1.029  -0.002 -1.9778  0.9316 -1.0827
19407TIP3    H279637   6.695   1.016   0.148  0.8166 -0.5024 -1.1338
19408TIP3   OH279638   6.406   3.859  14.140  0.0591  0.0082  0.2130
19408TIP3    H179639   6.455   3.939  14.160  1.4919 -1.1608  1.7530
19408TIP3    H279640   6.459   3.815  14.074  0.3600 -0.5761  0.8258
19409TIP3   OH279641   2.655   6.701  13.195  0.0602  0.1865  0.2861
19409TIP3    H179642   2.654   6.774  13.133 -1.2868 -0.4569 -0.4704
19409TIP3    H279643   2.683   6.625  13.143 -1.7037 -0.4941  0.2609
19410TIP3   OH279644   3.343   3.691   2.700  0.0780 -0.2634  0.0074
19410TIP3    H179645   3.411   3.636   2.661  0.3618 -0.4567  0.7433
19410TIP3    H279646   3.390   3.743   2.766 -0.8352 -2.0836  2.1999
19411TIP3   OH279647   2.798   3.201  12.592 -0.3468  0.3516 -0.2014
19411TIP3    H179648   2.827   3.119  12.632  2.7988  0.9358 -1.0020
19411TIP3    H279649   2.752   3.173  12.513 -2.1187 -0.6558  1.1153
19412TIP3   OH279650   1.871   1.079   3.732 -0.4901  0.2671 -0.2271
19412TIP3    H179651   1.933   1.135   3.779 -1.6406  1.9123 -0.5765
19412TIP3    H279652   1.881   1.104   3.640 -1.2822  0.1758 -0.3450
19413TIP3   OH279653   0.849   0.651  13.339 -0.3672  0.2333  0.4179
19413TIP3    H179654   0.908   0.726  13.349 -0.0136  0.2610 -1.5314
19413TIP3    H279655   0.897   0.578  13.379  0.6500  0.4329 -0.3891
19414TIP3   OH279656   3.123   6.185   5.833  0.4081  0.0395 -0.3164
19414TIP3    H179657   3.156   6.166   5.745  2.3004  0.5327  0.2434
19414TIP3    H279658   3.100   6.278   5.830 -1.3907 -0.3710 -0.7970
19415TIP3   OH279659   3.822   2.221  12.095  0.3053  0.1108 -0.4546
19415TIP3    H179660   3.801   2.272  12.173 -1.1648 -0.8444 -0.1976
19415TIP3    H279661   3.836   2.286  12.026  1.4738  0.9563  0.5461
19416TIP3   OH279662   4.228   3.252  12.653  0.5893  0.1294  0.2473
19416TIP3    H179663   4.198   3.340  12.632  1.1456  0.1018 -0.7063
19416TIP3    H279664   4.179   3.229  12.732 -1.7291  0.1533 -1.0840
19417TIP3   OH279665   5.786   2.436   6.323  0.2692 -0.4186  0.7411
19417TIP3    H179666   5.845   2.401   6.389  0.4088  2.0290  2.0539
19417TIP3    H279667   5.699   2.431   6.363  0.2873  0.5880  0.9498
19418TIP3   OH279668   2.745   0.968   2.954  0.0752  0.1546 -0.7734
19418TIP3    H179669   2.661   0.996   2.918 -0.5718  0.1413  0.6501
19418TIP3    H279670   2.779   0.905   2.890 -0.6056  0.7605 -1.7597
19419TIP3   OH279671   6.745   5.326   0.848 -0.2312 -0.1366 -0.0967
19419TIP3    H179672   6.685   5.398   0.866 -0.1048  0.0025 -0.2250
19419TIP3    H279673   6.827   5.369   0.824 -0.0625 -0.3253  0.1404
19420TIP3   OH279674   4.011   1.292  11.544 -0.3072  0.0380  0.1187
19420TIP3    H179675   4.041   1.248  11.624  1.0820 -0.2304 -0.5168
19420TIP3    H279676   3.943   1.234  11.509  0.4879 -0.8930  0.0539
19421TIP3   OH279677   2.974   5.346  13.889 -0.9884  0.1465  0.2952
19421TIP3    H179678   3.039   5.345  13.819 -0.9803 -1.6933  0.2635
19421TIP3    H279679   2.907   5.284  13.861 -1.0065 -0.6114  1.8713
19422TIP3   OH279680   5.766   6.734  13.027  0.3254 -0.2015  0.4358
19422TIP3    H179681   5.784   6.674  13.099 -0.8040 -0.5220  0.4679
19422TIP3    H279682   5.812   6.697  12.952 -0.9088 -1.5101  0.2915
19423TIP3   OH279683   3.534   6.074  10.915 -0.0177  0.1896  0.1648
19423TIP3    H179684   3.471   6.004  10.929  1.2380 -0.7036  1.6355
19423TIP3    H279685   3.537   6.084  10.819 -2.3771  0.3128  0.0555
19424TIP3   OH279686   2.534   3.775  16.059  0.3047  0.2034  0.0778
19424TIP3    H179687   2.576   3.726  16.130 -0.3700 -1.1448 -0.4079
19424TIP3    H279688   2.561   3.730  15.979 -0.9922  0.0883 -0.3252
19425TIP3   OH279689   6.556   1.157  12.219  0.8176 -0.0001  0.3515
19425TIP3    H179690   6.578   1.119  12.305  1.5324  1.4916  0.8740
19425TIP3    H279691   6.623   1.225  12.206  0.9497 -0.4448 -1.5775
19426TIP3   OH279692   4.638   4.565  12.770 -0.1174  0.0700  0.5151
19426TIP3    H179693   4.659   4.490  12.826  0.5441  0.4857  0.8332
19426TIP3    H279694   4.546   4.554  12.749  0.3084 -1.6350 -0.6492
19427TIP3   OH279695   6.151   4.133   0.241 -0.3314  0.4781 -0.1344
19427TIP3    H179696   6.238   4.167   0.262 -0.6880  2.3361 -1.4515
19427TIP3    H279697   6.166   4.078   0.163 -0.1965 -0.0812  0.2777
19428TIP3   OH279698   1.759   3.662   2.157 -0.0856  0.2656  0.3241
19428TIP3    H179699   1.819   3.594   2.186  1.4603  0.5078 -2.0416
19428TIP3    H279700   1.804   3.705   2.084 -2.1586  2.0345 -0.0321
19429TIP3   OH279701   0.761   3.942   4.730  0.5860  0.2839 -0.0706
19429TIP3    H179702   0.724   3.997   4.798  1.4360 -1.2901  1.7471
19429TIP3    H279703   0.853   3.969   4.724  0.4712  0.5552 -0.7718
19430TIP3   OH279704   6.762   1.602   5.123  0.4525  0.2231  0.0849
19430TIP3    H179705   6.728   1.683   5.160  0.8447 -0.3566  1.8257
19430TIP3    H279706   6.739   1.606   5.030 -1.3731  1.3551  0.5425
19431TIP3   OH279707   6.034   3.602  17.225  0.0016  0.3328 -0.4572
19431TIP3    H179708   6.107   3.545  17.250  0.4610  0.4540 -1.4799
19431TIP3    H279709   5.960   3.542  17.215  0.1922  0.0764 -0.3622
19432TIP3   OH279710   1.067   5.997   1.906 -0.2026 -0.7721 -0.2118
19432TIP3    H179711   1.160   6.015   1.894 -0.4697  2.3905  1.3766
19432TIP3    H279712   1.022   6.063   1.853 -1.5895 -2.1192 -0.7999
19433TIP3   OH279713   5.749   4.684   0.589  0.6674  0.1546  0.2200
19433TIP3    H179714   5.827   4.726   0.554  0.4779 -1.0165 -1.7647
19433TIP3    H279715   5.683   4.754   0.589  0.9992  0.4911 -0.7234
19434TIP3   OH279716   3.802   6.611  15.738 -0.3965 -0.5039 -0.2166
19434TIP3    H179717   3.772   6.576  15.654  0.3058  1.0466 -1.1638
19434TIP3    H279718   3.735   6.673  15.763 -0.0628 -0.1446 -0.2040
19435TIP3   OH279719   3.647   3.936   6.486 -0.0991  0.6394 -0.1597
19435TIP3    H179720   3.634   3.862   6.545  0.6307  0.2399 -0.4918
19435TIP3    H279721   3.567   3.988   6.495 -0.7519 -0.3349 -0.1336
19436TIP3   OH279722   6.517   0.124  12.747 -0.4600 -0.7472 -0.0248
19436TIP3    H179723   6.519   0.041  12.699 -1.4711 -0.7701 -0.0563
19436TIP3    H279724   6.506   0.190  12.678 -0.3774 -0.6491  0.0571
19437TIP3   OH279725   1.936   0.856  10.882  0.4019  0.3240 -0.4334
19437TIP3    H179726   1.853   0.865  10.834  0.7973  1.3524 -0.9640
19437TIP3    H279727   1.922   0.904  10.963  0.8095  1.4340 -0.9950
19438TIP3   OH279728   5.919   4.119  14.502 -0.2507  0.9814 -0.4778
19438TIP3    H179729   5.956   4.127  14.414 -0.9823  3.9390 -0.6089
19438TIP3    H279730   5.824   4.118  14.489 -0.3620  1.0108  0.2571
19439TIP3   OH279731   5.741   4.869   4.935  0.7683  0.0317 -0.1087
19439TIP3    H179732   5.681   4.800   4.905  0.7759 -0.0353  0.0297
19439TIP3    H279733   5.739   4.862   5.030  1.4561 -0.3597 -0.1193
19440TIP3   OH279734   4.999   0.628  10.806 -0.1626  0.3510  0.1964
19440TIP3    H179735   4.907   0.604  10.797 -0.5884  1.2294  1.8308
19440TIP3    H279736   5.024   0.658  10.719 -1.8501  1.4960  0.0513
19441TIP3   OH279737   0.979   5.367   4.661 -0.3513 -0.1040 -0.3201
19441TIP3    H179738   0.899   5.420   4.662  0.3782  1.1423 -2.1321
19441TIP3    H279739   1.047   5.426   4.629  1.6421 -0.7663  2.3175
19442TIP3   OH279740   2.941   1.088   3.140  0.3188  0.4401 -0.0036
19442TIP3    H179741   2.890   1.054   3.066  1.7667 -1.0571 -0.3728
19442TIP3    H279742   2.876   1.099   3.210 -0.4903 -1.9001 -0.2884
19443TIP3   OH279743   5.336   5.489  14.503  0.2785  0.2096 -0.3253
19443TIP3    H179744   5.283   5.410  14.518 -1.6813  1.6995  1.2257
19443TIP3    H279745   5.420   5.456  14.472 -0.2712 -2.5190  0.7921
19444TIP3   OH279746   6.670   5.248  12.856 -0.0946 -0.2014  0.1156
19444TIP3    H179747   6.595   5.188  12.852 -0.5665  0.4167 -3.4285
19444TIP3    H279748   6.746   5.190  12.869 -0.8705 -1.1402  0.6639
19445TIP3   OH279749   6.431   3.705  16.590  0.5869  0.5635  0.1121
19445TIP3    H179750   6.483   3.747  16.521  1.1015  0.6933  0.5714
19445TIP3    H279751   6.401   3.777  16.644 -0.7491  0.5648 -0.5890
19446TIP3   OH279752   2.190   4.717   5.029  0.4108 -0.0346  0.2658
19446TIP3    H179753   2.262   4.680   5.080  1.5800 -0.8117 -1.8516
19446TIP3    H279754   2.229   4.791   4.983 -0.3556  0.0628 -0.2377
19447TIP3   OH279755   3.440   3.161   5.406 -0.5072  0.0035 -0.4283
19447TIP3    H179756   3.535   3.168   5.401 -0.5615  1.6521  0.1067
19447TIP3    H279757   3.420   3.073   5.373  1.3287 -1.1330  1.2762
19448TIP3   OH279758   3.860   3.876   5.829  0.9992 -0.5508  0.0579
19448TIP3    H179759   3.915   3.841   5.759  1.4821 -0.4187  0.3682
19448TIP3    H279760   3.885   3.826   5.906  1.9382  0.6657  0.5853
19449TIP3   OH279761   5.897   2.609  15.057 -0.1796  0.4865 -0.2042
19449TIP3    H179762   5.949   2.550  15.002 -2.2912 -0.8167 -0.9062
19449TIP3    H279763   5.881   2.685  15.002 -0.6318  0.0296 -0.7257
19450TIP3   OH279764   5.805   5.729   0.097 -0.3292 -0.1583  0.0949
19450TIP3    H179765   5.868   5.658   0.113 -0.6393 -0.1274  1.6109
19450TIP3    H279766   5.747   5.727   0.173 -1.4959  0.5367 -0.7404
19451TIP3   OH279767   4.890   3.772   4.757 -0.1450 -0.1944  0.1514
19451TIP3    H179768   4.911   3.825   4.834  0.8016  0.1430 -0.3321
19451TIP3    H279769   4.823   3.822   4.711  0.4212  0.3699 -0.0680
19452TIP3   OH279770   1.266   2.713   6.324  0.3537  0.2051  0.2375
19452TIP3    H179771   1.289   2.630   6.283 -1.2670 -0.3991  0.4698
19452TIP3    H279772   1.346   2.766   6.320  1.0422 -0.8970 -1.0635
19453TIP3   OH279773   0.379   6.052   4.059  0.2198 -0.2089 -0.1167
19453TIP3    H179774   0.314   6.071   3.991  0.3362  3.1001  0.5273
19453TIP3    H279775   0.328   6.022   4.134 -0.0476 -2.3051 -1.0801
19454TIP3   OH279776   3.714   4.411  17.120  0.5571  0.4191 -0.1209
19454TIP3    H179777   3.745   4.343  17.181 -1.0983 -0.6774 -0.4632
19454TIP3    H279778   3.729   4.493  17.168 -1.1068 -0.4216  2.0063
19455TIP3   OH279779   5.456   6.215  13.339 -0.0943 -0.1638 -0.2560
19455TIP3    H179780   5.534   6.163  13.359 -0.8932 -0.6066  2.1328
19455TIP3    H279781   5.490   6.295  13.301  1.5325 -0.4847  0.4010
19456TIP3   OH279782   3.272   5.133   3.435 -0.0302 -0.8943  0.0629
19456TIP3    H179783   3.254   5.142   3.529  1.5238 -2.9658  0.6459
19456TIP3    H279784   3.187   5.110   3.396 -0.2622 -2.5930  1.4266
19457TIP3   OH279785   3.976   6.159  15.823  0.1040 -0.1018 -0.5402
19457TIP3    H179786   3.921   6.231  15.854  0.7437 -0.1043  0.6884
19457TIP3    H279787   3.998   6.182  15.733  0.0785  1.1070 -0.2541
19458TIP3   OH279788   3.720   0.086  12.846 -0.4412 -0.1149  0.5757
19458TIP3    H179789   3.787   0.154  12.836 -1.3512  0.5240 -2.0241
19458TIP3    H279790   3.650   0.113  12.788 -1.9498 -2.0216  1.3942
19459TIP3   OH279791   0.918   0.440  11.544  0.2744 -0.0910 -0.4197
19459TIP3    H179792   0.850   0.375  11.526 -1.9700  2.1032 -0.3294
19459TIP3    H279793   0.993   0.388  11.573 -1.1632 -2.6678 -0.9903
19460TIP3   OH279794   0.175   6.281   6.291  0.1954  0.1567 -0.1492
19460TIP3    H179795   0.265   6.298   6.265  0.3221 -0.7188 -0.3314
19460TIP3    H279796   0.122   6.342   6.241  0.4293 -1.4239 -2.4672
19461TIP3   OH279797   1.219   0.315  15.765 -0.1701 -0.1295 -0.5779
19461TIP3    H179798   1.177   0.229  15.772 -0.3206 -0.0387 -0.3433
19461TIP3    H279799   1.308   0.300  15.795 -0.8487  0.2869  1.9008
19462TIP3   OH279800   4.742   0.538   2.550  0.5667  0.0627 -0.5632
19462TIP3    H179801   4.773   0.547   2.460  2.4574 -1.3993 -0.1223
19462TIP3    H279802   4.753   0.625   2.588  0.0703  0.6131 -1.6325
19463TIP3   OH279803   3.078   5.519  15.612 -0.0362  0.3562  0.5012
19463TIP3    H179804   3.151   5.574  15.640  0.4823  0.9832 -1.8192
19463TIP3    H279805   3.001   5.575  15.618  0.3112  1.0072 -0.7140
19464TIP3   OH279806   6.415   6.228  14.616 -0.3990  0.0496  0.1328
19464TIP3    H179807   6.488   6.275  14.577 -0.0855 -2.4342 -2.6424
19464TIP3    H279808   6.338   6.260  14.568 -0.6947  0.2452  0.7226
19465TIP3   OH279809   2.944   1.305   4.429 -0.1330 -0.1234 -0.0753
19465TIP3    H179810   2.920   1.390   4.465  2.7652  0.6371  0.2809
19465TIP3    H279811   2.956   1.321   4.335 -1.0009 -0.5222 -0.2686
19466TIP3   OH279812   6.073   0.599   3.646 -0.1585 -0.5550 -0.7736
19466TIP3    H179813   6.136   0.627   3.713 -1.0267  1.3506 -0.6832
19466TIP3    H279814   6.045   0.512   3.675  3.7871 -2.3923 -1.8484
19467TIP3   OH279815   0.847   3.986   0.472 -0.0328 -0.3356  0.2635
19467TIP3    H179816   0.795   3.928   0.528 -0.6714  0.8844  0.9835
19467TIP3    H279817   0.915   3.930   0.435  0.4788 -1.1680  2.3521
19468TIP3   OH279818   5.501   2.776  15.659  0.6164 -0.4605 -0.6792
19468TIP3    H179819   5.520   2.843  15.593  2.5648  1.3109  1.5414
19468TIP3    H279820   5.532   2.694  15.619  1.6393  0.5347 -2.0221
19469TIP3   OH279821   6.319   0.759   3.684 -0.0815  0.5579 -0.0443
19469TIP3    H179822   6.298   0.836   3.631 -0.9783  1.5266  1.6356
19469TIP3    H279823   6.414   0.764   3.696  0.0985  0.4701 -1.3066
19470TIP3   OH279824   6.684   2.589  11.693  0.6628 -0.0419 -0.1563
19470TIP3    H179825   6.707   2.587  11.786  2.9623  1.1308 -0.6108
19470TIP3    H279826   6.661   2.681  11.677  0.4484 -0.2064 -0.7947
19471TIP3   OH279827   0.862   2.691   1.917 -0.9813  0.2788 -0.2334
19471TIP3    H179828   0.851   2.621   1.980 -1.7355  1.2571  0.7717
19471TIP3    H279829   0.858   2.771   1.969  2.6859  1.0687 -0.9224
19472TIP3   OH279830   3.548   6.200   1.970  0.1351  0.0457  0.1363
19472TIP3    H179831   3.477   6.206   2.034 -2.3719  2.9347 -2.5651
19472TIP3    H279832   3.595   6.283   1.979  0.6514 -0.1416 -0.7435
19473TIP3   OH279833   0.924   5.139  13.790 -0.3090  0.8803 -0.0693
19473TIP3    H179834   1.014   5.162  13.767  0.1676  0.7858  1.5671
19473TIP3    H279835   0.905   5.190  13.869 -2.0949  1.7147 -0.9728
19474TIP3   OH279836   0.787   2.706   0.718  0.2819  0.3513  0.1206
19474TIP3    H179837   0.716   2.755   0.759  1.2162  1.5715  0.3403
19474TIP3    H279838   0.763   2.703   0.625  0.0575  0.9895  0.1470
19475TIP3   OH279839   6.090   5.794   1.397  0.8932 -0.3076  0.5223
19475TIP3    H179840   6.053   5.882   1.411 -0.7891 -0.9020  0.0167
19475TIP3    H279841   6.073   5.747   1.478  0.3032 -0.6611  0.1973
19476TIP3   OH279842   6.451   6.068  15.132  0.5678 -0.1325 -0.3618
19476TIP3    H179843   6.379   6.130  15.122  0.5897 -0.3040 -1.7490
19476TIP3    H279844   6.416   5.985  15.099  1.0029 -0.5130  0.1188
19477TIP3   OH279845   1.039   1.621   0.617 -0.0346 -0.0201  0.5200
19477TIP3    H179846   1.082   1.538   0.597  0.5802  0.5220 -0.5197
19477TIP3    H279847   1.082   1.652   0.696  1.3413  0.3796 -0.3467
19478TIP3   OH279848   0.509   0.603   0.437 -0.3851 -0.0313  0.2925
19478TIP3    H179849   0.523   0.565   0.350  1.9879  0.2168  0.4969
19478TIP3    H279850   0.443   0.671   0.423  1.1259  1.1469 -1.6944
19479TIP3   OH279851   6.047   6.602   6.128  0.4608  0.3768  0.8003
19479TIP3    H179852   6.137   6.630   6.137  1.3168 -1.8089 -0.1604
19479TIP3    H279853   6.022   6.627   6.040  1.1449 -1.4769  0.0303
19480TIP3   OH279854   6.101   0.119   1.086 -0.4832 -0.0091  0.5354
19480TIP3    H179855   6.033   0.094   1.148  0.1722  0.6203  1.5438
19480TIP3    H279856   6.085   0.065   1.009 -2.2246  0.2666  0.6729
19481TIP3   OH279857   3.695   3.983  11.890 -0.2501  0.1860  0.5639
19481TIP3    H179858   3.711   3.892  11.865 -0.2513  0.2773  0.2296
19481TIP3    H279859   3.726   4.034  11.816 -0.1274  0.4670  0.8055
19482TIP3   OH279860   4.335   2.999   1.849  0.6958  0.2070 -0.1274
19482TIP3    H179861   4.272   2.977   1.780  0.3385 -0.4651  0.4015
19482TIP3    H279862   4.419   2.967   1.816  0.2447 -1.7785  0.4889
19483TIP3   OH279863   5.563   0.100  14.428  0.2714 -0.9403 -0.3860
19483TIP3    H179864   5.551   0.097  14.333 -2.7509  0.2111 -0.1607
19483TIP3    H279865   5.527   0.017  14.459 -0.2467 -0.6391 -0.1655
19484TIP3   OH279866   2.076   2.325  13.251 -0.4303 -0.5038 -0.2587
19484TIP3    H179867   2.131   2.258  13.291  0.5660  0.9720  0.9736
19484TIP3    H279868   1.988   2.287  13.249 -0.1471 -1.3654  1.6255
19485TIP3   OH279869   0.675   6.547  15.441 -0.4320 -0.3576 -0.0210
19485TIP3    H179870   0.659   6.599  15.362 -3.1356 -1.2832 -0.1728
19485TIP3    H279871   0.624   6.589  15.509 -0.1836 -1.0578  0.6160
19486TIP3   OH279872   3.480   1.069  15.278  0.6161 -0.7202 -0.3783
19486TIP3    H179873   3.402   1.081  15.333  0.6730 -3.2827  0.3911
19486TIP3    H279874   3.551   1.106  15.330  0.3511 -1.2289  0.3801
19487TIP3   OH279875   2.855   4.534   5.809  0.0653 -0.5249 -0.0962
19487TIP3    H179876   2.807   4.581   5.740  1.8098  1.1770 -0.2412
19487TIP3    H279877   2.792   4.526   5.881 -1.2628 -0.8224 -1.2477
19488TIP3   OH279878   1.608   0.332   0.338  0.2461  0.1093 -0.1086
19488TIP3    H179879   1.700   0.359   0.336  0.2330  0.1447 -1.4353
19488TIP3    H279880   1.580   0.338   0.246 -0.2297 -2.8034 -0.2473
19489TIP3   OH279881   5.059   4.194   1.616  0.4004  0.6120 -0.7597
19489TIP3    H179882   5.026   4.283   1.612 -0.2688  0.3786 -0.5706
19489TIP3    H279883   5.039   4.156   1.530 -1.1951  0.0122 -0.1609
19490TIP3   OH279884   4.081   2.534   2.066  0.4878  0.4371 -0.3256
19490TIP3    H179885   4.031   2.526   1.985 -0.1538  0.9300  0.0078
19490TIP3    H279886   4.097   2.628   2.075  0.7857  0.3599 -0.0228
19491TIP3   OH279887   4.272   2.293  15.062  0.5434  0.3326 -0.0155
19491TIP3    H179888   4.248   2.317  14.973  0.0279 -1.2813 -0.3574
19491TIP3    H279889   4.222   2.213  15.079  1.3776  0.0744  1.3685
19492TIP3   OH279890   3.466   0.490   3.014 -0.1146 -0.0384 -0.4551
19492TIP3    H179891   3.379   0.524   2.997 -0.2524 -0.4285 -0.5407
19492TIP3    H279892   3.511   0.560   3.061 -0.0912  0.6245 -1.4476
19493TIP3   OH279893   0.817   2.589   4.858  0.1776 -0.3656  0.5610
19493TIP3    H179894   0.729   2.617   4.833  0.5675 -0.3070 -0.8312
19493TIP3    H279895   0.832   2.509   4.807  0.7196 -0.7136  1.2397
19494TIP3   OH279896   3.966   0.176   2.892  0.0006  0.4842  0.6738
19494TIP3    H179897   3.988   0.217   2.809 -1.2263  2.5106  1.2706
19494TIP3    H279898   4.041   0.195   2.949  1.2018 -1.5896 -0.1177
19495TIP3   OH279899   0.968   1.744  14.350 -0.0536  0.6037  0.4622
19495TIP3    H179900   1.042   1.741  14.289 -0.8796 -0.7125 -0.5304
19495TIP3    H279901   0.937   1.653  14.355  0.6650  0.4294  3.7486
19496TIP3   OH279902   0.284   1.371  16.194 -0.0074  0.2902  0.2327
19496TIP3    H179903   0.365   1.348  16.149  0.6057  0.7098  1.1069
19496TIP3    H279904   0.254   1.288  16.232  1.1781  0.5200  1.7410
19497TIP3   OH279905   1.487   1.693   5.243  0.2986  0.2547  0.3633
19497TIP3    H179906   1.469   1.642   5.164  0.7914  1.6808 -0.7090
19497TIP3    H279907   1.552   1.640   5.291  0.8543 -0.1128 -0.7472
19498TIP3   OH279908   2.355   2.615   2.937  0.3686 -0.0017 -0.0280
19498TIP3    H179909   2.267   2.650   2.946  0.1335 -0.3530 -0.8443
19498TIP3    H279910   2.344   2.536   2.883  0.9124 -1.2199  1.5460
19499TIP3   OH279911   0.316   1.275  11.303  0.2927 -0.0338  0.2885
19499TIP3    H179912   0.300   1.337  11.231  2.9148  0.7444  0.2857
19499TIP3    H279913   0.359   1.327  11.371  0.2357 -1.3284  1.3621
19500TIP3   OH279914   0.721   5.367   0.839 -0.2702  0.6883 -0.3739
19500TIP3    H179915   0.651   5.386   0.777 -0.7623 -1.0289 -0.3794
19500TIP3    H279916   0.732   5.272   0.835  2.2922  0.9314 -0.6120
19501TIP3   OH279917   6.252   1.584   3.765  0.2326  0.0311 -0.0114
19501TIP3    H179918   6.241   1.557   3.856 -2.3196  0.0049 -0.2750
19501TIP3    H279919   6.249   1.680   3.767  1.2467  0.0787  0.0115
19502TIP3   OH279920   2.580   1.940  14.769 -0.2876 -0.3152  0.7300
19502TIP3    H179921   2.648   1.875  14.750  1.4052  1.7601 -0.8486
19502TIP3    H279922   2.615   1.992  14.841  0.0479  1.0504 -0.3877
19503TIP3   OH279923   6.002   5.689  14.535 -0.2552  0.1191 -0.6590
19503TIP3    H179924   5.933   5.652  14.590  0.2839  0.9415  0.6203
19503TIP3    H279925   6.083   5.648  14.566  0.0590  0.5920 -0.8292
19504TIP3   OH279926   5.886   5.965  16.043  0.7382 -0.5794 -0.0130
19504TIP3    H179927   5.885   6.061  16.038  0.3952 -0.5977 -0.2723
19504TIP3    H279928   5.913   5.947  16.133 -1.8668 -0.2266  0.9191
19505TIP3   OH279929   0.681   4.133  14.845 -0.9261 -0.2786  0.8598
19505TIP3    H179930   0.684   4.051  14.797 -2.0005  1.1074 -1.7495
19505TIP3    H279931   0.773   4.152  14.865 -0.5794 -1.5834  0.5760
19506TIP3   OH279932   3.349   1.010   4.769 -0.1258  0.0807 -0.1759
19506TIP3    H179933   3.443   0.993   4.773 -0.3657 -1.4893 -0.4170
19506TIP3    H279934   3.322   1.017   4.861 -0.0386 -1.2461 -0.0272
19507TIP3   OH279935   4.251   6.349  17.104 -0.2449  0.2756  0.0542
19507TIP3    H179936   4.243   6.254  17.109 -0.2922  0.2716 -0.1109
19507TIP3    H279937   4.343   6.367  17.123 -0.0377  0.1415 -0.7928
19508TIP3   OH279938   6.773   6.314   4.481 -0.2869 -0.6800 -0.7520
19508TIP3    H179939   6.827   6.290   4.407 -0.0241  2.6738 -1.7897
19508TIP3    H279940   6.811   6.266   4.555  1.7348 -1.2993 -2.1098
19509TIP3   OH279941   4.443   5.530  13.988 -0.0356  0.0786  0.0540
19509TIP3    H179942   4.388   5.466  14.034 -2.0271  1.0610 -0.8211
19509TIP3    H279943   4.482   5.582  14.058 -2.9355  1.4863  0.7969
19510TIP3   OH279944   4.731   1.652   4.046 -0.1188  0.3978 -0.3854
19510TIP3    H179945   4.762   1.643   4.136  1.2536  0.4822 -0.8251
19510TIP3    H279946   4.806   1.626   3.992 -0.5666  1.3591 -1.5136
19511TIP3   OH279947   2.249   1.661   2.369  0.1765  0.1946 -0.1269
19511TIP3    H179948   2.297   1.579   2.374  0.5409  0.3619 -0.7091
19511TIP3    H279949   2.266   1.694   2.281  0.5933  1.2298  0.3189
19512TIP3   OH279950   1.463   0.691   1.304  0.0347  0.4221 -0.5336
19512TIP3    H179951   1.458   0.754   1.375  0.2714 -0.0269 -0.1122
19512TIP3    H279952   1.373   0.679   1.275 -0.3025 -0.7561  0.9090
19513TIP3   OH279953   4.934   4.846  11.787 -0.2458  0.3401 -1.3250
19513TIP3    H179954   4.840   4.865  11.784 -0.2550  0.7408  0.2372
19513TIP3    H279955   4.940   4.752  11.773 -1.3897 -0.6135  2.9564
19514TIP3   OH279956   5.531   1.555  12.589 -0.3969  0.7839  0.2473
19514TIP3    H179957   5.473   1.597  12.525 -0.3590  1.4394  0.6320
19514TIP3    H279958   5.490   1.471  12.608 -1.7770  1.6423  1.2645
19515TIP3   OH279959   1.195   5.377   5.653  0.4125  0.7575  0.5935
19515TIP3    H179960   1.280   5.374   5.608  0.4101 -0.3088  0.6315
19515TIP3    H279961   1.217   5.386   5.746  0.5840 -1.2119  0.7987
19516TIP3   OH279962   3.885   5.900   2.111  0.0069 -0.4777 -0.3439
19516TIP3    H179963   3.887   5.994   2.089  0.0688 -0.3008  0.3878
19516TIP3    H279964   3.947   5.860   2.050  1.2043  0.1956  0.3856
19517TIP3   OH279965   0.466   3.536  14.845  0.0733 -0.2634  0.0904
19517TIP3    H179966   0.476   3.630  14.827 -1.6757  0.4949  2.5239
19517TIP3    H279967   0.556   3.503  14.847  0.8993  1.8278  1.1215
19518TIP3   OH279968   4.251   5.234  11.339 -0.4592 -0.6667 -0.0220
19518TIP3    H179969   4.230   5.184  11.418 -0.6759  0.3893  0.6021
19518TIP3    H279970   4.345   5.253  11.348 -0.6965  0.3258  0.5064
19519TIP3   OH279971   6.078   2.531  15.242 -0.1416 -0.0750 -0.3120
19519TIP3    H179972   6.039   2.450  15.274 -1.0864  0.6214  0.3600
19519TIP3    H279973   6.014   2.565  15.180  0.2232  0.1867 -0.5462
19520TIP3   OH279974   3.965   0.892   1.317  0.0785  0.6004  0.0450
19520TIP3    H179975   3.981   0.803   1.286 -0.3120  0.8919 -1.0005
19520TIP3    H279976   3.960   0.883   1.413  0.1680 -0.4724 -0.0414
19521TIP3   OH279977   2.618   4.670   2.000  0.1340  0.4863  0.0842
19521TIP3    H179978   2.595   4.577   1.999  0.7943  0.3128  0.5600
19521TIP3    H279979   2.595   4.701   1.912  1.9890 -0.6612 -0.8801
19522TIP3   OH279980   5.284   0.715   5.461 -0.2075 -0.0627 -0.3555
19522TIP3    H179981   5.319   0.779   5.399  1.2761 -1.2203 -0.7879
19522TIP3    H279982   5.275   0.764   5.543 -1.6927  1.3486 -1.3062
19523TIP3   OH279983   4.215   0.119  16.436 -0.6152 -0.0113  0.1138
19523TIP3    H179984   4.302   0.109  16.397 -0.1920 -0.5550  1.1519
19523TIP3    H279985   4.203   0.040  16.489 -2.6506 -1.0174 -1.6555
19524TIP3   OH279986   3.744   4.667  16.185 -0.1964  0.0869 -0.2342
19524TIP3    H179987   3.664   4.627  16.153 -0.3840 -0.8344  1.3140
19524TIP3    H279988   3.793   4.689  16.106 -1.3473 -0.6032 -1.1686
19525TIP3   OH279989   1.984   2.384  14.163 -0.7108  0.3483 -0.0666
19525TIP3    H179990   2.035   2.330  14.103 -0.9685  0.9400 -0.8226
19525TIP3    H279991   1.954   2.458  14.111 -2.1510  0.1451  0.4154
19526TIP3   OH279992   1.635   2.513  14.982 -0.1176 -0.1798  0.4067
19526TIP3    H179993   1.654   2.459  14.905  0.4660  0.9608 -0.2749
19526TIP3    H279994   1.617   2.600  14.947 -2.0860 -0.1332  1.4163
19527TIP3   OH279995   1.405   1.283  13.437  0.0606  0.1862  0.5932
19527TIP3    H179996   1.439   1.295  13.348  1.9268 -0.5815  1.1727
19527TIP3    H279997   1.363   1.197  13.436  0.9317 -0.2430  0.7030
19528TIP3   OH279998   5.493   0.391  10.803 -0.0214  0.4121  0.5669
19528TIP3    H179999   5.530   0.325  10.861 -1.7642  0.1252  1.4132
19528TIP3    H280000   5.427   0.436  10.857  1.5108  3.3000  0.2366
19529TIP3   OH280001   4.345   3.872   4.237 -0.3660 -0.4207 -0.2254
19529TIP3    H180002   4.279   3.885   4.169  0.5921  0.6912 -0.9665
19529TIP3    H280003   4.395   3.954   4.240  0.7037 -1.0654  0.6255
19530TIP3   OH280004   5.170   3.074  13.748  0.2518 -0.5911  0.4175
19530TIP3    H180005   5.259   3.101  13.722 -0.2199 -1.0971 -1.9103
19530TIP3    H280006   5.125   3.157  13.765 -0.1453  0.1000 -3.1598
19531TIP3   OH280007   1.901   2.632  12.672 -0.0451  0.0850  0.1112
19531TIP3    H180008   1.817   2.615  12.715  0.0403 -0.1840  0.1765
19531TIP3    H280009   1.957   2.666  12.742  0.1038 -0.3835  0.2266
19532TIP3   OH280010   0.484   0.541  11.735 -0.2717  0.3307  0.3256
19532TIP3    H180011   0.392   0.525  11.713  0.1183 -2.2139  0.2402
19532TIP3    H280012   0.489   0.523  11.829  0.3293 -0.7670  0.1016
19533TIP3   OH280013   0.664   6.573  10.951 -0.2707  0.0401  0.1636
19533TIP3    H180014   0.608   6.626  11.008 -2.6954 -0.2363 -1.7762
19533TIP3    H280015   0.713   6.637  10.899 -1.1906  0.3728 -0.3158
19534TIP3   OH280016   6.426   4.660  13.633 -0.4335  0.2746  0.6934
19534TIP3    H180017   6.396   4.595  13.698 -1.3207 -1.0166 -0.9303
19534TIP3    H280018   6.375   4.640  13.555  1.5849  0.8809 -0.8491
19535TIP3   OH280019   2.941   5.177   2.645 -0.0112  0.1441 -0.0130
19535TIP3    H180020   2.954   5.154   2.737 -0.0551  0.1394 -0.0081
19535TIP3    H280021   2.859   5.134   2.620 -0.2448  0.5272  0.0776
19536TIP3   OH280022   2.564   1.396   0.623  0.2568 -0.3043  0.0481
19536TIP3    H180023   2.638   1.448   0.652  0.9636 -1.5991  0.6499
19536TIP3    H280024   2.589   1.306   0.643 -2.1238 -0.6779  1.7825
19537TIP3   OH280025   1.541   2.078   4.692  0.3920 -0.1677  0.7440
19537TIP3    H180026   1.583   2.112   4.771  0.0258 -2.3980  1.9828
19537TIP3    H280027   1.482   2.010   4.724 -2.1846  0.9812 -1.1773
19538TIP3   OH280028   4.019   2.962  12.914  0.7802 -0.4106  0.2958
19538TIP3    H180029   4.063   2.961  12.829  1.8550 -0.4914  0.8434
19538TIP3    H280030   3.980   3.049  12.920  0.6533 -0.4196 -0.2879
19539TIP3   OH280031   0.661   0.504   5.831  0.7943  0.0771  0.3610
19539TIP3    H180032   0.736   0.550   5.868  0.4364 -0.8323  2.3445
19539TIP3    H280033   0.584   0.547   5.869  0.3389  0.0026 -0.4328
19540TIP3   OH280034   0.828   4.936   1.521  0.2189 -0.4880 -0.7442
19540TIP3    H180035   0.833   4.960   1.429  2.4180 -0.9195 -0.8036
19540TIP3    H280036   0.917   4.949   1.554 -0.4487 -0.5897  1.2670
19541TIP3   OH280037   6.382   1.410   3.137  0.1879  0.0869  0.3887
19541TIP3    H180038   6.408   1.318   3.125  1.0246  0.3162  0.3359
19541TIP3    H280039   6.383   1.446   3.048 -2.6956 -0.4599  0.0346
19542TIP3   OH280040   4.828   4.702   6.342 -0.7442 -0.0103 -0.1443
19542TIP3    H180041   4.821   4.642   6.416  0.7492 -0.0601 -0.0048
19542TIP3    H280042   4.781   4.780   6.369 -0.3600 -0.0898  0.7993
19543TIP3   OH280043   0.248   1.880   5.211 -0.2849  0.5657 -0.1596
19543TIP3    H180044   0.253   1.972   5.187  1.4475  0.4348 -0.4740
19543TIP3    H280045   0.178   1.875   5.276  0.3780  2.3047  0.7375
19544TIP3   OH280046   4.637   4.286  15.089  0.5440 -0.4499 -0.1327
19544TIP3    H180047   4.624   4.194  15.112 -1.3620 -0.2845 -0.3826
19544TIP3    H280048   4.708   4.286  15.025 -0.1820 -1.8825 -0.9701
19545TIP3   OH280049   1.797   4.270   5.135 -0.1318 -0.0121 -0.4667
19545TIP3    H180050   1.730   4.254   5.069  0.1982 -0.2013 -0.7580
19545TIP3    H280051   1.762   4.342   5.188 -0.7249 -0.3496 -0.3892
19546TIP3   OH280052   2.367   2.307  14.199  0.0232 -0.2943  0.2446
19546TIP3    H180053   2.386   2.389  14.154  2.0742 -0.8865 -0.0591
19546TIP3    H280054   2.372   2.240  14.131 -0.1878 -0.8268  0.7424
19547TIP3   OH280055   4.958   2.217  13.845  0.0013  0.6754  0.1883
19547TIP3    H180056   5.045   2.234  13.809 -0.3232  1.7215 -0.1451
19547TIP3    H280057   4.898   2.258  13.783 -0.7389 -0.1173  0.3684
19548TIP3   OH280058   1.697   4.953   3.465  0.2623  0.0429  0.3454
19548TIP3    H180059   1.766   4.928   3.527  2.5038 -1.5765 -2.5152
19548TIP3    H280060   1.719   4.905   3.385 -4.3346 -0.6448 -0.7648
19549TIP3   OH280061   4.070   3.640  16.719 -0.3492 -0.1831 -0.0062
19549TIP3    H180062   4.012   3.667  16.648  0.9588 -1.2355 -1.5799
19549TIP3    H280063   4.059   3.706  16.787 -1.3601  1.1005 -1.3645
19550TIP3   OH280064   4.667   1.240   4.885  0.1049  0.4501  0.5564
19550TIP3    H180065   4.727   1.280   4.822 -0.5857  1.0774  0.2809
19550TIP3    H280066   4.580   1.258   4.849 -0.3469  1.5505  2.1156
19551TIP3   OH280067   6.773   0.093   5.029 -0.1944  0.1379 -0.3368
19551TIP3    H180068   6.811   0.005   5.020  2.9791  1.3004  0.4948
19551TIP3    H280069   6.802   0.140   4.950  1.0057  1.3368  0.7746
19552TIP3   OH280070   3.828   0.037   5.219 -0.1672  0.1513  0.2307
19552TIP3    H180071   3.778  -0.029   5.171  0.8521 -0.0082 -0.6620
19552TIP3    H280072   3.911  -0.006   5.240 -0.7628  0.0131  2.6942
19553TIP3   OH280073   4.848   3.473  15.235  0.0549  0.1135 -0.1251
19553TIP3    H180074   4.833   3.407  15.168 -0.3058  1.6646 -1.6293
19553TIP3    H280075   4.943   3.485  15.237  0.1234 -0.4485  0.1766
19554TIP3   OH280076   4.322   6.054  13.763 -0.4214 -0.2540  0.2007
19554TIP3    H180077   4.283   5.974  13.800 -2.0638 -0.2671 -1.3801
19554TIP3    H280078   4.339   6.032  13.672 -0.2256  0.9810 -0.0789
19555TIP3   OH280079   5.183   3.989  13.716 -0.4668  0.2649  0.7158
19555TIP3    H180080   5.109   3.967  13.659  0.4286 -1.1378  0.0356
19555TIP3    H280081   5.256   4.006  13.657 -0.1040  1.1784  1.3911
19556TIP3   OH280082   4.628   5.887  13.891  0.5269  0.3715 -0.3984
19556TIP3    H180083   4.661   5.881  13.981 -1.0774  0.7318  0.2417
19556TIP3    H280084   4.664   5.969  13.858  1.2679  0.1568 -0.1637
19557TIP3   OH280085   5.571   6.519  12.287  0.6344  0.1071 -0.5912
19557TIP3    H180086   5.524   6.448  12.329  0.6701  1.0748  1.1848
19557TIP3    H280087   5.607   6.480  12.207 -3.4145 -0.6279 -2.3422
19558TIP3   OH280088   6.212   3.831  13.591 -0.0028 -0.0427  0.2207
19558TIP3    H180089   6.152   3.776  13.542 -1.2770  0.6291  0.9610
19558TIP3    H280090   6.279   3.856  13.528 -1.5678  0.7701 -1.2224
19559TIP3   OH280091   6.251   4.873  16.240  0.0260 -0.4837  0.9597
19559TIP3    H180092   6.248   4.777  16.233  0.4068 -0.4327 -0.2286
19559TIP3    H280093   6.316   4.899  16.175 -1.3416  0.6874 -0.0034
19560TIP3   OH280094   5.726   3.488   4.674  0.9468 -0.2139  0.1502
19560TIP3    H180095   5.704   3.424   4.742  1.6519 -0.0666  0.5272
19560TIP3    H280096   5.762   3.435   4.603  0.8336 -0.3072  0.1628
19561TIP3   OH280097   4.595   2.133   2.850  0.1986 -0.2603  0.3627
19561TIP3    H180098   4.506   2.098   2.853 -0.1699  0.1840 -2.4997
19561TIP3    H280099   4.586   2.225   2.875 -0.2056 -0.1439 -0.2033
19562TIP3   OH280100   6.736   4.164  13.099 -0.4652 -0.1161 -0.2499
19562TIP3    H180101   6.733   4.105  13.174  0.0824 -0.3584 -0.4177
19562TIP3    H280102   6.710   4.109  13.025  2.7051 -0.9394 -0.8969
19563TIP3   OH280103   6.188   0.071   3.687 -0.0028  0.6659 -0.0516
19563TIP3    H180104   6.245   0.010   3.735  0.1073  1.4151  0.7763
19563TIP3    H280105   6.243   0.148   3.671 -0.2219  0.6670 -0.8810
19564TIP3   OH280106   2.326   0.890  11.522 -0.0611 -0.0580 -0.0191
19564TIP3    H180107   2.353   0.847  11.603  3.6147 -0.9314 -1.5086
19564TIP3    H280108   2.335   0.983  11.539  1.3836 -0.2571  0.4266
19565TIP3   OH280109   4.892   4.172  16.150 -0.1558  0.1980  0.9139
19565TIP3    H180110   4.863   4.251  16.195  0.4194 -0.1420  1.9279
19565TIP3    H280111   4.900   4.107  16.220  0.5634 -0.4063  0.2888
19566TIP3   OH280112   4.245   5.334   1.121  0.1721  0.1315  0.3206
19566TIP3    H180113   4.202   5.289   1.194 -0.2819 -0.8215 -0.5185
19566TIP3    H280114   4.174   5.362   1.064  0.5971 -1.0439 -0.8430
19567TIP3   OH280115   2.455   6.526  12.157  0.4375 -0.2901 -0.6052
19567TIP3    H180116   2.408   6.550  12.237 -0.2036  0.4801 -1.1897
19567TIP3    H280117   2.547   6.530  12.180  0.2683  0.3331 -0.0150
19568TIP3   OH280118   1.625   2.404  14.475 -0.4044  0.5913  0.5187
19568TIP3    H180119   1.688   2.398  14.546  1.3298  0.3738 -0.9479
19568TIP3    H280120   1.609   2.498  14.464  0.1162  0.6823  0.5343
19569TIP3   OH280121   1.497   5.797  15.012  0.2125 -0.0265  0.6301
19569TIP3    H180122   1.553   5.862  15.054  0.4870 -0.3957  0.8442
19569TIP3    H280123   1.435   5.771  15.079  2.4952 -2.8329  1.8869
19570TIP3   OH280124   5.920   3.330  14.628  0.0974 -0.3531  0.0206
19570TIP3    H180125   5.960   3.385  14.560  0.1019 -0.0468  0.2666
19570TIP3    H280126   5.920   3.386  14.706  0.7954 -0.9618  0.4731
19571TIP3   OH280127   5.248   1.682  11.867 -0.5038  0.7976  0.4002
19571TIP3    H180128   5.338   1.711  11.883 -0.2118 -0.5183  1.2572
19571TIP3    H280129   5.238   1.687  11.772  0.5852  0.6289  0.2650
19572TIP3   OH280130   1.209   0.053   5.277 -0.0342  0.5558  0.6645
19572TIP3    H180131   1.222  -0.027   5.225  0.3088  0.7344  0.4763
19572TIP3    H280132   1.294   0.096   5.277  0.0623  0.3781  1.6738
19573TIP3   OH280133   2.438   5.012   5.055 -0.8436  0.2505 -0.2573
19573TIP3    H180134   2.518   5.054   5.024 -2.1391  2.8130 -0.4255
19573TIP3    H280135   2.419   4.945   4.989 -0.0182  1.1252 -1.4368
19574TIP3   OH280136   5.323   6.369   2.660 -0.5651 -0.5737  0.0180
19574TIP3    H180137   5.312   6.393   2.568  2.2080  0.4805 -0.1243
19574TIP3    H280138   5.282   6.441   2.709 -2.4202 -1.3424 -0.3245
19575TIP3   OH280139   4.909   6.561   3.291 -0.2219 -0.3463 -0.4716
19575TIP3    H180140   4.923   6.656   3.290 -0.1127 -0.3637 -0.8901
19575TIP3    H280141   4.819   6.551   3.324  0.5334 -0.2217  1.8015
19576TIP3   OH280142   1.333   0.050   1.094 -0.2912 -0.4647 -0.1316
19576TIP3    H180143   1.404   0.106   1.064 -1.0634  0.2708 -0.6299
19576TIP3    H280144   1.373  -0.036   1.105  0.2090 -0.5860 -2.4929
19577TIP3   OH280145   0.384   6.032   0.204 -0.4587  0.0328 -0.3808
19577TIP3    H180146   0.361   6.092   0.276 -1.4936 -1.1228  0.3010
19577TIP3    H280147   0.319   6.051   0.136  0.9223  1.5874 -1.3385
19578TIP3   OH280148   6.099   6.757   5.272 -0.2795 -0.1991  0.3344
19578TIP3    H180149   6.063   6.797   5.193  0.1478 -1.3639 -0.4857
19578TIP3    H280150   6.080   6.663   5.262  0.8948 -0.5305  0.9903
19579TIP3   OH280151   4.148   6.170   4.680  0.2066 -0.0322 -0.0289
19579TIP3    H180152   4.109   6.222   4.609  0.4508 -1.6289 -1.3861
19579TIP3    H280153   4.143   6.080   4.649  2.6222 -0.5443  0.9053
19580TIP3   OH280154   3.574   5.289  11.522 -0.0881 -0.5125  0.1743
19580TIP3    H180155   3.654   5.281  11.575  0.3347  3.5104  0.4195
19580TIP3    H280156   3.606   5.305  11.433 -0.4973  1.7691  0.3817
19581TIP3   OH280157   6.017   3.093  13.991  0.3208 -0.3261 -0.4846
19581TIP3    H180158   6.096   3.042  14.008 -0.0949 -0.5164  1.1282
19581TIP3    H280159   5.992   3.070  13.902  1.8793 -0.5160 -0.9021
19582TIP3   OH280160   3.778   2.606  11.396  0.5294 -0.1414 -0.2194
19582TIP3    H180161   3.690   2.617  11.433  0.1126  0.1086 -1.2600
19582TIP3    H280162   3.772   2.641  11.307  1.7369  0.0435 -0.2471
19583TIP3   OH280163   2.892   0.290   1.035 -0.1956  0.2361  0.5580
19583TIP3    H180164   2.881   0.240   1.116 -2.5299 -0.4167 -0.0771
19583TIP3    H280165   2.875   0.381   1.060 -0.1729  0.1353  0.9493
19584TIP3   OH280166   5.422   4.691   4.987  0.1114  0.0528  0.0837
19584TIP3    H180167   5.470   4.643   5.055 -0.0320 -1.6559 -0.9479
19584TIP3    H280168   5.443   4.644   4.906 -1.7265  0.4850 -0.6864
19585TIP3   OH280169   0.918   6.556  12.542  0.2976 -0.0385  0.0988
19585TIP3    H180170   0.911   6.643  12.581 -0.6649 -0.2809  0.4912
19585TIP3    H280171   0.963   6.571  12.459  0.0115  0.8515  0.0922
19586TIP3   OH280172   3.847   4.457  12.092  0.8167  0.1934 -0.2028
19586TIP3    H180173   3.766   4.456  12.041  0.6249 -2.4478  0.0083
19586TIP3    H280174   3.885   4.543  12.075 -1.1060  0.8139 -1.7707
19587TIP3   OH280175   0.450   0.533   2.087 -0.6455  0.2273 -0.1012
19587TIP3    H180176   0.398   0.452   2.087  1.1970 -1.0676  1.2733
19587TIP3    H280177   0.458   0.555   2.180 -0.3044  1.4502 -0.4122
19588TIP3   OH280178   2.445   0.295   1.961  0.7175 -0.0462  0.0750
19588TIP3    H180179   2.400   0.296   2.045 -1.0619 -0.0642 -0.8255
19588TIP3    H280180   2.409   0.369   1.913 -1.0414 -2.0551 -1.9738
19589TIP3   OH280181   3.996   0.310   5.890 -0.4446  0.3246  0.0347
19589TIP3    H180182   4.079   0.263   5.876  0.3354  1.6711  0.0030
19589TIP3    H280183   3.991   0.321   5.985 -2.6547 -3.2991  0.5340
19590TIP3   OH280184   3.747   3.403  13.704  0.2415  0.7800  0.2387
19590TIP3    H180185   3.746   3.314  13.738 -0.1534  0.5728 -0.3106
19590TIP3    H280186   3.840   3.426  13.700  0.3075  0.8743  1.5956
19591TIP3   OH280187   2.856   0.791   2.786 -0.3946  0.0415  0.0563
19591TIP3    H180188   2.794   0.718   2.784  0.3175 -0.5937  0.5934
19591TIP3    H280189   2.927   0.765   2.728 -0.1620  0.3351  0.2053
19592TIP3   OH280190   3.856   0.908  10.883 -0.2820  0.7295 -0.8610
19592TIP3    H180191   3.950   0.893  10.886 -0.4608 -0.3434 -0.0553
19592TIP3    H280192   3.836   0.949  10.968 -1.1456 -3.1795  1.0739
19593TIP3   OH280193   2.719   0.830   3.932 -0.0059 -0.1232 -0.1642
19593TIP3    H180194   2.808   0.844   3.900 -0.4726  2.8711 -0.3828
19593TIP3    H280195   2.667   0.813   3.854  0.1191 -0.4580 -0.1773
19594TIP3   OH280196   0.936   3.549  15.494  0.0292 -0.3380  0.2090
19594TIP3    H180197   0.901   3.620  15.547 -0.3603 -0.2569 -0.1504
19594TIP3    H280198   0.865   3.485  15.489 -0.3692  0.1748 -1.1691
19595TIP3   OH280199   1.850   3.924   2.402 -0.3592  0.0093 -0.0298
19595TIP3    H180200   1.805   3.876   2.333  0.1042 -1.7206  0.8157
19595TIP3    H280201   1.793   3.915   2.478 -1.1145  2.3236 -0.2392
19596TIP3   OH280202   4.867   2.010   0.344 -0.0387 -0.4559  0.1542
19596TIP3    H180203   4.933   2.077   0.358 -0.7375  0.0522  1.1267
19596TIP3    H280204   4.815   2.044   0.271 -1.3792  0.9024  1.6591
19597TIP3   OH280205   2.335   6.078  13.752  0.5678 -0.4896 -0.6523
19597TIP3    H180206   2.419   6.110  13.718  1.1029 -1.4294 -0.2812
19597TIP3    H280207   2.347   6.079  13.847 -0.3708  0.7118 -0.5310
19598TIP3   OH280208   3.277   4.322   2.887  0.0413 -0.0483 -0.4231
19598TIP3    H180209   3.245   4.386   2.824  1.0533  0.7813 -0.1158
19598TIP3    H280210   3.373   4.325   2.878  0.4234  1.8742  2.7781
19599TIP3   OH280211   5.411   2.589  15.337 -0.3752 -0.0007  0.3842
19599TIP3    H180212   5.402   2.511  15.392 -0.9585 -1.2225 -1.3535
19599TIP3    H280213   5.434   2.555  15.251 -1.4390  1.6802 -0.6320
19600TIP3   OH280214   6.517   2.984   2.030 -0.6610 -0.3323 -0.0675
19600TIP3    H180215   6.581   3.052   2.052 -0.6235  0.6873 -2.8529
19600TIP3    H280216   6.451   2.989   2.099  0.4955  1.0209  0.9845
19601TIP3   OH280217   0.911   6.010  16.473 -0.2012  0.1470 -0.2129
19601TIP3    H180218   0.966   5.944  16.515  1.5828  1.8118  0.2317
19601TIP3    H280219   0.934   6.005  16.380 -0.2586 -0.0263 -0.2178
19602TIP3   OH280220   5.664   3.322   4.886  0.0894  0.2057  0.1682
19602TIP3    H180221   5.711   3.335   4.967 -1.9547  0.4477  1.3886
19602TIP3    H280222   5.661   3.227   4.875  0.2564  0.1665  0.4627
19603TIP3   OH280223   3.635   6.437   5.596  0.1240  0.2533  0.0321
19603TIP3    H180224   3.597   6.503   5.538 -1.1650  1.3005  1.9695
19603TIP3    H280225   3.572   6.365   5.595  1.1473 -0.6797 -1.4646
19604TIP3   OH280226   6.415   1.025  15.983 -0.2992 -0.1993  0.1963
19604TIP3    H180227   6.382   1.099  16.033  0.5969 -1.1463  2.3515
19604TIP3    H280228   6.431   0.957  16.049  0.1589 -1.8527 -1.5157
19605TIP3   OH280229   1.012   0.465  12.386  0.1050  0.1536  0.3809
19605TIP3    H180230   1.006   0.558  12.364 -1.4990  0.3249  1.3900
19605TIP3    H280231   0.923   0.433  12.377  0.6512 -1.3294 -0.0219
19606TIP3   OH280232   4.811   2.821   4.450  0.0344 -0.0533  0.3448
19606TIP3    H180233   4.760   2.802   4.371  1.5627 -1.8375 -0.2923
19606TIP3    H280234   4.791   2.748   4.509 -0.7263  1.0204  1.4605
19607TIP3   OH280235   1.399   1.677   5.942 -0.2288  0.3827 -0.2855
19607TIP3    H180236   1.346   1.600   5.959 -0.6177  0.5940 -0.5281
19607TIP3    H280237   1.459   1.682   6.017  0.2679 -0.5425 -0.6075
19608TIP3   OH280238   6.746   5.005  11.388 -0.2756 -0.1323  0.3735
19608TIP3    H180239   6.727   5.097  11.371 -1.4329 -0.2140  1.0936
19608TIP3    H280240   6.660   4.962  11.385  0.2206 -1.1479  0.2837
19609TIP3   OH280241   3.294   1.601  10.698 -0.0360 -0.2260 -0.1525
19609TIP3    H180242   3.230   1.633  10.761 -1.2876 -0.4232 -1.2590
19609TIP3    H280243   3.314   1.676  10.643  0.4953 -0.2326  0.0259
19610TIP3   OH280244   5.880   4.347  13.584 -0.1820  0.1191  0.3026
19610TIP3    H180245   5.818   4.400  13.534 -0.3290  0.4796  0.8633
19610TIP3    H280246   5.930   4.410  13.636 -0.3741 -0.2952  0.9915
19611TIP3   OH280247   6.338   4.465   2.869  0.6231  0.6671 -0.0220
19611TIP3    H180248   6.255   4.513   2.867  0.5780  0.6031  0.3030
19611TIP3    H280249   6.400   4.525   2.908  0.1737 -0.1276  2.0390
19612TIP3   OH280250   3.778   5.003  12.311  0.1741 -0.1778 -0.6408
19612TIP3    H180251   3.850   5.034  12.256  0.5235  0.6969  0.2694
19612TIP3    H280252   3.700   5.041  12.271  0.4704  0.8216 -0.3140
19613TIP3   OH280253   5.125   6.760  14.914 -0.2748  0.4885  0.4926
19613TIP3    H180254   5.175   6.824  14.965 -0.5617  0.8698  0.3027
19613TIP3    H280255   5.057   6.812  14.871  0.2844  0.2608 -0.7020
19614TIP3   OH280256   4.054   2.473   1.078  0.3734 -0.1720  0.5544
19614TIP3    H180257   4.020   2.558   1.051  0.3836 -0.2973  0.1287
19614TIP3    H280258   4.010   2.411   1.019  1.9190 -0.2693 -0.5616
19615TIP3   OH280259   6.785   1.216  11.437 -0.2219  0.3138 -0.4080
19615TIP3    H180260   6.741   1.300  11.427 -2.6671 -0.9824 -1.2569
19615TIP3    H280261   6.719   1.159  11.476  1.2769 -1.3233 -0.1501
19616TIP3   OH280262   1.525   5.280   1.258 -0.1167  0.0688 -0.0037
19616TIP3    H180263   1.557   5.191   1.276  0.4535  0.4502  0.9506
19616TIP3    H280264   1.588   5.315   1.195  1.3736  0.7723  1.7739
19617TIP3   OH280265   4.613   2.034  14.226 -0.2102 -0.1388 -0.1456
19617TIP3    H180266   4.559   1.963  14.192  0.2611 -0.3720 -0.4178
19617TIP3    H280267   4.650   2.076  14.148  0.0810 -0.0448  0.0398
19618TIP3   OH280268   0.598   2.372  14.607 -0.3102 -0.2485 -0.7565
19618TIP3    H180269   0.528   2.414  14.656 -1.8830  0.0157 -3.0427
19618TIP3    H280270   0.664   2.441  14.595  0.8577 -0.7353  2.1464
19619TIP3   OH280271   5.832   3.388   2.299  0.1957 -0.1344 -0.0261
19619TIP3    H180272   5.897   3.459   2.299  0.6882 -0.5806  0.1183
19619TIP3    H280273   5.771   3.411   2.369 -0.6930  1.0809 -1.1524
19620TIP3   OH280274   2.087   4.116  14.816 -0.6202 -0.4071  0.1196
19620TIP3    H180275   2.028   4.182  14.853 -2.0164 -1.6527  0.2238
19620TIP3    H280276   2.135   4.162  14.747 -2.5572  0.4082 -0.7612
19621TIP3   OH280277   3.704   0.019  17.166  0.0582 -0.1679  0.4268
19621TIP3    H180278   3.610   0.004  17.153  0.0865  0.4797 -0.6300
19621TIP3    H280279   3.727   0.084  17.100  1.0462  0.4480  1.3511
19622TIP3   OH280280   4.985   4.571   0.194 -0.1639  0.1500 -0.2989
19622TIP3    H180281   5.014   4.652   0.153  0.5672  0.1415  0.1710
19622TIP3    H280282   5.026   4.572   0.281 -0.0708 -0.7522 -0.3175
19623TIP3   OH280283   5.777   0.134   2.941  0.5289  0.8532 -0.0695
19623TIP3    H180284   5.754   0.042   2.938 -0.3009  1.0639 -0.5227
19623TIP3    H280285   5.763   0.160   3.033 -1.7283  1.1199 -0.4460
19624TIP3   OH280286   6.468   2.860   5.421 -0.3754 -0.3076  0.0259
19624TIP3    H180287   6.509   2.941   5.453  1.5265 -0.5460 -1.5638
19624TIP3    H280288   6.529   2.791   5.446 -1.4420 -1.1207  0.4129
19625TIP3   OH280289   3.794   6.172   4.569 -0.3553  0.3921  0.2525
19625TIP3    H180290   3.804   6.097   4.512 -1.3531  0.9603 -0.7041
19625TIP3    H280291   3.797   6.248   4.511  0.7280  1.1311  1.2026
19626TIP3   OH280292   1.591   5.463   2.831 -0.2204  0.4754 -0.6562
19626TIP3    H180293   1.563   5.374   2.809  0.3129  0.4208 -1.1296
19626TIP3    H280294   1.526   5.519   2.790  0.7374  0.3766 -2.4313
19627TIP3   OH280295   5.814   0.195   1.646 -0.6793  0.2136 -0.2715
19627TIP3    H180296   5.727   0.170   1.678 -1.5809  0.8397 -2.0799
19627TIP3    H280297   5.814   0.291   1.650  0.6511  0.1824  1.4104
19628TIP3   OH280298   2.713   1.204   1.764 -0.1994  0.2040  0.0743
19628TIP3    H180299   2.641   1.154   1.725  1.4529 -1.7297 -0.6892
19628TIP3    H280300   2.674   1.246   1.841 -2.0795 -0.9556 -0.1816
19629TIP3   OH280301   4.186   3.538   3.046 -0.0138 -0.3631 -0.0088
19629TIP3    H180302   4.252   3.493   3.100  1.1140  0.9873 -0.2197
19629TIP3    H280303   4.237   3.591   2.985 -1.2767  2.1353  1.0010
19630TIP3   OH280304   4.430   2.868  11.814 -0.2340 -0.3982  0.6016
19630TIP3    H180305   4.448   2.952  11.856  0.3487  0.3915 -1.1529
19630TIP3    H280306   4.342   2.879  11.778  0.9150  0.6444 -2.1882
19631TIP3   OH280307   0.172   3.358  12.475 -0.3093 -0.5212  0.6771
19631TIP3    H180308   0.210   3.384  12.559  0.5202  1.4520 -0.2381
19631TIP3    H280309   0.137   3.270  12.491  0.3877 -0.4732  2.8900
19632TIP3   OH280310   5.806   3.115   4.671  0.6010 -0.0736 -0.1377
19632TIP3    H180311   5.873   3.177   4.701  1.0556 -0.1093 -1.0600
19632TIP3    H280312   5.749   3.167   4.614 -0.0269 -0.1045  0.4378
19633TIP3   OH280313   1.929   4.918   2.416 -0.3766  0.1837 -0.7780
19633TIP3    H180314   2.012   4.958   2.389 -0.7215  0.3306 -1.6415
19633TIP3    H280315   1.862   4.969   2.370 -1.0249  0.7708  0.7442
19634TIP3   OH280316   4.219   0.956  12.055 -0.3801  0.3419  0.3212
19634TIP3    H180317   4.170   0.931  12.134 -3.3736 -0.0053 -1.5272
19634TIP3    H280318   4.204   1.050  12.046 -0.2447  0.3335  0.0138
19635TIP3   OH280319   0.884   5.733   4.655 -0.4892 -0.1755  0.0038
19635TIP3    H180320   0.850   5.664   4.598 -0.8656  0.8371 -1.0225
19635TIP3    H280321   0.809   5.792   4.668 -0.0797  0.2229  0.5993
19636TIP3   OH280322   1.261   2.396   4.502  0.0507  0.1310 -0.2920
19636TIP3    H180323   1.218   2.327   4.552  2.1636 -2.1251 -1.3806
19636TIP3    H280324   1.192   2.430   4.445 -0.7507 -2.2557 -0.8745
19637TIP3   OH280325   5.714   5.150  14.021 -0.0367 -0.3088 -0.3516
19637TIP3    H180326   5.653   5.157  13.948  1.4068 -0.1632 -1.5797
19637TIP3    H280327   5.706   5.233  14.067 -1.3598 -0.6154  0.0244
19638TIP3   OH280328   0.142   4.233   5.265  0.4415 -0.4072 -0.0895
19638TIP3    H180329   0.207   4.247   5.334  0.6519 -0.5822 -0.2524
19638TIP3    H280330   0.192   4.233   5.184 -0.1085  2.7054 -0.5787
19639TIP3   OH280331   4.393   3.940  14.900  0.3131  0.3154 -0.0732
19639TIP3    H180332   4.429   3.929  14.812 -0.0252  2.8596 -0.5999
19639TIP3    H280333   4.315   3.994  14.887  0.8859  1.7046  1.8624
19640TIP3   OH280334   4.948   5.172  11.311 -0.7000 -0.5305 -0.4577
19640TIP3    H180335   4.999   5.140  11.236 -1.2879  0.0314 -1.1257
19640TIP3    H280336   4.857   5.161  11.284 -0.9192  0.5991 -0.2548
19641TIP3   OH280337   6.207   0.985   2.384  0.3337 -0.1146 -0.6011
19641TIP3    H180338   6.224   1.068   2.427  0.0885 -0.9041  1.0858
19641TIP3    H280339   6.230   1.000   2.292  0.5365  1.7178 -0.2805
19642TIP3   OH280340   5.441   3.126  13.734 -0.0577  0.1486 -0.4521
19642TIP3    H180341   5.528   3.088  13.723 -0.1018  0.0958 -0.6166
19642TIP3    H280342   5.453   3.194  13.802 -0.1637 -0.7361  0.4732
19643TIP3   OH280343   3.681   1.275   5.508 -0.2863  0.4843 -0.0002
19643TIP3    H180344   3.748   1.279   5.440  0.4311  1.6018  0.7384
19643TIP3    H280345   3.709   1.204   5.566  0.0846  0.7351  0.1281
19644TIP3   OH280346   4.093   2.243  13.468  0.0440  0.3038 -0.1214
19644TIP3    H180347   4.038   2.165  13.474 -0.4985  0.6091 -0.9467
19644TIP3    H280348   4.183   2.210  13.470 -0.1688 -0.5040 -1.9908
19645TIP3   OH280349   4.911   1.504  13.871  0.0142  0.1124  0.1937
19645TIP3    H180350   4.871   1.481  13.788  0.4436 -0.7124  0.2101
19645TIP3    H280351   4.862   1.581  13.900  0.0571  0.5969 -0.9595
19646TIP3   OH280352   5.201   3.603  12.932 -0.1405  0.5235 -0.2377
19646TIP3    H180353   5.133   3.560  12.982 -1.2995  1.3946 -1.0116
19646TIP3    H280354   5.154   3.660  12.871  1.2632  0.8044 -1.1106
19647TIP3   OH280355   3.513   5.970   0.854  0.0134 -0.0751  0.1249
19647TIP3    H180356   3.507   5.878   0.826  1.0368  0.0592 -0.5855
19647TIP3    H280357   3.555   5.966   0.939  1.3799 -0.1967 -0.5298
19648TIP3   OH280358   1.849   5.618  14.456 -0.4942  0.2619  0.4548
19648TIP3    H180359   1.816   5.533  14.428 -0.5715  0.7116 -0.8858
19648TIP3    H280360   1.784   5.681  14.425  1.3414  1.1348 -1.8845
19649TIP3   OH280361   0.300   5.710   0.517 -0.5552 -0.3114  0.1978
19649TIP3    H180362   0.219   5.760   0.530 -0.4358  0.3547 -1.3975
19649TIP3    H280363   0.357   5.768   0.467 -0.1193 -1.7497 -1.0493
19650TIP3   OH280364   1.825   5.862  13.072 -0.5578 -0.1276  0.0065
19650TIP3    H180365   1.736   5.880  13.042  0.4556  0.6753 -2.9007
19650TIP3    H280366   1.830   5.767  13.080 -1.4278 -0.2519 -0.7930
19651TIP3   OH280367   0.431   3.914  14.134 -0.2907 -0.0200 -0.3907
19651TIP3    H180368   0.473   3.971  14.199  0.5318  1.4478 -2.0952
19651TIP3    H280369   0.428   3.968  14.055  1.3213 -2.6263 -2.3792
19652TIP3   OH280370   1.012   4.503   5.479  0.4297  0.7346 -0.5046
19652TIP3    H180371   0.986   4.444   5.550  1.5181 -0.8988 -1.3978
19652TIP3    H280372   1.082   4.457   5.433 -0.0380  1.8527 -2.4881
19653TIP3   OH280373   0.260   1.063   3.993  0.7443 -0.2469 -0.0264
19653TIP3    H180374   0.344   1.105   4.013  0.3111  0.1517  1.0450
19653TIP3    H280375   0.267   0.975   4.030  0.4395  0.0350  0.7352
19654TIP3   OH280376   6.232   3.321  11.850 -0.1630 -0.4509 -0.0647
19654TIP3    H180377   6.269   3.240  11.887  0.4783 -0.2732 -0.3053
19654TIP3    H280378   6.240   3.385  11.921  0.0394 -0.3989 -0.1348
19655TIP3   OH280379   5.527   2.250  16.143  0.2386 -0.0806  0.2875
19655TIP3    H180380   5.520   2.210  16.057 -2.4690 -0.1261  0.4439
19655TIP3    H280381   5.438   2.252  16.177  1.0272  1.0910  2.5887
19656TIP3   OH280382   6.706   4.922   3.019  0.2842  0.0774  0.2641
19656TIP3    H180383   6.636   4.905   3.082 -0.5525  0.1958 -0.6090
19656TIP3    H280384   6.684   4.867   2.944  1.4981 -0.3834  0.2264
19657TIP3   OH280385   3.151   4.800   3.493  0.2562 -0.4188  0.3145
19657TIP3    H180386   3.088   4.732   3.517 -0.4007 -0.1311 -0.5459
19657TIP3    H280387   3.183   4.773   3.407 -0.8384  0.9051 -0.5480
19658TIP3   OH280388   6.419   3.611  16.271 -0.5435 -0.1964 -0.2283
19658TIP3    H180389   6.453   3.608  16.182  1.1223 -2.1557  0.3866
19658TIP3    H280390   6.489   3.653  16.322  0.0317 -2.0573  0.6398
19659TIP3   OH280391   3.210   1.659  16.416 -0.5534 -0.3799  0.6853
19659TIP3    H180392   3.119   1.684  16.434 -0.1811  0.4279  1.5433
19659TIP3    H280393   3.251   1.653  16.502 -0.1000 -2.0394  0.3848
19660TIP3   OH280394   1.784   5.250   0.628  0.2704 -0.2954  0.0954
19660TIP3    H180395   1.872   5.272   0.597  0.2563 -1.0161 -0.5003
19660TIP3    H280396   1.733   5.329   0.611  0.2864 -0.6194 -1.7238
19661TIP3   OH280397   4.150   2.743  14.788 -0.3721 -0.1596 -0.7708
19661TIP3    H180398   4.100   2.663  14.805 -0.8097  0.2275 -0.2002
19661TIP3    H280399   4.085   2.813  14.794  0.1994  0.3309 -0.2223
19662TIP3   OH280400   5.818   6.036   4.166 -0.2362  0.0019 -0.2400
19662TIP3    H180401   5.760   6.002   4.235 -0.1591  1.5802  0.6527
19662TIP3    H280402   5.827   6.129   4.187  1.6571  0.0373 -1.0655
19663TIP3   OH280403   0.811   0.510  13.801  0.1683 -0.4202  0.4958
19663TIP3    H180404   0.893   0.525  13.848  0.4913  0.0378 -0.2111
19663TIP3    H280405   0.813   0.418  13.777 -0.4444 -0.9211  2.2136
19664TIP3   OH280406   0.028   0.268   2.534 -0.8585  0.1576 -0.4543
19664TIP3    H180407  -0.053   0.237   2.574 -0.8924  1.2672  0.3864
19664TIP3    H280408   0.000   0.310   2.453 -0.8106 -1.9298 -1.6141
19665TIP3   OH280409   5.453   3.618  17.005  0.4360 -0.5831  0.3696
19665TIP3    H180410   5.541   3.622  16.967 -0.0500  0.6994 -0.6840
19665TIP3    H280411   5.466   3.572  17.088  1.7924 -2.1204 -0.5955
19666TIP3   OH280412   4.504   5.460  15.754  0.0547  0.0765  0.6314
19666TIP3    H180413   4.423   5.412  15.771 -1.2508  1.6280 -0.8520
19666TIP3    H280414   4.574   5.399  15.778 -1.5233 -1.6084  1.1718
19667TIP3   OH280415   0.518   3.585  15.553 -0.3065  0.2347  0.2168
19667TIP3    H180416   0.539   3.615  15.642 -3.4102  1.4783  0.6555
19667TIP3    H280417   0.426   3.560  15.558  0.3839 -3.2700 -1.8172
19668TIP3   OH280418   6.105   2.073  13.580 -0.1634 -0.3958  0.1923
19668TIP3    H180419   6.078   2.105  13.666 -0.8731 -1.4845  0.3899
19668TIP3    H280420   6.059   1.990  13.570  0.3829 -0.5692 -0.9887
19669TIP3   OH280421   0.320   2.766  15.819 -0.0298 -0.0333  0.0093
19669TIP3    H180422   0.233   2.725  15.820 -0.2618  0.4375  0.8079
19669TIP3    H280423   0.321   2.820  15.899  0.5053  0.9903 -0.6721
19670TIP3   OH280424   5.275   3.744  12.330  0.4071 -0.0862  0.2126
19670TIP3    H180425   5.288   3.781  12.243 -0.6853 -0.9235 -0.3301
19670TIP3    H280426   5.189   3.775  12.357  0.6189 -0.0591  0.8944
19671TIP3   OH280427   6.143   4.916   2.017 -0.3442  0.1675  0.4230
19671TIP3    H180428   6.188   4.834   2.000 -0.7634  0.2486 -1.2917
19671TIP3    H280429   6.130   4.955   1.930 -2.9455  0.5421  0.8907
19672TIP3   OH280430   3.311   3.744   3.155 -0.3522  0.2456  0.6629
19672TIP3    H180431   3.396   3.712   3.123  0.3679  1.2274  1.5279
19672TIP3    H280432   3.273   3.791   3.081 -0.8592 -1.4684 -0.2211
19673TIP3   OH280433   3.131   5.940   5.276  0.2273 -0.1352 -0.3776
19673TIP3    H180434   3.066   5.946   5.347  0.5300  0.7608 -0.1658
19673TIP3    H280435   3.154   5.847   5.274  0.7766 -0.0719  1.2261
19674TIP3   OH280436   3.717   5.674  10.599  0.0942  0.4051 -0.0899
19674TIP3    H180437   3.643   5.698  10.654 -0.2090 -1.7946  0.5324
19674TIP3    H280438   3.726   5.579  10.610  2.5889  0.5093 -0.6545
19675TIP3   OH280439   5.313   3.720  13.435 -0.0767  0.9429 -0.2346
19675TIP3    H180440   5.219   3.732  13.447 -0.3011  0.1780 -1.0951
19675TIP3    H280441   5.321   3.635  13.392  1.0354  0.8420  0.1396
19676TIP3   OH280442   5.662   6.038   4.815 -0.3595  0.0172 -0.4100
19676TIP3    H180443   5.712   6.077   4.887  0.0192 -1.3884  0.1379
19676TIP3    H280444   5.666   6.103   4.745  0.5560  0.7868  0.3178
19677TIP3   OH280445   6.081   0.511  16.696 -0.2952 -0.1438 -0.7600
19677TIP3    H180446   5.991   0.541  16.687 -0.4134 -0.8139 -2.0625
19677TIP3    H280447   6.134   0.591  16.688 -0.7634  0.2810  0.2481
19678TIP3   OH280448   5.966   5.208   0.448 -0.5084  0.1220 -0.1306
19678TIP3    H180449   5.888   5.250   0.411 -2.7057 -2.5006  1.1925
19678TIP3    H280450   6.018   5.184   0.371 -1.6484  0.7233 -1.1358
19679TIP3   OH280451   0.214   3.866   5.429 -0.3587 -0.0269 -0.0903
19679TIP3    H180452   0.200   3.891   5.338 -0.2812 -1.0887 -0.4036
19679TIP3    H280453   0.164   3.931   5.480  0.3428  1.1302 -0.8298
19680TIP3   OH280454   4.717   1.446   5.733 -0.1494  0.0838 -0.1603
19680TIP3    H180455   4.686   1.516   5.790  0.9657  1.4361 -1.1513
19680TIP3    H280456   4.691   1.473   5.645 -0.4775 -1.2036 -0.4787
19681TIP3   OH280457   3.556   6.343  16.275  0.1673  0.0645  0.3356
19681TIP3    H180458   3.550   6.327  16.181  0.4221 -2.0698  0.6237
19681TIP3    H280459   3.470   6.322  16.309  0.3534 -0.1529  0.6835
19682TIP3   OH280460   3.329   0.659  11.155 -0.2489  0.5975 -0.6061
19682TIP3    H180461   3.406   0.710  11.180  0.3455 -0.5193 -0.1454
19682TIP3    H280462   3.259   0.725  11.148  0.8622  1.7330 -1.7052
19683TIP3   OH280463   5.530   5.534   3.001  0.4228  0.0574  0.1924
19683TIP3    H180464   5.480   5.485   3.066  1.6169  0.9536  1.8713
19683TIP3    H280465   5.490   5.621   3.000 -0.5551 -0.3790 -1.4485
19684TIP3   OH280466   3.248   6.520   3.511 -0.7501 -0.2093  0.1929
19684TIP3    H180467   3.304   6.510   3.434 -1.5233 -0.5405 -0.3400
19684TIP3    H280468   3.228   6.614   3.514  1.9761  0.4429  1.9629
19685TIP3   OH280469   2.306   2.480   4.595  0.4238  0.3083  0.1900
19685TIP3    H180470   2.311   2.559   4.542 -0.9011  0.0434 -0.3783
19685TIP3    H280471   2.222   2.487   4.641  0.5547 -0.4945  0.5683
19686TIP3   OH280472   3.391   2.535   3.159  0.1420  0.1704 -0.6352
19686TIP3    H180473   3.354   2.535   3.247 -0.0767  0.5925 -0.7260
19686TIP3    H280474   3.334   2.593   3.108 -0.3288 -0.8606 -1.3114
19687TIP3   OH280475   4.163   5.854   3.872 -0.1060  0.8467 -0.2225
19687TIP3    H180476   4.247   5.898   3.862  0.1164  0.2533 -1.0586
19687TIP3    H280477   4.107   5.892   3.805 -0.3193  0.7987 -0.0741
19688TIP3   OH280478   0.549   0.173  16.827 -0.0903  0.0912  0.3862
19688TIP3    H180479   0.544   0.135  16.739 -0.0898 -0.7068  0.7140
19688TIP3    H280480   0.640   0.161  16.854 -0.1336  0.1508  0.5662
19689TIP3   OH280481   2.993   5.520  12.978  0.1032  0.0223 -0.3222
19689TIP3    H180482   2.931   5.586  12.946 -0.0658 -0.2791 -0.6213
19689TIP3    H280483   2.940   5.441  12.989  0.2414  0.0160  0.3312
19690TIP3   OH280484   5.788   6.534  13.319  0.6699  0.3107  0.2628
19690TIP3    H180485   5.864   6.493  13.278 -1.6611 -2.8977 -1.2971
19690TIP3    H280486   5.791   6.504  13.410  0.3120 -1.4406 -0.2688
19691TIP3   OH280487   4.771   5.095  16.256 -0.4604  0.1865 -0.6317
19691TIP3    H180488   4.814   5.030  16.312  1.3913  2.0112  0.2140
19691TIP3    H280489   4.762   5.172  16.311 -0.5855  1.3543 -2.2053
19692TIP3   OH280490   3.417   1.691   1.496  0.0560  0.3368 -0.5464
19692TIP3    H180491   3.484   1.692   1.428 -0.2621 -0.0356 -0.8730
19692TIP3    H280492   3.355   1.758   1.470  0.6746  1.2019  0.1509
19693TIP3   OH280493   6.687   6.229  12.985 -0.3749  0.4622  0.1592
19693TIP3    H180494   6.771   6.204  12.946 -1.8552 -0.7202 -2.5228
19693TIP3    H280495   6.653   6.148  13.023 -1.8262  0.0094 -1.9359
19694TIP3   OH280496   0.288   0.352  16.336 -0.6778 -0.3761  0.2736
19694TIP3    H180497   0.225   0.303  16.389  0.3528 -0.6900  1.2272
19694TIP3    H280498   0.368   0.353  16.387  0.3995 -0.7828 -1.3247
19695TIP3   OH280499   2.617   6.210  15.953  0.3038  0.1068  0.1881
19695TIP3    H180500   2.532   6.176  15.925 -0.3840  1.1705  0.8743
19695TIP3    H280501   2.631   6.287  15.897  0.4831  0.3234  0.5249
19696TIP3   OH280502   0.421   3.659  14.223  0.0476 -0.6373 -0.4034
19696TIP3    H180503   0.432   3.738  14.170 -0.3353 -1.3467 -1.5965
19696TIP3    H280504   0.453   3.588  14.166 -2.2518 -1.6807 -0.5209
19697TIP3   OH280505   5.124   1.410   3.386  0.1583  0.1494 -0.5880
19697TIP3    H180506   5.199   1.386   3.331  2.0689  1.0533  1.5037
19697TIP3    H280507   5.119   1.505   3.380 -1.1725  0.0691 -1.0758
19698TIP3   OH280508   5.492   2.533  15.057 -0.7691 -0.0325  0.5707
19698TIP3    H180509   5.532   2.469  14.997  1.2289  1.1637  0.5364
19698TIP3    H280510   5.456   2.601  14.999 -2.0329 -0.6065  0.6447
19699TIP3   OH280511   1.802   5.810   4.999  0.0142  0.3884 -0.0160
19699TIP3    H180512   1.748   5.881   4.963  0.1919  0.3616 -0.3402
19699TIP3    H280513   1.883   5.814   4.948 -0.2210 -0.4547 -0.4639
19700TIP3   OH280514   0.470   4.878  15.863 -0.2549  0.0692  0.5086
19700TIP3    H180515   0.417   4.904  15.787  2.0201  2.2901 -0.4509
19700TIP3    H280516   0.439   4.933  15.935 -0.5586 -0.0605  0.4784
19701TIP3   OH280517   4.600   6.596   3.111  0.0278  0.2622 -0.9232
19701TIP3    H180518   4.651   6.676   3.100  1.0493 -0.3964 -1.1745
19701TIP3    H280519   4.509   6.622   3.096 -0.1600  2.1151  2.5346
19702TIP3   OH280520   6.412   4.018  15.749  0.0771  0.8631  0.2238
19702TIP3    H180521   6.426   3.941  15.694 -1.5063 -0.6310  1.7908
19702TIP3    H280522   6.498   4.037  15.787  0.6176  0.2609 -0.6670
19703TIP3   OH280523   4.761   6.374  11.975  0.3440  0.2452 -0.2047
19703TIP3    H180524   4.713   6.412  11.901 -0.9170 -1.8926 -0.5538
19703TIP3    H280525   4.851   6.364  11.943  0.0049  0.1398 -1.1578
19704TIP3   OH280526   2.220   3.391  14.871  0.2356 -0.2640  0.1056
19704TIP3    H180527   2.266   3.448  14.932 -0.5847  0.4523  0.0803
19704TIP3    H280528   2.138   3.438  14.852 -0.4661 -1.4579  0.0972
19705TIP3   OH280529   3.354   6.542   5.973  0.1688  0.3736 -0.3994
19705TIP3    H180530   3.441   6.515   5.942 -0.0997 -1.2276  0.1247
19705TIP3    H280531   3.372   6.595   6.050  0.6958  0.1446 -0.3551
19706TIP3   OH280532   0.283   3.824   1.040 -0.2212  0.2666 -0.1308
19706TIP3    H180533   0.277   3.815   0.945  0.8818  1.2462 -0.3139
19706TIP3    H280534   0.197   3.797   1.072 -0.5256 -0.3105 -1.3832
19707TIP3   OH280535   4.044   6.501  13.037 -0.6955 -0.0508  0.2918
19707TIP3    H180536   3.975   6.563  13.017 -1.7761 -1.6807 -1.3403
19707TIP3    H280537   4.112   6.553  13.081 -2.8727  1.6129  1.8836
19708TIP3   OH280538   6.337   0.376  16.558 -0.6263  0.0175  0.0656
19708TIP3    H180539   6.285   0.339  16.486  0.6556 -1.0729 -0.3370
19708TIP3    H280540   6.426   0.381  16.523 -0.1197  0.1916  1.3278
19709TIP3   OH280541   2.807   6.668  15.847  0.9846 -0.0324  0.4367
19709TIP3    H180542   2.721   6.688  15.884  0.8037 -1.4144  0.8040
19709TIP3    H280543   2.829   6.745  15.795 -1.3993 -0.4508 -1.3840
19710TIP3   OH280544   6.140   1.913  14.324 -0.2008 -0.2710 -0.1141
19710TIP3    H180545   6.179   1.874  14.246 -0.3268 -0.2999 -0.1621
19710TIP3    H280546   6.046   1.904  14.311 -0.2174 -0.5805  0.1926
19711TIP3   OH280547   1.975   6.643   4.424 -0.2541  0.2051  0.1979
19711TIP3    H180548   1.976   6.737   4.406  1.5153  0.3270  0.7333
19711TIP3    H280549   1.981   6.602   4.337 -0.3728  0.5930  0.0039
19712TIP3   OH280550   1.493   4.875   0.098  0.2853 -0.6588 -0.4138
19712TIP3    H180551   1.563   4.891   0.035  0.8038 -2.2715 -0.2891
19712TIP3    H280552   1.468   4.962   0.129  2.5240 -0.0590 -0.1267
19713TIP3   OH280553   6.359   5.189  16.716 -0.1165  0.0359 -0.1928
19713TIP3    H180554   6.452   5.187  16.695 -0.3475 -1.6254 -1.2616
19713TIP3    H280555   6.342   5.105  16.758 -1.4229 -0.4128 -1.5221
19714TIP3   OH280556   3.821   4.426  11.808 -0.4074  0.2091 -0.0762
19714TIP3    H180557   3.743   4.480  11.821 -1.9724 -1.8220 -0.4289
19714TIP3    H280558   3.817   4.400  11.716  0.2435 -0.5764  0.1079
19715TIP3   OH280559   0.568   2.117  11.830  0.0978  0.0709  0.6843
19715TIP3    H180560   0.533   2.041  11.876 -1.2816  1.2502  1.6889
19715TIP3    H280561   0.539   2.192  11.883  0.1398  1.3803 -1.0613
19716TIP3   OH280562   4.298   5.176  11.692 -0.6305  0.0314  0.3158
19716TIP3    H180563   4.356   5.251  11.678 -1.1304  0.4107  0.2758
19716TIP3    H280564   4.358   5.104  11.710 -0.0313 -0.0348 -1.6527
19717TIP3   OH280565   5.517   3.215  15.579  0.4666  0.2445 -0.1192
19717TIP3    H180566   5.553   3.190  15.664 -0.4522 -2.2238 -0.3698
19717TIP3    H280567   5.546   3.146  15.519 -2.2169 -0.3275 -0.9104
19718TIP3   OH280568   3.094   0.316  13.238 -0.3966 -0.4418 -0.1276
19718TIP3    H180569   3.182   0.285  13.262  0.8087  2.1485 -0.8654
19718TIP3    H280570   3.057   0.244  13.186  1.7531 -1.1637 -0.7866
19719TIP3   OH280571   5.842   1.677   0.474  0.2132 -0.5417  0.0285
19719TIP3    H180572   5.784   1.687   0.399 -0.2380 -1.4409  0.2450
19719TIP3    H280573   5.930   1.679   0.436 -0.0005 -0.6622 -0.4874
19720TIP3   OH280574   3.289   2.296  12.184  0.2774  0.5894 -0.4519
19720TIP3    H180575   3.202   2.259  12.169  0.2536  0.4222  0.1078
19720TIP3    H280576   3.325   2.246  12.256  0.2950  1.5759  0.2444
19721TIP3   OH280577   2.063   6.066   0.427 -0.3668 -0.5060  0.4827
19721TIP3    H180578   2.142   6.065   0.481 -0.2680 -0.7386  0.3329
19721TIP3    H280579   1.993   6.086   0.488 -0.1303  0.1815  0.5397
19722TIP3   OH280580   2.931   3.277  11.178 -0.0547 -0.3301  0.3840
19722TIP3    H180581   2.875   3.306  11.106  0.2693 -1.9061 -0.5590
19722TIP3    H280582   3.009   3.332  11.173 -0.7700  0.7179  0.6264
19723TIP3   OH280583   5.483   3.604   4.115  0.0072 -0.2249  0.1294
19723TIP3    H180584   5.474   3.522   4.163  0.3921  0.2117  0.9806
19723TIP3    H280585   5.526   3.579   4.033  1.0867 -0.7388  0.8304
19724TIP3   OH280586   1.383   1.617   2.294  0.1543 -0.0270  0.3401
19724TIP3    H180587   1.373   1.584   2.384  1.8959 -1.0081  0.2099
19724TIP3    H280588   1.428   1.701   2.305  0.6099 -0.2730  0.3807
19725TIP3   OH280589   0.077   1.430  15.531 -0.9685  0.0079 -0.1925
19725TIP3    H180590   0.145   1.446  15.596 -1.9317  0.5652  0.7172
19725TIP3    H280591   0.094   1.494  15.462 -2.0079  1.9238  1.2208
19726TIP3   OH280592   4.417   0.802  12.696 -0.2721  0.2590 -0.3702
19726TIP3    H180593   4.494   0.841  12.654  0.0110  1.2425  0.9897
19726TIP3    H280594   4.343   0.842  12.651  0.0235  0.6619 -0.5050
19727TIP3   OH280595   0.565   4.282   1.082 -0.2070 -0.2189  0.5053
19727TIP3    H180596   0.499   4.342   1.048  0.5640 -0.6060 -1.8824
19727TIP3    H280597   0.530   4.195   1.062 -0.0109 -0.4948  1.3368
19728TIP3   OH280598   6.709   4.130   0.282  0.5194  0.2068  0.2496
19728TIP3    H180599   6.778   4.166   0.338  0.4023 -0.6734  0.9976
19728TIP3    H280600   6.699   4.039   0.313 -1.0765  0.3608  0.2553
19729TIP3   OH280601   2.831   5.708   4.587 -0.1192  0.7392 -0.0956
19729TIP3    H180602   2.853   5.785   4.535 -2.5651  0.5695 -1.5250
19729TIP3    H280603   2.864   5.634   4.536 -1.0695  0.6616 -0.6123
19730TIP3   OH280604   0.479   1.212  13.247 -0.1085  0.2780 -0.3613
19730TIP3    H180605   0.510   1.303  13.246  0.5007  0.0978  0.4460
19730TIP3    H280606   0.436   1.203  13.332  0.1180 -0.2779 -0.3032
19731TIP3   OH280607   0.889   5.512  12.350 -0.4382  0.1872  0.2225
19731TIP3    H180608   0.808   5.462  12.358  0.0252 -0.6728 -0.3040
19731TIP3    H280609   0.938   5.491  12.430  0.7696 -2.1217 -1.0239
19732TIP3   OH280610   3.393   1.750  16.229  0.4092  0.0821 -0.4765
19732TIP3    H180611   3.358   1.701  16.303  1.6224  2.8016  2.1587
19732TIP3    H280612   3.326   1.815  16.210  1.6791  2.0097  1.1487
19733TIP3   OH280613   1.163   2.027  15.316 -0.3715  0.2764  0.1945
19733TIP3    H180614   1.182   2.120  15.323 -0.8691  0.3876  0.0839
19733TIP3    H280615   1.076   2.023  15.276  0.8500 -0.2482 -2.6676
19734TIP3   OH280616   1.263   5.194  14.626  0.0009  0.7021  0.0254
19734TIP3    H180617   1.278   5.164  14.716  0.9987  1.7485  0.2401
19734TIP3    H280618   1.249   5.288  14.635  1.3403  1.0233 -1.0144
19735TIP3   OH280619   0.629   3.216   5.072 -0.0544  0.0840 -0.1079
19735TIP3    H180620   0.666   3.128   5.076  1.0299  0.4689 -1.3306
19735TIP3    H280621   0.542   3.207   5.112  0.4162 -1.3246  0.6460
19736TIP3   OH280622   0.080   1.461  16.602  0.0192  0.7102 -0.2954
19736TIP3    H180623   0.009   1.447  16.665 -0.1697 -2.5612 -1.0999
19736TIP3    H280624   0.160   1.458  16.656 -0.2324 -0.3316  0.0409
19737TIP3   OH280625   0.956   2.562   6.530 -0.4173 -0.1200 -0.3542
19737TIP3    H180626   1.039   2.517   6.511 -1.5508 -1.4071 -2.7182
19737TIP3    H280627   0.929   2.527   6.616  1.3776  0.2307  0.3908
19738TIP3   OH280628   0.673   4.097   0.731 -0.5737 -0.3563  0.3543
19738TIP3    H180629   0.652   4.086   0.823  0.3971  0.4157  0.6775
19738TIP3    H280630   0.751   4.043   0.717  0.7337  1.3840  0.5851
19739TIP3   OH280631   3.287   1.745  12.909  0.1286 -0.1042  0.2738
19739TIP3    H180632   3.343   1.822  12.918 -0.4158  0.1544  1.7667
19739TIP3    H280633   3.293   1.701  12.994 -0.7499 -0.8815 -0.0518
19740TIP3   OH280634   4.980   1.977  15.667 -0.1163 -0.3122  0.0603
19740TIP3    H180635   4.920   1.914  15.629 -0.7823 -1.0637  2.1785
19740TIP3    H280636   5.056   1.925  15.694 -0.2530 -0.0902  0.9355
19741TIP3   OH280637   0.664   5.357  12.354 -0.1915  0.1253 -0.3372
19741TIP3    H180638   0.620   5.385  12.273 -0.4230 -1.3003 -0.7274
19741TIP3    H280639   0.623   5.274  12.376  1.8646 -0.9437 -0.3478
19742TIP3   OH280640   4.383   3.975   1.208 -0.0140 -0.1614  0.3221
19742TIP3    H180641   4.342   3.971   1.122 -0.5781  1.4370  0.4924
19742TIP3    H280642   4.391   4.068   1.227  0.9463 -0.4749  1.6172
19743TIP3   OH280643   0.595   1.579   6.086 -0.3615 -0.2977  0.4409
19743TIP3    H180644   0.579   1.487   6.106 -1.2474 -0.1607  0.4280
19743TIP3    H280645   0.653   1.577   6.010 -1.2257 -0.8633 -0.2227
19744TIP3   OH280646   2.298   0.557  16.605 -0.6484 -0.2640 -0.3165
19744TIP3    H180647   2.388   0.526  16.604 -0.5229  0.0635  0.3900
19744TIP3    H280648   2.246   0.479  16.626 -0.3963 -0.1509  0.7620
19745TIP3   OH280649   5.193   3.131  16.325 -0.3295  0.3106  0.2110
19745TIP3    H180650   5.248   3.175  16.390 -0.5944 -0.2294  0.8198
19745TIP3    H280651   5.247   3.058  16.294  0.4398  1.5209 -1.4263
19746TIP3   OH280652   1.217   2.499   1.688 -0.2269 -0.2154 -1.2935
19746TIP3    H180653   1.200   2.583   1.731  1.6200 -1.2844  1.8480
19746TIP3    H280654   1.232   2.522   1.596  3.9465  3.5469 -0.0684
19747TIP3   OH280655   6.283   2.922  13.670  0.3359 -0.4620  0.3264
19747TIP3    H180656   6.320   2.936  13.757 -0.1686 -0.5426  0.5574
19747TIP3    H280657   6.228   2.844  13.679 -1.8580  1.0082  0.6322
19748TIP3   OH280658   6.729   4.397   3.902 -0.4362  0.0581  0.0461
19748TIP3    H180659   6.812   4.370   3.863 -0.9680 -2.5476  0.4965
19748TIP3    H280660   6.666   4.394   3.830 -0.2485  1.5786 -0.1989
19749TIP3   OH280661   2.325   0.182  16.158 -0.3838 -0.1999 -0.2018
19749TIP3    H180662   2.401   0.132  16.188  0.5451 -0.7638 -3.1528
19749TIP3    H280663   2.258   0.116  16.140 -0.1224 -0.1561 -1.4432
19750TIP3   OH280664   0.912   1.837  14.648  0.6099 -0.0300 -0.4872
19750TIP3    H180665   0.850   1.844  14.721 -1.3689 -1.6783 -1.8712
19750TIP3    H280666   0.966   1.761  14.669  1.3338  0.6380  0.1193
19751TIP3   OH280667   2.562   1.003  13.580 -0.4109  0.5987  0.8746
19751TIP3    H180668   2.525   1.069  13.639 -2.5313  1.9035 -1.6990
19751TIP3    H280669   2.523   0.920  13.609 -0.9429  1.1139  1.6794
19752TIP3   OH280670   6.284   0.978   2.116  0.3622  0.1003 -0.5257
19752TIP3    H180671   6.309   0.903   2.063 -2.0534 -1.3453  0.1985
19752TIP3    H280672   6.258   1.045   2.052 -0.8481 -0.9939 -1.2491
19753TIP3   OH280673   4.542   3.408  12.771 -0.0775 -0.2495 -0.0208
19753TIP3    H180674   4.483   3.333  12.777 -0.7594  0.2844 -0.0709
19753TIP3    H280675   4.493   3.481  12.808 -0.0396  0.5395 -1.4518
19754TIP3   OH280676   6.645   5.934  10.844  0.4449 -0.2346 -0.6705
19754TIP3    H180677   6.601   5.854  10.815 -0.2419  0.8113 -2.6611
19754TIP3    H280678   6.614   5.947  10.934 -2.3665 -0.2808 -1.5203
19755TIP3   OH280679   2.686   1.122  16.938 -0.0284 -0.4711 -0.7748
19755TIP3    H180680   2.766   1.069  16.936  1.0990  1.1068 -0.2053
19755TIP3    H280681   2.644   1.107  16.853  1.7303 -0.1414 -1.7600
19756TIP3   OH280682   3.869   4.998   6.061 -0.1777  0.0978  0.4919
19756TIP3    H180683   3.846   5.022   5.971 -0.1393 -1.3733  0.0667
19756TIP3    H280684   3.961   4.975   6.058 -0.0307  0.5805  1.0379
19757TIP3   OH280685   0.289   4.371   2.050  1.2289 -0.5289  0.1137
19757TIP3    H180686   0.328   4.305   1.994  1.8252 -0.1158  0.0255
19757TIP3    H280687   0.267   4.443   1.990 -0.1594 -0.9543  0.0807
19758TIP3   OH280688   6.489   3.893   4.992 -0.1620  0.1407  0.5387
19758TIP3    H180689   6.547   3.866   5.063  0.3073  0.2562  0.2014
19758TIP3    H280690   6.520   3.846   4.916 -0.8288 -0.1825  0.4594
19759TIP3   OH280691   4.573   5.522   0.068 -0.8627 -0.0655 -0.0017
19759TIP3    H180692   4.511   5.541   0.138 -2.5432 -0.4006 -1.3233
19759TIP3    H280693   4.655   5.562   0.096 -1.3186 -0.6342  2.3769
19760TIP3   OH280694   2.589   5.334  17.239  0.0992  0.3135  0.1421
19760TIP3    H180695   2.656   5.350  17.306 -0.0572  0.9184  0.1645
19760TIP3    H280696   2.516   5.392  17.264  0.0897  0.6436 -0.6207
19761TIP3   OH280697   6.434   2.138  12.352  0.3375  0.4625  0.1578
19761TIP3    H180698   6.426   2.226  12.314  1.4363  0.0673 -1.0786
19761TIP3    H280699   6.487   2.089  12.288 -0.9163 -1.3409  0.4155
19762TIP3   OH280700   3.496   2.422   5.621 -0.5400 -0.2831  0.0947
19762TIP3    H180701   3.473   2.330   5.636  0.9251 -0.5953  0.6536
19762TIP3    H280702   3.530   2.452   5.705  0.1999  0.3768 -0.4311
19763TIP3   OH280703   1.256   6.686   5.782  0.2063 -0.2789  0.2775
19763TIP3    H180704   1.183   6.726   5.735  1.4628  0.6333 -0.9996
19763TIP3    H280705   1.223   6.600   5.809 -1.2057 -0.0476 -0.5957
19764TIP3   OH280706   3.314   6.028  14.070  0.1848  0.1427 -0.1181
19764TIP3    H180707   3.235   5.996  14.025 -0.6334  1.5128  0.2881
19764TIP3    H280708   3.386   5.996  14.017 -0.6298 -1.1782 -0.4891
19765TIP3   OH280709   5.765   0.536  16.986  0.4241  0.5569 -0.0163
19765TIP3    H180710   5.858   0.514  16.979  0.0957 -2.1654  2.3167
19765TIP3    H280711   5.761   0.606  17.050  0.8662  0.5387  0.0332
19766TIP3   OH280712   3.433   5.203  15.030 -0.1281  0.1939  0.3484
19766TIP3    H180713   3.489   5.190  14.954 -1.3391 -1.4498 -0.3287
19766TIP3    H280714   3.445   5.124  15.083  1.4665  1.7298  2.4661
19767TIP3   OH280715   2.418   0.699  11.699 -0.0126 -0.0603  0.9473
19767TIP3    H180716   2.466   0.650  11.766  3.1514  1.8439  0.2518
19767TIP3    H280717   2.411   0.638  11.626  1.6719 -0.3530  0.9789
19768TIP3   OH280718   2.112   5.756   5.673  0.3298  0.1749  0.0450
19768TIP3    H180719   2.111   5.823   5.741  0.3666  0.7472 -0.5087
19768TIP3    H280720   2.202   5.754   5.641  0.1025  0.5939 -0.6449
19769TIP3   OH280721   2.626   5.493   2.725 -0.3193  0.1538 -0.0099
19769TIP3    H180722   2.674   5.576   2.723  0.7566 -0.4566 -2.1122
19769TIP3    H280723   2.637   5.462   2.815  1.6392  0.9841  0.1057
19770TIP3   OH280724   6.025   6.474   2.145  0.0383  0.0749  0.5118
19770TIP3    H180725   6.053   6.565   2.154 -0.6896  0.3993 -0.3709
19770TIP3    H280726   6.042   6.453   2.053 -1.5541 -0.0583  0.2240
19771TIP3   OH280727   2.899   0.285  16.698 -0.2250 -0.1345 -0.4418
19771TIP3    H180728   2.816   0.289  16.651  0.0843  0.2372 -0.9735
19771TIP3    H280729   2.960   0.334  16.643  0.5280 -1.0424 -0.4536
19772TIP3   OH280730   4.923   3.142   4.373  0.3430 -0.3022 -0.2533
19772TIP3    H180731   4.971   3.071   4.329  0.4520 -0.8199  0.6718
19772TIP3    H280732   4.964   3.222   4.341  2.0172 -0.7296  0.6686
19773TIP3   OH280733   2.876   4.154  16.792  0.3554  0.5883  0.4627
19773TIP3    H180734   2.932   4.090  16.749 -1.4031 -0.7577  0.0390
19773TIP3    H280735   2.801   4.103  16.823 -1.3287  2.4831 -0.2674
19774TIP3   OH280736   6.671   0.530   2.616  0.5505 -0.2984 -0.7256
19774TIP3    H180737   6.665   0.443   2.656  0.1426  0.3426  0.6528
19774TIP3    H280738   6.741   0.574   2.664  0.8538  0.0987 -1.5076
19775TIP3   OH280739   3.538   6.360  15.745 -0.0838 -0.3740  0.0153
19775TIP3    H180740   3.607   6.362  15.679 -0.1909  0.5042 -0.0765
19775TIP3    H280741   3.526   6.267  15.764  0.3207 -0.6022 -0.8092
19776TIP3   OH280742   2.360   3.596   1.348  0.2295 -1.0618  0.4519
19776TIP3    H180743   2.347   3.664   1.414  1.0888 -0.4610  0.0248
19776TIP3    H280744   2.280   3.545   1.350 -1.0268  0.7615 -0.1361
19777TIP3   OH280745   6.775   5.651  14.475  0.1938 -0.3098  0.6160
19777TIP3    H180746   6.724   5.627  14.553 -0.0607 -1.8084  0.0238
19777TIP3    H280747   6.859   5.607  14.487  0.2026 -0.4345  0.1225
19778TIP3   OH280748   2.821   5.012  13.704 -0.3017 -0.0592 -0.1649
19778TIP3    H180749   2.799   5.104  13.695  0.1071 -0.0010 -0.6351
19778TIP3    H280750   2.774   4.983  13.782  0.6525  0.8957  0.8016
19779TIP3   OH280751   4.345   4.602  14.542  0.0892  0.1056 -0.7693
19779TIP3    H180752   4.357   4.679  14.598 -1.1404  0.0677 -0.4156
19779TIP3    H280753   4.361   4.528  14.600  0.6702  0.0863 -0.9532
19780TIP3   OH280754   3.067   5.313   4.060 -0.2285 -0.0661 -0.4000
19780TIP3    H180755   3.015   5.319   3.979 -1.9575 -1.6330  0.5146
19780TIP3    H280756   3.108   5.227   4.055 -0.0332 -0.0082  0.2111
19781TIP3   OH280757   3.768   6.705   5.762 -0.1091 -0.5486  0.0154
19781TIP3    H180758   3.714   6.778   5.733  1.8747  1.6719  1.5410
19781TIP3    H280759   3.849   6.713   5.711 -0.0247 -1.9850 -0.1105
19782TIP3   OH280760   2.320   2.298   3.415 -0.2695 -0.2748  0.5010
19782TIP3    H180761   2.402   2.347   3.407 -0.2313 -0.4376 -0.1962
19782TIP3    H280762   2.347   2.206   3.423 -0.3892 -0.5010 -1.2266
19783TIP3   OH280763   1.576   4.303  11.790  0.3483 -0.1314  0.0420
19783TIP3    H180764   1.601   4.389  11.823 -0.3759  0.0230  0.2178
19783TIP3    H280765   1.640   4.243  11.827  0.3427  0.2203  0.6352
19784TIP3   OH280766   0.331   3.325   3.948  0.0675 -0.9287  0.1794
19784TIP3    H180767   0.303   3.242   3.988  0.1928 -0.4619  1.2675
19784TIP3    H280768   0.417   3.342   3.987 -0.7814  0.6713  1.4713
19785TIP3   OH280769   0.160   3.838   2.462 -0.1261 -0.0519 -0.7032
19785TIP3    H180770   0.188   3.844   2.554  0.8389  1.1194 -1.0541
19785TIP3    H280771   0.100   3.911   2.450  0.3710  0.2760 -1.2155
19786TIP3   OH280772   2.766   6.589   0.240 -0.4593 -0.3662  0.2841
19786TIP3    H180773   2.838   6.551   0.290 -0.0396  0.0528  0.0155
19786TIP3    H280774   2.702   6.615   0.306  0.5613  1.1731  0.7198
19787TIP3   OH280775   4.888   2.733  11.010  0.9101 -0.2128  0.0648
19787TIP3    H180776   4.903   2.816  11.056 -0.9892  0.1058  0.1944
19787TIP3    H280777   4.944   2.738  10.932  2.4102  0.2495  1.1205
19788TIP3   OH280778   3.489   1.457  10.812  0.1596  0.1542 -0.1444
19788TIP3    H180779   3.430   1.527  10.782 -2.4750 -1.2247  1.4303
19788TIP3    H280780   3.492   1.396  10.738 -0.2481  0.3368 -0.3195
19789TIP3   OH280781   2.000   5.807  14.589  0.2365 -0.0657 -0.6824
19789TIP3    H180782   1.927   5.749  14.567  1.7419 -2.2460 -0.1962
19789TIP3    H280783   2.026   5.844  14.505 -0.1231 -0.8848 -1.1725
19790TIP3   OH280784   2.909   0.646   0.512  0.3647  0.5570 -0.0581
19790TIP3    H180785   2.943   0.588   0.443  0.7188  1.0534 -0.3121
19790TIP3    H280786   2.835   0.691   0.470  0.7351  1.0419 -0.2030
19791TIP3   OH280787   3.148   0.855   3.397 -0.1930 -0.7096  0.1779
19791TIP3    H180788   3.227   0.802   3.409  0.1622 -0.5549 -1.2842
19791TIP3    H280789   3.111   0.825   3.314 -0.0729  1.1666 -0.6192
19792TIP3   OH280790   5.181   1.405   0.491 -0.1158 -0.4277 -0.0867
19792TIP3    H180791   5.262   1.439   0.530 -0.6123 -0.5802  1.1344
19792TIP3    H280792   5.118   1.408   0.563 -1.0100 -0.9642 -0.8372
19793TIP3   OH280793   4.658   1.796   0.910  0.4499  0.4059 -0.8810
19793TIP3    H180794   4.658   1.775   0.817 -1.0606  1.2098 -1.1032
19793TIP3    H280795   4.565   1.799   0.934  0.8087 -2.0142  1.1914
19794TIP3   OH280796   1.651   2.149   2.972  0.3122  0.2704 -0.2939
19794TIP3    H180797   1.715   2.178   3.037 -0.9011  1.4619  0.4266
19794TIP3    H280798   1.691   2.171   2.888  2.4983 -2.5175 -0.1077
19795TIP3   OH280799   5.654   0.364  11.611  0.1152 -0.3588  0.1843
19795TIP3    H180800   5.598   0.389  11.537  1.8431 -0.3143 -1.1627
19795TIP3    H280801   5.737   0.337  11.571  0.9537 -0.7761  2.0887
19796TIP3   OH280802   0.277   3.968   0.085  0.4657  0.6076 -0.1571
19796TIP3    H180803   0.269   3.978   0.180  0.7221  0.6671 -0.1396
19796TIP3    H280804   0.367   3.994   0.066  0.6418 -0.1058 -0.3221
19797TIP3   OH280805   5.613   1.651   4.128  0.3819  0.5125  0.6572
19797TIP3    H180806   5.611   1.631   4.035  0.7846 -1.4193  1.0171
19797TIP3    H280807   5.633   1.744   4.132 -1.3513  1.0362 -1.1883
19798TIP3   OH280808   2.111   1.553  11.906  0.6481 -0.3987 -0.2510
19798TIP3    H180809   2.175   1.586  11.843 -0.4276  0.0478 -1.1484
19798TIP3    H280810   2.069   1.632  11.941 -0.3538 -0.7091 -0.7072
19799TIP3   OH280811   3.873   6.645   1.702  0.5687  0.1796  0.5942
19799TIP3    H180812   3.784   6.619   1.676  0.1641  2.1993 -0.2125
19799TIP3    H280813   3.928   6.572   1.673 -0.8506 -1.4617  1.7550
19800TIP3   OH280814   4.815   3.542   1.127 -0.0002  0.9652 -0.3268
19800TIP3    H180815   4.890   3.527   1.185 -0.2612 -0.0606 -0.2363
19800TIP3    H280816   4.822   3.472   1.061 -2.0027 -0.4327  0.8403
19801TIP3   OH280817   1.141   2.851   1.234  0.0397  0.2947  0.1103
19801TIP3    H180818   1.177   2.785   1.175  0.5714 -0.1179  0.8798
19801TIP3    H280819   1.061   2.811   1.268  0.2434  0.1351  0.4048
19802TIP3   OH280820   3.408   1.400   2.350  0.0889 -0.3881 -0.7428
19802TIP3    H180821   3.491   1.442   2.332  0.3398 -0.6141 -0.1210
19802TIP3    H280822   3.409   1.382   2.444 -1.8900  2.2741 -0.1013
19803TIP3   OH280823   2.970   3.174  12.338  0.5076 -0.2747 -0.3836
19803TIP3    H180824   2.987   3.247  12.397 -0.5528  0.3341 -0.7881
19803TIP3    H280825   3.044   3.115  12.350  1.8126  1.2318 -0.6238
19804TIP3   OH280826   5.304   6.241  12.537  0.3781  0.3971 -0.2385
19804TIP3    H180827   5.323   6.203  12.623 -4.1194  0.8281  1.2210
19804TIP3    H280828   5.227   6.193  12.506  1.4394  0.7183 -3.8163
19805TIP3   OH280829   4.248   0.180   1.058  0.3378 -0.0015 -0.9904
19805TIP3    H180830   4.328   0.142   1.020  0.6768  1.1388 -1.4586
19805TIP3    H280831   4.194   0.104   1.080  1.2387 -0.7726 -1.3506
19806TIP3   OH280832   3.053   6.476  11.474  0.4158 -0.5255 -0.0252
19806TIP3    H180833   3.013   6.506  11.392  1.0015  0.7812  0.1490
19806TIP3    H280834   2.992   6.502  11.542 -0.7465 -2.8157 -0.0915
19807TIP3   OH280835   1.698   0.936  16.888 -0.1881  0.2278 -0.2742
19807TIP3    H180836   1.683   0.999  16.959  0.7994  0.8534 -0.5893
19807TIP3    H280837   1.717   0.853  16.932  0.4287  0.6133  0.2044
19808TIP3   OH280838   2.230   6.553  11.646  0.4587 -0.0074 -0.6566
19808TIP3    H180839   2.218   6.470  11.692 -0.8873  0.1189 -0.7317
19808TIP3    H280840   2.282   6.606  11.705  0.6659 -0.6340 -0.2688
19809TIP3   OH280841   1.689   1.581   3.431 -0.6175 -0.0659  0.1000
19809TIP3    H180842   1.662   1.490   3.417  0.1758 -0.2698 -0.1140
19809TIP3    H280843   1.784   1.577   3.442 -0.8192  0.3907  2.8192
19810TIP3   OH280844   5.005   0.156  11.210  0.6043  0.2174  0.6931
19810TIP3    H180845   5.006   0.155  11.306 -1.3956 -0.0284  0.7624
19810TIP3    H280846   4.980   0.245  11.187  0.4869  0.1143  0.4200
19811TIP3   OH280847   3.701   3.455  16.565 -0.2140  0.3281 -0.3592
19811TIP3    H180848   3.708   3.487  16.655 -0.6646 -1.1600  0.2522
19811TIP3    H280849   3.705   3.533  16.511  2.2690  1.1066  0.8020
19812TIP3   OH280850   0.865   3.423  16.537 -0.2972 -0.1266 -0.5158
19812TIP3    H180851   0.919   3.499  16.517  0.9282 -1.0903 -1.0086
19812TIP3    H280852   0.892   3.397  16.625 -0.2501 -0.3548 -0.5956
19813TIP3   OH280853   6.288   5.183  15.560  0.6466  0.0921  0.5289
19813TIP3    H180854   6.247   5.185  15.474  2.0441 -0.8992 -0.1770
19813TIP3    H280855   6.216   5.160  15.620 -0.7050  2.3967 -0.0915
19814TIP3   OH280856   4.099   5.256   2.713 -0.2352 -0.3668 -0.4533
19814TIP3    H180857   4.143   5.318   2.655  0.4007 -1.7738 -1.5670
19814TIP3    H280858   4.026   5.305   2.751  0.8781  1.3364 -0.4340
19815TIP3   OH280859   1.376   6.003   1.118  0.3398 -0.1438  0.8608
19815TIP3    H180860   1.386   6.037   1.207 -2.9640  1.0309  0.9411
19815TIP3    H280861   1.320   5.926   1.129  1.8639 -1.4233 -0.0361
19816TIP3   OH280862   0.345   4.387   2.358  0.1015 -0.2608  0.1438
19816TIP3    H180863   0.320   4.298   2.385  1.1870 -0.7201 -0.2726
19816TIP3    H280864   0.307   4.397   2.271  2.9012 -1.7488 -1.3960
19817TIP3   OH280865   1.385   0.425   0.817  0.2947  0.5461  0.8001
19817TIP3    H180866   1.365   0.332   0.803 -1.6311  0.8453  1.2992
19817TIP3    H280867   1.475   0.435   0.786  0.3067 -1.3355  0.1051
19818TIP3   OH280868   5.917   4.846  11.779  0.3406  0.4745 -0.0483
19818TIP3    H180869   5.848   4.861  11.843  0.4910  0.3505  0.1432
19818TIP3    H280870   5.993   4.894  11.813 -0.0928  1.9417 -1.0550
19819TIP3   OH280871   0.514   5.839   3.684  0.4915 -0.1580 -0.0727
19819TIP3    H180872   0.546   5.894   3.612  2.2131 -0.6052  0.3027
19819TIP3    H280873   0.540   5.750   3.659 -1.6740 -0.7573 -0.3570
19820TIP3   OH280874   2.455   5.741   2.313  0.0963 -0.1520  0.0166
19820TIP3    H180875   2.502   5.777   2.387  1.7486  0.7526 -1.4052
19820TIP3    H280876   2.488   5.789   2.237 -1.3389 -1.2114 -1.3576
19821TIP3   OH280877   5.668   4.481  14.083  0.0501  0.4005  0.0095
19821TIP3    H180878   5.710   4.465  14.168  1.6576  1.0937 -0.5983
19821TIP3    H280879   5.691   4.405  14.031 -0.4115  0.2637  0.0034
19822TIP3   OH280880   3.583   3.490   4.798  0.4314  0.4480 -0.1908
19822TIP3    H180881   3.561   3.556   4.864 -0.5653  0.7307 -0.7892
19822TIP3    H280882   3.506   3.434   4.794  1.7564 -1.6540  1.3108
19823TIP3   OH280883   4.536   6.584   4.158  0.1610 -0.3500  0.1506
19823TIP3    H180884   4.536   6.495   4.123  0.8484  0.2257 -1.3800
19823TIP3    H280885   4.445   6.611   4.155 -0.3866 -1.6484  2.4734
19824TIP3   OH280886   3.961   3.554  14.592  0.6656 -0.4062  0.8028
19824TIP3    H180887   3.910   3.496  14.649  1.3271  0.4192  2.2854
19824TIP3    H280888   3.895   3.594  14.535 -0.3979  0.5376  2.5934
19825TIP3   OH280889   4.387   0.585   5.462  0.8105 -0.0756 -0.8599
19825TIP3    H180890   4.380   0.680   5.474  2.1835 -0.0797  0.3319
19825TIP3    H280891   4.460   0.574   5.402 -2.0115 -0.3207 -4.6265
19826TIP3   OH280892   5.235   6.272   3.563  0.1311  0.0110  0.1409
19826TIP3    H180893   5.285   6.194   3.541  1.1298  0.3534  1.0953
19826TIP3    H280894   5.147   6.239   3.585 -0.3655 -0.5137 -2.3375
19827TIP3   OH280895   1.970   2.545  16.801  0.4279  0.2601  0.2435
19827TIP3    H180896   1.995   2.636  16.781 -1.9857  1.3615  1.6867
19827TIP3    H280897   1.883   2.536  16.764  1.0573 -1.8970 -0.8150
19828TIP3   OH280898   2.251   5.866   1.934 -0.0508 -0.5667  0.3191
19828TIP3    H180899   2.175   5.854   1.991 -0.4901 -2.1457 -0.5460
19828TIP3    H280900   2.236   5.950   1.891 -0.6563 -0.2615  1.0927
19829TIP3   OH280901   3.969   0.234   4.858  0.0730  0.0979  0.0137
19829TIP3    H180902   4.039   0.299   4.872  0.0334  0.2157 -0.3337
19829TIP3    H280903   4.005   0.153   4.895 -0.3774  0.5907  1.6209
19830TIP3   OH280904   1.008   1.871  15.038  1.0946  0.0252 -0.2649
19830TIP3    H180905   0.937   1.845  14.980  0.4451  0.1730  0.4432
19830TIP3    H280906   0.993   1.820  15.118  0.6730  1.4317  0.5827
19831TIP3   OH280907   6.308   3.905  12.531  0.4329  0.1785  0.5221
19831TIP3    H180908   6.245   3.867  12.592 -2.3009 -0.3962 -2.3857
19831TIP3    H280909   6.361   3.832  12.501  0.5868  0.1481  0.8642
19832TIP3   OH280910   0.875   3.250   1.161  0.4835 -0.4151 -0.1204
19832TIP3    H180911   0.936   3.313   1.199 -0.6611 -0.7060  2.4376
19832TIP3    H280912   0.931   3.183   1.122  1.7286  0.9729 -0.8179
19833TIP3   OH280913   2.175   2.738   0.006 -0.1191  0.5354  0.4929
19833TIP3    H180914   2.116   2.755   0.079  0.2740  1.1060  0.6846
19833TIP3    H280915   2.212   2.823  -0.017  1.0270  0.1251  0.7242
19834TIP3   OH280916   0.186   3.981   3.329  0.1888 -0.1845  0.5112
19834TIP3    H180917   0.187   4.069   3.289 -1.3373 -0.1557  0.4712
19834TIP3    H280918   0.136   3.993   3.410  1.1714 -0.7562  1.2277
19835TIP3   OH280919   1.146   1.568   0.249 -0.1309 -0.2827  0.5665
19835TIP3    H180920   1.088   1.619   0.304  0.2093 -0.7932  1.4174
19835TIP3    H280921   1.166   1.490   0.300 -0.7235 -1.3287 -0.7454
19836TIP3   OH280922   2.714   5.003  14.283  0.5257 -0.4313  0.4434
19836TIP3    H180923   2.630   5.015  14.326  0.6103 -1.6689  0.9997
19836TIP3    H280924   2.715   5.069  14.213 -1.0748 -0.6625  0.1644
19837TIP3   OH280925   1.526   3.852  13.019 -0.5411  0.4130  0.1098
19837TIP3    H180926   1.578   3.803  12.955 -1.7021  0.6630 -1.0619
19837TIP3    H280927   1.496   3.786  13.082 -1.0533 -0.1874 -0.7479
19838TIP3   OH280928   2.694   5.380  16.231 -0.0090 -0.4877  0.1426
19838TIP3    H180929   2.768   5.382  16.292  0.0332  1.1952  0.0814
19838TIP3    H280930   2.728   5.334  16.154  1.4772  1.4541 -0.4507
19839TIP3   OH280931   5.968   4.410   5.060  0.1091 -0.2740  0.0833
19839TIP3    H180932   5.888   4.431   5.012  1.0021  2.7714 -0.2501
19839TIP3    H280933   5.942   4.411   5.152 -0.5354 -0.9229 -0.0790
19840TIP3   OH280934   1.335   0.967  12.213 -0.1093  0.2088 -0.8019
19840TIP3    H180935   1.398   1.038  12.219  0.6373 -0.3920 -1.3715
19840TIP3    H280936   1.330   0.946  12.120 -0.4661 -0.3567 -0.6648
19841TIP3   OH280937   3.942   2.292   2.080  0.0544 -0.1358  0.0452
19841TIP3    H180938   4.015   2.351   2.100  1.9357 -2.2928 -0.0109
19841TIP3    H280939   3.875   2.313   2.145  2.0556 -0.2749  2.2806
19842TIP3   OH280940   2.319   0.728   2.650  0.2751  0.1317 -0.1227
19842TIP3    H180941   2.226   0.742   2.633  0.5080  1.8166 -0.1790
19842TIP3    H280942   2.342   0.651   2.596 -1.7628 -2.5546  2.4974
19843TIP3   OH280943   1.666   4.084  17.098 -0.0163  0.1320 -0.0861
19843TIP3    H180944   1.720   4.029  17.041 -0.6866 -0.6777  0.0520
19843TIP3    H280945   1.729   4.138  17.146  0.5933  0.2614 -1.0071
19844TIP3   OH280946   1.017   4.443  12.441  0.0052  0.3781 -0.1382
19844TIP3    H180947   0.948   4.402  12.493  0.5623 -1.6588 -0.9009
19844TIP3    H280948   1.098   4.423  12.488  0.2514  1.0368 -0.2785
19845TIP3   OH280949   3.262   0.300  16.965 -0.4389 -0.2586 -0.5214
19845TIP3    H180950   3.351   0.309  17.000 -0.3785  0.0132 -0.7436
19845TIP3    H280951   3.207   0.344  17.029 -0.2500  0.8862 -1.1114
19846TIP3   OH280952   6.620   6.715  14.524  0.5114  0.1256  0.4376
19846TIP3    H180953   6.618   6.749  14.434 -0.7510  0.2578  0.4947
19846TIP3    H280954   6.677   6.775  14.572  0.7011  0.4095 -0.1369
19847TIP3   OH280955   3.004   4.238   1.960  0.0382  0.5589  0.5816
19847TIP3    H180956   2.951   4.287   2.024  0.8415  1.0422  0.8945
19847TIP3    H280957   2.995   4.147   1.987 -2.7676  0.2690 -0.9458
19848TIP3   OH280958   5.235   1.634   1.536  0.1148 -0.0235  0.3793
19848TIP3    H180959   5.275   1.561   1.582  0.6365 -0.1033 -0.1862
19848TIP3    H280960   5.268   1.712   1.580 -1.3280 -0.1182  1.7155
19849TIP3   OH280961   2.527   5.172  10.241 -1.3285  0.0143 -0.2021
19849TIP3    H180962   2.468   5.134  10.306  0.3866 -0.7459  1.0092
19849TIP3    H280963   2.609   5.125  10.254 -0.5736  0.7179 -2.1164
19850TIP3   OH280964   3.925   0.675   0.548 -0.7754 -0.0076  0.3682
19850TIP3    H180965   3.971   0.758   0.559 -2.1946  0.6726  1.3997
19850TIP3    H280966   3.832   0.698   0.549 -1.1888 -1.5185 -0.1626
19851TIP3   OH280967   6.685   6.273   0.174  0.1743  0.2729  0.5029
19851TIP3    H180968   6.675   6.362   0.142  1.2242  0.3777  0.4392
19851TIP3    H280969   6.726   6.282   0.260 -0.9014 -0.1012  1.0852
19852TIP3   OH280970   0.240   3.118  15.843  0.2602 -0.2195 -0.4934
19852TIP3    H180971   0.214   3.180  15.911  1.4601  0.5512 -0.7202
19852TIP3    H280972   0.160   3.068  15.825 -0.8685  1.5624 -0.6374
19853TIP3   OH280973   3.564   3.792   5.322 -0.8515 -0.0719  0.4179
19853TIP3    H180974   3.601   3.877   5.295 -0.1326 -0.3067  0.6291
19853TIP3    H280975   3.471   3.799   5.303 -0.8109  0.7980  0.4972
19854TIP3   OH280976   2.173   6.082   5.229  0.2382  0.5193  0.1580
19854TIP3    H180977   2.267   6.070   5.217  0.3264 -0.6839  1.5988
19854TIP3    H280978   2.141   5.994   5.254 -0.9246  1.2800  1.5306
19855TIP3   OH280979   3.651   2.095   0.613 -0.2227 -0.8366 -0.2152
19855TIP3    H180980   3.630   2.181   0.577 -1.0011 -1.2844 -0.8731
19855TIP3    H280981   3.746   2.089   0.606 -0.0294  0.4114  0.8925
19856TIP3   OH280982   1.364   4.016   3.977  0.0984  0.2450 -0.3114
19856TIP3    H180983   1.442   4.068   3.962 -0.9046  1.3989 -1.8477
19856TIP3    H280984   1.332   4.043   4.063 -0.8901  2.9214 -1.4315
19857TIP3   OH280985   1.937   3.958   5.482  0.0932 -0.3295 -0.4930
19857TIP3    H180986   1.948   3.907   5.562 -2.1258  1.6549  1.2401
19857TIP3    H280987   2.010   4.020   5.483 -1.1577  1.2797  1.4562
19858TIP3   OH280988   1.878   6.238  14.403  0.2669 -0.6581 -0.2402
19858TIP3    H180989   1.925   6.281  14.474  1.6434 -0.9130 -0.9683
19858TIP3    H280990   1.946   6.202  14.347 -0.7802 -0.5257 -1.6643
19859TIP3   OH280991   2.596   2.407  13.760 -0.3219 -0.2909 -0.5406
19859TIP3    H180992   2.686   2.417  13.793 -0.3471  0.9574 -0.8329
19859TIP3    H280993   2.579   2.313  13.768  0.5234 -0.3632  0.7731
19860TIP3   OH280994   0.489   5.429  15.342  0.1804 -0.8017  0.1110
19860TIP3    H180995   0.510   5.442  15.249  1.6134 -0.0055  0.5082
19860TIP3    H280996   0.395   5.411  15.343 -0.0902  0.2771 -1.3913
19861TIP3   OH280997   3.317   4.248  13.886 -0.3497 -0.0120 -0.1448
19861TIP3    H180998   3.386   4.274  13.947 -0.2517  1.2383 -0.7565
19861TIP3    H280999   3.254   4.320  13.888  0.4585  0.8425 -2.6991
19862TIP3   OH281000   3.484   2.688   4.581  0.0159  0.5970  0.0981
19862TIP3    H181001   3.413   2.654   4.635  0.4102 -0.5800 -0.0923
19862TIP3    H281002   3.548   2.617   4.579 -0.4365  0.1728 -2.7865
19863TIP3   OH281003   4.960   4.645  14.209  0.0570  0.5289  0.4885
19863TIP3    H181004   4.899   4.616  14.141 -0.1916 -2.5035  1.8453
19863TIP3    H281005   5.047   4.629  14.172 -0.0463 -3.6052  1.6358
19864TIP3   OH281006   1.543   1.782  17.216 -0.1895  0.5404 -0.4414
19864TIP3    H181007   1.543   1.846  17.287 -0.4475  0.4509 -0.3560
19864TIP3    H281008   1.509   1.702  17.257  2.3211 -0.3540  0.0588
19865TIP3   OH281009   2.857   2.728  13.084  0.2637 -0.3979  0.4933
19865TIP3    H181010   2.931   2.768  13.039 -1.6047  1.1419 -1.4420
19865TIP3    H281011   2.864   2.760  13.174  0.3708  2.2535 -0.3486
19866TIP3   OH281012   1.214   1.610  13.936 -0.1374  0.0047 -0.1490
19866TIP3    H181013   1.139   1.563  13.971 -1.8917  1.7491 -1.4076
19866TIP3    H281014   1.177   1.674  13.875  2.2582  1.7902  0.1177
19867TIP3   OH281015   4.917   5.559   5.197  0.5515 -0.1864  0.0351
19867TIP3    H181016   4.930   5.630   5.134 -0.3818 -1.7648 -2.0444
19867TIP3    H281017   4.987   5.497   5.179 -0.9000 -1.6181 -0.9284
19868TIP3   OH281018   0.628   3.776  14.812  0.0194  0.4274  0.2764
19868TIP3    H181019   0.661   3.687  14.819 -0.6941  0.1448  0.0950
19868TIP3    H281020   0.706   3.830  14.797  0.3262 -0.3203 -0.9005
19869TIP3   OH281021   0.692   2.001   3.898  0.3701  0.0780  0.0273
19869TIP3    H181022   0.690   1.905   3.901  2.7721 -0.0375  0.3385
19869TIP3    H281023   0.697   2.022   3.805 -1.6607  0.0066 -0.1244
19870TIP3   OH281024   2.246   2.483   2.061  0.7075 -0.9601  0.1532
19870TIP3    H181025   2.166   2.453   2.017 -0.4590  1.7680  0.2321
19870TIP3    H281026   2.313   2.481   1.993  0.0767 -1.3622 -0.4699
19871TIP3   OH281027   4.833   5.632   3.471  0.2603  0.8369 -0.1161
19871TIP3    H181028   4.827   5.638   3.376 -0.9767  1.0721 -0.0422
19871TIP3    H281029   4.751   5.590   3.498  1.5210 -1.2103  0.7016
19872TIP3   OH281030   3.954   6.314   3.795  0.1550  0.2808  0.1512
19872TIP3    H181031   3.943   6.342   3.704  1.0967 -0.2812 -0.1583
19872TIP3    H281032   3.867   6.321   3.834 -0.6361 -1.0632 -1.2682
19873TIP3   OH281033   0.636   3.083   2.167  1.0240  0.3449  0.0749
19873TIP3    H181034   0.683   3.088   2.249  0.6151  0.5127  0.3044
19873TIP3    H281035   0.688   3.135   2.106  1.5930 -0.1961  0.0923
19874TIP3   OH281036   0.071   6.721   4.301  0.6628  0.4178  0.5986
19874TIP3    H181037   0.030   6.726   4.214  0.2329 -0.5079  0.7301
19874TIP3    H281038   0.092   6.628   4.312  3.7120  0.9233  0.1371
19875TIP3   OH281039   0.189   0.583  13.768  0.0166 -0.1420 -0.0036
19875TIP3    H181040   0.204   0.677  13.761 -1.1743  0.1704  1.1769
19875TIP3    H281041   0.272   0.547  13.798  0.0349  0.7443  1.0350
19876TIP3   OH281042   2.612   6.689  16.534 -0.7689 -0.5478 -0.2782
19876TIP3    H181043   2.642   6.666  16.623 -1.0246  1.5079  0.4060
19876TIP3    H281044   2.518   6.702  16.543 -0.5203  1.7868 -0.2675
19877TIP3   OH281045   6.201   3.378   1.017 -0.3753  0.1810  0.1218
19877TIP3    H181046   6.237   3.386   1.106  0.2167 -2.6792  0.2242
19877TIP3    H281047   6.115   3.419   1.022  0.4689  1.9208  1.4317
19878TIP3   OH281048   1.133   6.049  13.656  0.3279  0.1278 -0.4430
19878TIP3    H181049   1.224   6.048  13.688 -0.3969  1.8968  1.9587
19878TIP3    H281050   1.108   5.956  13.654  1.8038 -0.3159  0.0408
19879TIP3   OH281051   6.634   6.370  14.046 -0.2106  0.0577  0.3245
19879TIP3    H181052   6.669   6.300  13.992 -0.8139  0.2125 -0.2749
19879TIP3    H281053   6.671   6.354  14.133  1.5946  0.4054 -0.3448
19880TIP3   OH281054   4.223   4.275  13.602 -0.5265  0.1405 -0.3261
19880TIP3    H181055   4.163   4.254  13.674 -0.0912  0.7295  0.2227
19880TIP3    H281056   4.235   4.193  13.556  0.3299 -0.6049  1.1427
19881TIP3   OH281057   3.241   2.674  13.251 -0.1751 -0.0589  0.1355
19881TIP3    H181058   3.229   2.631  13.166  3.1493 -3.2819  0.9959
19881TIP3    H281059   3.195   2.617  13.313  1.2832 -0.4259  0.9277
19882TIP3   OH281060   2.887   1.758   0.762 -0.3361 -0.0503 -0.5378
19882TIP3    H181061   2.862   1.833   0.707  0.4076  0.9284  0.4161
19882TIP3    H281062   2.908   1.797   0.847  0.1648 -1.3417 -0.0484
19883TIP3   OH281063   3.747   2.826  12.924 -0.1093 -0.6391  0.0862
19883TIP3    H181064   3.702   2.743  12.943  0.2184 -1.1415 -1.2590
19883TIP3    H281065   3.836   2.812  12.957  0.3422 -1.3565 -1.3709
19884TIP3   OH281066   4.433   4.699   3.622  0.4957  0.5364 -0.6279
19884TIP3    H181067   4.439   4.648   3.703 -0.1354 -2.8587 -2.5283
19884TIP3    H281068   4.509   4.757   3.624 -0.4526  1.9461  3.1478
19885TIP3   OH281069   4.837   4.204  12.271 -0.6792 -0.0622  0.4040
19885TIP3    H181070   4.849   4.109  12.279 -0.1577 -0.0565 -0.2117
19885TIP3    H281071   4.814   4.217  12.179  0.5397  0.5208  0.1634
19886TIP3   OH281072   3.753   4.511  15.725  0.1801 -0.0553  0.5247
19886TIP3    H181073   3.828   4.475  15.677 -1.5363 -2.1337 -0.8072
19886TIP3    H281074   3.763   4.477  15.814  0.5368 -0.8160  0.2070
19887TIP3   OH281075   3.713   6.396   1.173 -0.0491 -0.2797  0.0833
19887TIP3    H181076   3.733   6.331   1.240  1.3242  0.2429  0.2094
19887TIP3    H281077   3.684   6.345   1.097  0.3795 -0.9947  0.3916
19888TIP3   OH281078   1.490   5.456  11.982 -0.2704  0.6085 -0.3474
19888TIP3    H181079   1.439   5.387  12.023 -0.2872 -0.5860 -2.2358
19888TIP3    H281080   1.580   5.424  11.984  0.0752  1.6002  0.7979
19889TIP3   OH281081   3.843   4.023  16.656  0.6712 -0.4689  0.1322
19889TIP3    H181082   3.824   4.114  16.637  2.0259 -0.6256 -2.2627
19889TIP3    H281083   3.762   3.989  16.696  0.1850  1.7346  1.1619
19890TIP3   OH281084   0.419   6.671  13.287 -0.6379  0.5274 -0.2488
19890TIP3    H181085   0.342   6.718  13.318  0.2391  1.5512  0.4171
19890TIP3    H281086   0.461   6.638  13.366 -0.4226 -0.1106 -0.6149
19891TIP3   OH281087   0.843   0.911   3.592  0.1158 -0.1029  0.1167
19891TIP3    H181088   0.872   0.977   3.529  1.0632 -2.2962 -1.8670
19891TIP3    H281089   0.914   0.906   3.657  0.4592  0.1674 -0.2370
19892TIP3   OH281090   1.094   5.346   2.222  0.2747  0.0486  0.3686
19892TIP3    H181091   1.143   5.379   2.147  1.3089 -0.5632  0.7514
19892TIP3    H281092   1.110   5.251   2.222 -1.4210 -0.2784  0.1547
19893TIP3   OH281093   0.179   0.819   0.222  0.3250 -0.2530  0.0926
19893TIP3    H181094   0.134   0.847   0.142  1.8366  0.7401 -0.4450
19893TIP3    H281095   0.127   0.858   0.293  0.8295  1.6932 -0.5477
19894TIP3   OH281096   5.113   3.594   3.219  0.0178  0.0976 -0.2366
19894TIP3    H181097   5.174   3.551   3.159 -0.0487  0.7347 -0.7722
19894TIP3    H281098   5.170   3.640   3.281  0.0862 -0.3790  0.0561
19895TIP3   OH281099   3.792   4.229  14.471  0.4695  0.1012 -0.5434
19895TIP3    H181100   3.869   4.242  14.525  0.8555 -0.0993 -1.0400
19895TIP3    H281101   3.820   4.170  14.401  0.3659  1.4015 -1.7403
19896TIP3   OH281102   5.737   6.034  16.552 -0.0539 -0.3708 -0.2254
19896TIP3    H181103   5.708   5.975  16.622 -1.8620  0.8975  0.1751
19896TIP3    H281104   5.783   6.104  16.597 -0.0875 -0.2156 -0.4312
19897TIP3   OH281105   6.464   2.674  12.383  0.3156 -0.0530 -0.4765
19897TIP3    H181106   6.509   2.748  12.424 -1.8073  0.9606  0.1833
19897TIP3    H281107   6.464   2.606  12.451 -0.9608  0.7227  0.3589
19898TIP3   OH281108   1.263   5.571   3.381  0.0241 -0.1414 -0.7107
19898TIP3    H181109   1.227   5.507   3.320 -0.0303  1.0361 -1.9691
19898TIP3    H281110   1.285   5.646   3.326  0.2053  0.8714  0.6966
19899TIP3   OH281111   4.305   1.695  14.707  0.2718  0.6925 -0.7600
19899TIP3    H181112   4.369   1.624  14.710  0.2465  0.6423 -1.3250
19899TIP3    H281113   4.225   1.655  14.741  0.5237  0.7437 -0.0969
19900TIP3   OH281114   4.355   1.203   4.201 -0.3980 -0.3115  0.4271
19900TIP3    H181115   4.436   1.161   4.175  0.0157  1.8531 -2.2429
19900TIP3    H281116   4.287   1.139   4.182  0.4948 -1.2300  0.2842
19901TIP3   OH281117   3.187   4.758   1.968 -0.6288 -0.4199  0.4676
19901TIP3    H181118   3.093   4.756   1.985 -0.5269 -1.3311  0.9919
19901TIP3    H281119   3.196   4.736   1.875 -0.8577 -2.2190  0.8298
19902TIP3   OH281120   0.124   6.713   5.323 -0.1746  0.5284 -0.3799
19902TIP3    H181121   0.115   6.751   5.236  0.5049  1.1340 -0.1968
19902TIP3    H281122   0.039   6.725   5.364 -1.2082 -1.6630 -1.6843
19903TIP3   OH281123   3.639   2.091  15.696 -0.6546 -0.6359 -0.2351
19903TIP3    H181124   3.688   2.018  15.735  1.1284 -0.0847 -1.3256
19903TIP3    H281125   3.655   2.165  15.755  2.1200  0.2223 -1.8588
19904TIP3   OH281126   1.478   0.541   4.363  0.0961  0.0122 -0.1564
19904TIP3    H181127   1.530   0.613   4.326 -0.2245  0.1647 -0.3152
19904TIP3    H281128   1.444   0.576   4.445  1.1807 -0.4822  0.5206
19905TIP3   OH281129   5.437   4.191   3.734 -0.0090 -0.0832 -0.6735
19905TIP3    H181130   5.391   4.252   3.675  0.8863  2.1528  0.8189
19905TIP3    H281131   5.372   4.167   3.799 -0.0906  0.0437 -0.7084
19906TIP3   OH281132   6.563   4.070   2.200  0.1415 -0.5819 -0.3077
19906TIP3    H181133   6.517   4.007   2.256  1.8546 -2.6296 -1.0924
19906TIP3    H281134   6.495   4.132   2.174 -1.1881 -0.8464  2.1664
19907TIP3   OH281135   5.008   4.012  13.500 -0.0857 -0.2213  0.4294
19907TIP3    H181136   4.970   4.093  13.466 -0.7630 -0.4183  0.7094
19907TIP3    H281137   5.011   3.954  13.424 -2.2170 -0.8914  0.7906
19908TIP3   OH281138   6.340   2.368   6.612 -0.0941  0.4609  0.0520
19908TIP3    H181139   6.414   2.322   6.572 -1.0429 -0.0397 -1.2055
19908TIP3    H281140   6.270   2.303   6.614 -1.1572  1.5388 -0.8096
19909TIP3   OH281141   0.537   2.456   1.925 -0.0319  0.9181  0.5383
19909TIP3    H181142   0.565   2.524   1.986  0.9712  0.1688  0.9458
19909TIP3    H281143   0.514   2.503   1.845 -0.2272  1.8057  1.1040
19910TIP3   OH281144   0.673   1.814  14.434 -0.1372 -0.0396  0.3911
19910TIP3    H181145   0.624   1.801  14.353 -0.3041 -0.8925  0.6266
19910TIP3    H281146   0.666   1.731  14.481  0.8623  0.0814  0.7932
19911TIP3   OH281147   3.877   5.979   3.096  0.0972 -0.0327  0.1668
19911TIP3    H181148   3.782   5.970   3.083  0.1024 -2.3315  1.3131
19911TIP3    H281149   3.909   6.014   3.013 -1.6012 -0.4221 -0.6971
19912TIP3   OH281150   1.181   3.508  15.351  0.1949 -0.1574  0.7370
19912TIP3    H181151   1.221   3.594  15.365  0.6727  0.0814 -1.6546
19912TIP3    H281152   1.088   3.522  15.369  0.3439  0.7265  0.8787
19913TIP3   OH281153   2.571   5.829   1.153  0.5015  0.1763 -0.2269
19913TIP3    H181154   2.504   5.772   1.114 -0.2753  1.5775 -1.0144
19913TIP3    H281155   2.561   5.818   1.247 -2.3987  2.0273 -0.2255
19914TIP3   OH281156   4.068   1.477   5.661 -0.2629  0.1354  0.4070
19914TIP3    H181157   4.132   1.544   5.685  0.9517 -1.0305  0.5202
19914TIP3    H281158   3.993   1.527   5.629  0.8543  1.5474 -0.1448
19915TIP3   OH281159   2.002   4.517  13.840  0.0251  0.2579  0.4350
19915TIP3    H181160   1.966   4.544  13.756  1.5989 -0.3152 -0.4639
19915TIP3    H281161   1.944   4.558  13.905 -1.2114  0.7230 -0.9015
19916TIP3   OH281162   5.462   4.079  14.105 -0.3056 -0.3556 -0.2234
19916TIP3    H181163   5.391   4.142  14.100 -0.1095 -0.1857 -1.1459
19916TIP3    H281164   5.478   4.067  14.198 -0.5840  0.6947 -0.0335
19917TIP3   OH281165   1.961   0.446  13.545 -1.3556  0.3427  0.5945
19917TIP3    H181166   1.922   0.533  13.553 -2.6712 -0.1816  0.1020
19917TIP3    H281167   1.894   0.393  13.502 -1.6759 -1.6002  3.2264
19918TIP3   OH281168   0.628   4.005  11.335 -0.1820  0.4705 -0.7627
19918TIP3    H181169   0.679   3.925  11.349  1.3144  1.6463  0.9114
19918TIP3    H281170   0.553   3.976  11.282  0.3668 -2.0058 -0.3270
19919TIP3   OH281171   4.276   4.306  11.778  0.4842  0.1789  0.3001
19919TIP3    H181172   4.197   4.253  11.783  0.1681  0.7200  2.7910
19919TIP3    H281173   4.348   4.244  11.770 -0.0762 -0.4097 -0.2136
19920TIP3   OH281174   5.549   4.665   3.799  0.1408  0.5509 -0.4331
19920TIP3    H181175   5.491   4.724   3.847  1.2322  0.6280  0.8517
19920TIP3    H281176   5.575   4.714   3.721 -0.9819  0.7602 -0.6934
19921TIP3   OH281177   1.581   4.831  16.839  0.3728 -0.2983 -0.7427
19921TIP3    H181178   1.661   4.865  16.878  0.8621 -0.5939 -1.4650
19921TIP3    H281179   1.512   4.889  16.872  1.2095  1.5840 -2.0983
19922TIP3   OH281180   3.072   6.778  13.302 -0.0469 -0.1401 -0.0249
19922TIP3    H181181   3.140   6.777  13.369 -0.4728 -0.1322  0.4164
19922TIP3    H281182   3.117   6.755  13.221  1.0772  2.7856 -0.3501
19923TIP3   OH281183   1.380   4.133   3.097  0.6951 -0.1503  0.0355
19923TIP3    H181184   1.469   4.115   3.069  0.2734 -3.1268  0.3034
19923TIP3    H281185   1.333   4.157   3.016  1.7788  2.0545 -0.0162
19924TIP3   OH281186   1.875   3.640   1.492 -0.2593  0.4831 -0.0330
19924TIP3    H181187   1.878   3.726   1.450 -0.8666 -0.0961 -1.3322
19924TIP3    H281188   1.820   3.587   1.434 -1.0985 -0.3910  1.4773
19925TIP3   OH281189   5.381   5.708  10.899 -0.3934  0.1670 -0.4051
19925TIP3    H181190   5.380   5.616  10.922 -1.6173  0.0187 -0.9605
19925TIP3    H281191   5.297   5.723  10.856 -0.1724  1.5163 -0.4196
19926TIP3   OH281192   0.578   1.177  17.261  0.1817  0.2010 -0.0857
19926TIP3    H181193   0.636   1.169  17.337 -0.6371 -1.0334  0.4381
19926TIP3    H281194   0.630   1.144  17.188  0.6217  0.4334  0.1194
19927TIP3   OH281195   6.073   6.264   2.553 -0.5108  0.4559  0.0776
19927TIP3    H181196   6.014   6.266   2.628 -0.9779  0.3870 -0.2881
19927TIP3    H281197   6.040   6.331   2.494 -0.2048  0.4425 -0.1119
19928TIP3   OH281198   1.260   3.911   5.944  0.3640 -0.5998 -0.6834
19928TIP3    H181199   1.298   3.991   5.978 -1.1609  0.0355 -0.3850
19928TIP3    H281200   1.286   3.909   5.852  3.1775 -1.5087  0.0301
19929TIP3   OH281201   4.069   3.668  15.186  0.0341  0.1585  0.2258
19929TIP3    H181202   4.156   3.643  15.219 -0.8081  0.5807  2.9878
19929TIP3    H281203   4.088   3.739  15.124  1.6063  1.5430  2.1592
19930TIP3   OH281204   2.709   6.621  12.557  0.0885 -0.1020  0.0029
19930TIP3    H181205   2.640   6.556  12.540  1.3321 -1.2317 -1.0024
19930TIP3    H281206   2.766   6.578  12.621  1.4090 -0.4019 -1.3329
19931TIP3   OH281207   2.680   5.015  17.074  0.0176 -0.5726  0.2681
19931TIP3    H181208   2.733   4.975  17.006 -0.1890 -0.3739 -0.0107
19931TIP3    H281209   2.650   4.941  17.127 -0.8397 -0.8666 -0.5875
19932TIP3   OH281210   5.922   1.703  10.900  0.2696 -0.0777 -0.6112
19932TIP3    H181211   5.841   1.726  10.856 -0.4224 -0.2033  0.5553
19932TIP3    H281212   5.980   1.779  10.886 -0.7546  0.9000  0.2180
19933TIP3   OH281213   0.214   5.041   5.531  0.9980 -0.2290  0.0077
19933TIP3    H181214   0.265   5.114   5.494 -0.2076  1.3746  1.3253
19933TIP3    H281215   0.145   5.025   5.466 -0.4176  1.7852  0.9141
19934TIP3   OH281216   1.916   6.008   0.206 -0.1653 -0.0501  0.8350
19934TIP3    H181217   1.980   6.023   0.136  1.7022  0.1610  2.5078
19934TIP3    H281218   1.964   6.026   0.287 -2.1738 -0.5466  2.2062
19935TIP3   OH281219   4.534   3.289   3.337 -0.1528 -0.2383  0.9829
19935TIP3    H181220   4.560   3.358   3.398  1.6844  0.7649 -0.8198
19935TIP3    H281221   4.597   3.295   3.266 -0.7836 -2.9049  0.0826
19936TIP3   OH281222   2.097   0.814   3.953  0.1015  0.2816 -0.2057
19936TIP3    H181223   2.031   0.808   3.885 -2.3067  2.3342  1.7636
19936TIP3    H281224   2.136   0.901   3.941 -0.9797  1.0503  1.4570
19937TIP3   OH281225   1.678   0.081   5.031  1.1848  0.6638  0.6256
19937TIP3    H181226   1.672   0.049   5.121  1.3226 -1.3894 -0.0391
19937TIP3    H281227   1.602   0.044   4.987  1.2310  1.4687 -0.1624
19938TIP3   OH281228   0.733   1.039  17.098  0.4921  0.3508 -0.3715
19938TIP3    H181229   0.781   1.113  17.060  0.3748  1.0017  0.6874
19938TIP3    H281230   0.800   0.973  17.114  0.6735  0.3922 -0.9291
19939TIP3   OH281231   6.679   4.380   1.998  0.3429 -0.0289  0.2525
19939TIP3    H181232   6.673   4.286   1.981  0.3187  0.0023  0.0820
19939TIP3    H281233   6.758   4.391   2.051  1.5334  0.0909 -1.4696
19940TIP3   OH281234   1.268   2.329   2.277 -0.3717  0.5355 -0.5918
19940TIP3    H181235   1.359   2.304   2.263  0.0056 -0.0015  2.2274
19940TIP3    H281236   1.272   2.417   2.313 -0.8273  0.0758  0.6588
19941TIP3   OH281237   5.722   1.718   3.241 -0.0241 -0.1705  0.0783
19941TIP3    H181238   5.656   1.651   3.262  0.6333 -1.6661 -2.3211
19941TIP3    H281239   5.675   1.801   3.250 -1.9992 -1.1489 -0.6944
19942TIP3   OH281240   1.905   1.410  16.968 -0.2679  0.2770  0.4554
19942TIP3    H181241   1.885   1.494  17.008 -1.6244 -0.1387  0.7071
19942TIP3    H281242   1.965   1.368  17.029  1.2187  1.4329 -0.1473
19943TIP3   OH281243   1.662   1.103   2.291  0.4698 -0.4444 -0.3525
19943TIP3    H181244   1.589   1.058   2.335  0.5567 -0.2204  0.0251
19943TIP3    H281245   1.635   1.195   2.287  0.3855 -0.4913 -0.9364
19944TIP3   OH281246   0.303   5.883   6.168 -0.3470 -0.1164 -0.2085
19944TIP3    H181247   0.365   5.956   6.165  0.3985 -0.7570 -2.4430
19944TIP3    H281248   0.217   5.924   6.170  0.0865  0.7955  1.7289
19945TIP3   OH281249   4.804   2.547   3.859  0.3658  0.2751 -0.9949
19945TIP3    H181250   4.747   2.507   3.925  1.0753 -0.4603 -0.8219
19945TIP3    H281251   4.844   2.473   3.813  0.5592  0.7837 -1.6596
19946TIP3   OH281252   0.902   5.978   6.088  0.4432  0.7546 -0.0693
19946TIP3    H181253   0.817   5.934   6.088  0.2607  0.9648 -2.3061
19946TIP3    H281254   0.961   5.919   6.133 -0.5067 -0.2642 -0.1324
19947TIP3   OH281255   1.146   4.807  14.467  0.6060 -0.5468  0.2285
19947TIP3    H181256   1.115   4.897  14.476 -0.9866 -1.0457  0.0190
19947TIP3    H281257   1.166   4.779  14.556  1.1273  0.0225  0.2905
19948TIP3   OH281258   2.098   5.329  14.667 -0.8990 -0.3445  0.3925
19948TIP3    H181259   2.176   5.326  14.722 -0.4782 -0.1234 -0.1798
19948TIP3    H281260   2.038   5.387  14.713 -0.1651  0.6465  0.1323
19949TIP3   OH281261   3.269   5.283  14.359  0.1511  0.4210  0.9288
19949TIP3    H181262   3.207   5.223  14.318 -0.4133  0.1113  2.1746
19949TIP3    H281263   3.218   5.363  14.374  0.4671  0.6744  0.6754
19950TIP3   OH281264   4.606   1.398   3.011  0.5643 -0.5670 -0.1462
19950TIP3    H181265   4.598   1.381   3.105 -2.2358 -0.7379 -0.3403
19950TIP3    H281266   4.624   1.492   3.006 -0.9878 -0.1959  0.5701
19951TIP3   OH281267   0.465   0.827  14.907 -0.0574 -0.3745 -0.0144
19951TIP3    H181268   0.459   0.918  14.879 -0.7846 -0.4697 -0.1695
19951TIP3    H281269   0.503   0.832  14.995  0.1683  0.0555 -0.1312
19952LIG     O181270   4.749   1.676  16.567  0.0790  1.0425 -0.0368
19952LIG     O281271   5.029   1.687  16.562  0.9830  0.6070 -0.6994
19952LIG     O381272   4.715   1.424  16.742  0.2353  0.2206  0.3936
19952LIG     O481273   5.190   1.838  16.652  0.0928  1.1459 -0.2788
19952LIG     O581274   5.051   1.511  16.777  0.5189 -0.3930 -0.3471
19952LIG     O681275   5.276   1.556  16.951 -0.7680 -0.5015 -0.4991
19952LIG     O781276   5.349   1.829  16.981  0.1278 -0.4310  0.0132
19952LIG     O881277   5.478   1.955  16.689  0.2960 -0.5379 -0.4594
19952LIG     O981278   5.333   2.105  16.790  0.1725 -0.4584  0.9856
19952LIG      N81279   4.720   1.562  16.087 -0.5133  0.2054 -0.3842
19952LIG     C181280   4.794   1.673  16.353 -0.6117  0.2896  0.4819
19952LIG     C281281   4.883   1.690  16.231 -1.6745 -0.0572 -0.0132
19952LIG     C381282   4.810   1.758  16.470 -0.0035  0.0542 -0.4434
19952LIG     C481283   4.856   1.567  16.136 -0.1414  0.2304 -0.2962
19952LIG     C581284   4.644   1.667  16.307  0.8228  0.2132  0.5767
19952LIG     C681285   4.811   1.531  16.412 -0.8485 -0.0724 -0.6184
19952LIG     C781286   4.901   1.426  16.202 -0.5311 -0.1704  0.2985
19952LIG     C881287   4.626   1.558  16.195 -1.2135  0.1268 -0.1734
19952LIG     C981288   4.960   1.789  16.494  0.3580  0.3606  0.6104
19952LIG    C1081289   4.853   1.411  16.351 -0.2325 -0.2313  0.4352
19952LIG    C1181290   5.029   1.732  16.263 -0.2485  0.2480 -0.1214
19952LIG    C1281291   4.774   1.536  16.542 -0.3632  0.9997  0.2418
19952LIG    C1381292   5.065   1.778  16.386 -0.5787  0.2539  0.4090
19952LIG    C1481293   4.690   1.666  15.999 -0.5238 -0.1701 -0.7542
19952LIG    C1581294   4.864   1.294  16.426 -0.2835  0.0594  0.6863
19952LIG    C1681295   4.785   1.422  16.623  0.1941 -0.0634  0.4466
19952LIG    C1781296   4.826   1.303  16.561  0.3426  0.1741  0.0518
19952LIG    C1881297   5.089   1.737  16.683  0.9934  0.5805  0.1796
19952LIG    C1981298   5.148   1.618  16.755 -0.1952  0.0608  1.1403
19952LIG    C2081299   5.208   1.663  16.887 -0.1799  0.1635  0.3065
19952LIG    C2181300   5.310   1.776  16.850 -0.5181 -0.6349  0.2039
19952LIG    C2281301   5.248   1.885  16.768 -0.9009  0.2995  0.4534
19952LIG    C2381302   5.354   1.994  16.751 -0.2527  0.1406 -0.3519
19952LIG     H181303   4.846   1.780  16.177  0.3860  0.7688 -0.1256
19952LIG     H281304   4.749   1.850  16.459  0.9828  0.7422 -0.3655
19952LIG     H381305   4.929   1.579  16.053  0.3200  0.2369  0.1053
19952LIG     H481306   4.618   1.769  16.271  0.0845 -0.4661 -0.8856
19952LIG     H581307   4.567   1.648  16.384  0.4231  2.0046  0.6719
19952LIG     H681308   5.012   1.421  16.202 -0.3359  2.4325 -0.5712
19952LIG     H781309   4.862   1.333  16.156  1.3742 -1.0269  0.3171
19952LIG     H881310   4.619   1.456  16.239  0.6631 -0.6553 -1.5663
19952LIG     H981311   4.527   1.587  16.155 -1.0815  0.2199 -0.4340
19952LIG    H1081312   4.973   1.887  16.546 -2.2188  0.0584  1.9627
19952LIG    H1181313   5.088   1.770  16.179  0.5865  0.1251  0.3955
19952LIG    H1281314   5.161   1.826  16.407  0.8086 -2.0506 -0.3070
19952LIG    H1381315   4.624   1.740  16.051  0.5179 -0.0280  0.3934
19952LIG    H1481316   4.639   1.628  15.908 -0.1942  1.2145 -1.5434
19952LIG    H1581317   4.773   1.736  15.976 -0.5170  1.1848  2.7504
19952LIG    H1681318   4.896   1.212  16.364  0.6232  0.3309  0.7822
19952LIG    H1781319   4.847   1.217  16.623  2.8094  0.2465 -0.5688
19952LIG    H1881320   5.008   1.771  16.751 -0.6531 -1.9273 -0.3981
19952LIG    H1981321   5.230   1.576  16.692 -1.3749 -2.0472  0.8867
19952LIG    H2081322   5.125   1.704  16.949  1.2195  1.9032  1.1326
19952LIG    H2181323   4.734   1.341  16.789  0.4878  0.3369  0.5017
19952LIG    H2281324   5.398   1.731  16.799 -0.2591  1.6351 -1.4601
19952LIG    H2381325   5.172   1.937  16.830 -1.6020  1.3117 -1.1844
19952LIG    H2481326   4.970   1.551  16.809 -0.6357 -1.2427 -2.0288
19952LIG    H2581327   5.305   1.586  17.037 -0.1786  0.5199 -1.0350
19952LIG    H2681328   5.441   1.854  16.987 -0.2843  1.1008  0.3938
19952LIG    H2781329   5.530   2.035  16.683 -0.4597 -0.0678 -0.9630
   6.79123   6.79123  17.27692
